                         Program Version 4.1.2  - RELEASE  -
|  1> #Run DFT-D3 single point of the dimer
|  2> ! wB97X-D3 def2-TZVP TIGHTSCF CHELPG PMODEL PAL8
|  3>
|  4> %base "18-158_DFT_AB"
|  5>
|  6> %scf
|  7> MaxIter 1000
|  8> end
|  9>
| 10> * xyz 0 1
| 11>   C                      4.100286             2.419518             4.578838
| 12>   O                      4.571700             3.775638             4.629194
| 13>   H                      3.838929             4.233463             4.255375
| 14>   H                      3.081155             2.408276             4.861014
| 15>   H                      4.080533             1.920868             3.605897
| 16>   H                      4.727841             1.750703             5.215968
| 17>   C                      7.316150             4.315736             2.639256
| 18>   O                      6.591456             5.243610             3.419545
| 19>   H                      6.164695             4.581253             3.946942
| 20>   H                      8.375635             4.458791             2.782526
| 21>   H                      7.085207             3.298872             2.953924
| 22>   H                      6.965721             4.240085             1.594744
| 23> *
| 24>
| 25> #Run DFT-D3 single point of the molecule with dimer basis set
| 26> $new_job
| 27> %base "18-158_DFT_A"
| 28> ! wB97X-D3 def2-TZVP TIGHTSCF CHELPG PMODEL
| 29>
| 30> %scf
| 31> MaxIter 1000
| 32> end
| 33>
| 34> * xyz 0 1
| 35>   C                      4.100286             2.419518             4.578838
| 36>   O                      4.571700             3.775638             4.629194
| 37>   H                      3.838929             4.233463             4.255375
| 38>   H                      3.081155             2.408276             4.861014
| 39>   H                      4.080533             1.920868             3.605897
| 40>   H                      4.727841             1.750703             5.215968
| 41>   C                    : 7.316150             4.315736             2.639256
| 42>   O                    : 6.591456             5.243610             3.419545
| 43>   H                    : 6.164695             4.581253             3.946942
| 44>   H                    : 8.375635             4.458791             2.782526
| 45>   H                    : 7.085207             3.298872             2.953924
| 46>   H                    : 6.965721             4.240085             1.594744
| 47> *
| 48>
| 49> #Run DFT-D3 single point of the particle with dimer basis set
| 50> $new_job
| 51> %base "18-158_DFT_B"
| 52> ! wB97X-D3 def2-TZVP TIGHTSCF CHELPG PMODEL
| 53>
| 54> %scf
| 55> MaxIter 1000
| 56> end
| 57>
| 58> * xyz 0 1
| 59>   C                    : 4.100286             2.419518             4.578838
| 60>   O                    : 4.571700             3.775638             4.629194
| 61>   H                    : 3.838929             4.233463             4.255375
| 62>   H                    : 3.081155             2.408276             4.861014
| 63>   H                    : 4.080533             1.920868             3.605897
| 64>   H                    : 4.727841             1.750703             5.215968
| 65>   C                      7.316150             4.315736             2.639256
| 66>   O                      6.591456             5.243610             3.419545
| 67>   H                      6.164695             4.581253             3.946942
| 68>   H                      8.375635             4.458791             2.782526
| 69>   H                      7.085207             3.298872             2.953924
| 70>   H                      6.965721             4.240085             1.594744
| 71> *
| 72>
| 73>                          ****END OF INPUT****
 Total Charge           Charge          ....    0
 Multiplicity           Mult            ....    1
 Number of Electrons    NEL             ....   36
Dispersion correction           -0.001841031
FINAL SINGLE POINT ENERGY      -231.464344387905
Dispersion correction           -0.000238390
FINAL SINGLE POINT ENERGY      -115.730975727237

CARTESIAN COORDINATES (ANGSTROEM)
---------------------------------
  C      4.100286    2.419518    4.578838
  O      4.571700    3.775638    4.629194
  H      3.838929    4.233463    4.255375
  H      3.081155    2.408276    4.861014
  H      4.080533    1.920868    3.605897
  H      4.727841    1.750703    5.215968
  C      7.316150    4.315736    2.639256
  O      6.591456    5.243610    3.419545
  H      6.164695    4.581253    3.946942
  H      8.375635    4.458791    2.782526
  H      7.085207    3.298872    2.953924
  H      6.965721    4.240085    1.594744

 Multiplicity           Mult            ....    1
 Number of Electrons    NEL             ....   18
 Basis Dimension        Dim             ....  172

ORBITAL ENERGIES
----------------

  NO   OCC          E(Eh)            E(eV)
   0   2.0000     -19.233377      -523.3668
   1   2.0000     -10.313627      -280.6481
   2   2.0000      -1.150410       -31.3043
   3   2.0000      -0.792562       -21.5667
   4   2.0000      -0.616779       -16.7834
   5   2.0000      -0.553669       -15.0661
   6   2.0000      -0.520893       -14.1742
   7   2.0000      -0.439236       -11.9522
   8   2.0000      -0.379461       -10.3257
   9   0.0000       0.067659         1.8411
  10   0.0000       0.134618         3.6631
  11   0.0000       0.145379         3.9560
  12   0.0000       0.167620         4.5612
  13   0.0000       0.192626         5.2416

MULLIKEN ATOMIC CHARGES
-----------------------
   0 C :   -0.000501
   1 O :   -0.005602
   2 H :   -0.002002
   3 H :    0.000001
   4 H :   -0.000124
   5 H :    0.000052
   6 C :   -0.184329
   7 O :   -0.440332
   8 H :    0.313168
   9 H :    0.119850
  10 H :    0.093362
  11 H :    0.106456
Sum of atomic charges:   -0.0000000

LOEWDIN ATOMIC CHARGES
----------------------
   0 C :   -0.002822
   1 O :   -0.022736
   2 H :   -0.003421
   3 H :   -0.000049
   4 H :   -0.000181
   5 H :   -0.000090
   6 C :   -0.392639
   7 O :   -0.053896
   8 H :    0.178111
   9 H :    0.099381
  10 H :    0.095561
  11 H :    0.102782

  Mayer bond orders larger than 0.1
B(  6-C ,  7-O ) :   1.0048 B(  6-C ,  9-H ) :   0.9782 B(  6-C , 10-H ) :   0.9936
B(  6-C , 11-H ) :   0.9655 B(  7-O ,  8-H ) :   0.9085

Dispersion correction           -0.000212232
FINAL SINGLE POINT ENERGY      -115.725580083401

DIPOLE MOMENT
-------------
                                X             Y             Z
Electronic contribution:     -0.79701       1.50912       0.90908
Nuclear contribution   :      0.80064      -2.29236      -0.86525
                        -----------------------------------------
Total Dipole Moment    :      0.00363      -0.78323       0.04384
                        -----------------------------------------
Magnitude (a.u.)       :      0.78447
Magnitude (Debye)      :      1.99396

Rotational constants in cm-1:     4.261734     0.843193     0.820612
Rotational constants in MHz : 127763.566716 25278.302249 24601.339340

                             ****ORCA TERMINATED NORMALLY****
TOTAL RUN TIME: 0 days 0 hours 1 minutes 6 seconds 742 msec
