                         Program Version 4.1.2  - RELEASE  -
|  1> #Run DFT-D3 single point of the dimer
|  2> ! wB97X-D3 def2-TZVP TIGHTSCF  CHELPG PAL8
|  3>
|  4> %base "131_charges"
|  5>
|  6> %scf
|  7> MaxIter 1000
|  8> end
|  9> %output
| 10>   Print[ P_Mayer ] 1
| 11>   Print[ P_NatPop ] 1
| 12>   Print[ P_Hirshfeld ] 1
| 13>   Print[ P_Mulliken ] 1
| 14>   Print [ P_Loewdin ] 1
| 15> end
| 16>
| 17> * xyz 0 1
| 18>   C                      -0.956779            5.438476             -10.813906
| 19>   O                      -1.400880            6.357159             -11.816065
| 20>   H                      -2.105571            5.976987             -12.377562
| 21>   H                      -0.630025            4.442740             -11.145490
| 22>   H                      -0.195279            5.915055             -10.131924
| 23>   H                      -1.819699            5.248261             -10.156672
| 24> *
| 25>
| 26>                          ****END OF INPUT****

CARTESIAN COORDINATES (ANGSTROEM)
---------------------------------
  C     -0.956779    5.438476  -10.813906
  O     -1.400880    6.357159  -11.816065
  H     -2.105571    5.976987  -12.377562
  H     -0.630025    4.442740  -11.145490
  H     -0.195279    5.915055  -10.131924
  H     -1.819699    5.248261  -10.156672

 Total Charge           Charge          ....    0
 Multiplicity           Mult            ....    1
 Number of Electrons    NEL             ....   18
 Basis Dimension        Dim             ....   86

ORBITAL ENERGIES
----------------

  NO   OCC          E(Eh)            E(eV)
   0   2.0000     -19.230984      -523.3017
   1   2.0000     -10.320009      -280.8217
   2   2.0000      -1.125656       -30.6307
   3   2.0000      -0.793258       -21.5857
   4   2.0000      -0.608402       -16.5555
   5   2.0000      -0.533399       -14.5145
   6   2.0000      -0.523797       -14.2532
   7   2.0000      -0.430235       -11.7073
   8   2.0000      -0.370720       -10.0878
   9   0.0000       0.113797         3.0966
  10   0.0000       0.149083         4.0567
  11   0.0000       0.199384         5.4255
  12   0.0000       0.202914         5.5216
  13   0.0000       0.224541         6.1101

MULLIKEN ATOMIC CHARGES
-----------------------
   0 C :   -0.163680
   1 O :   -0.485309
   2 H :    0.317943
   3 H :    0.102364
   4 H :    0.124315
   5 H :    0.104367
Sum of atomic charges:    0.0000000

LOEWDIN ATOMIC CHARGES
----------------------
   0 C :   -0.382945
   1 O :   -0.100012
   2 H :    0.177019
   3 H :    0.093054
   4 H :    0.117007
   5 H :    0.095875

  Mayer bond orders larger than 0.1
B(  0-C ,  1-O ) :   0.9945 B(  0-C ,  3-H ) :   0.9657 B(  0-C ,  4-H ) :   0.9702
B(  0-C ,  5-H ) :   0.9844 B(  1-O ,  2-H ) :   0.8922

Dispersion correction           -0.000267390
FINAL SINGLE POINT ENERGY      -115.731961408608

DIPOLE MOMENT
-------------
                                X             Y             Z
Electronic contribution:     -0.35536       1.23736      -1.35064
Nuclear contribution   :      0.07194      -1.85465       1.41465
                        -----------------------------------------
Total Dipole Moment    :     -0.28342      -0.61729       0.06401
                        -----------------------------------------
Magnitude (a.u.)       :      0.68226
Magnitude (Debye)      :      1.73416

Rotational constants in cm-1:     4.280050     0.805826     0.772381
Rotational constants in MHz : 128312.664787 24158.047428 23155.391730

                             ****ORCA TERMINATED NORMALLY****
TOTAL RUN TIME: 0 days 0 hours 0 minutes 42 seconds 658 msec
