                         Program Version 4.1.2  - RELEASE  -
|  1> #Run DFT-D3 single point of the dimer
|  2> ! wB97X-D3 def2-TZVP TIGHTSCF CHELPG PMODEL PAL8
|  3>
|  4> %base "21-194_DFT_AB"
|  5>
|  6> %scf
|  7> MaxIter 1000
|  8> end
|  9>
| 10> * xyz 0 1
| 11>   C                      1.064836             10.403060            1.959708
| 12>   O                      0.921461             9.305629             1.099116
| 13>   H                      1.660101             8.748959             1.207532
| 14>   H                      1.417389             10.046724            2.966692
| 15>   H                      1.741924             11.090266            1.572753
| 16>   H                      0.205987             11.068615            2.164938
| 17>   C                      -1.804028            9.062981             -1.684498
| 18>   O                      -1.185827            8.137430             -0.790392
| 19>   H                      -0.857489            8.554327             0.021385
| 20>   H                      -1.514621            8.858486             -2.740619
| 21>   H                      -2.837264            8.982155             -1.610011
| 22>   H                      -1.602605            10.074410            -1.308795
| 23> *
| 24>
| 25> #Run DFT-D3 single point of the molecule with dimer basis set
| 26> $new_job
| 27> %base "21-194_DFT_A"
| 28> ! wB97X-D3 def2-TZVP TIGHTSCF CHELPG PMODEL
| 29>
| 30> %scf
| 31> MaxIter 1000
| 32> end
| 33>
| 34> * xyz 0 1
| 35>   C                      1.064836             10.403060            1.959708
| 36>   O                      0.921461             9.305629             1.099116
| 37>   H                      1.660101             8.748959             1.207532
| 38>   H                      1.417389             10.046724            2.966692
| 39>   H                      1.741924             11.090266            1.572753
| 40>   H                      0.205987             11.068615            2.164938
| 41>   C                    : -1.804028            9.062981             -1.684498
| 42>   O                    : -1.185827            8.137430             -0.790392
| 43>   H                    : -0.857489            8.554327             0.021385
| 44>   H                    : -1.514621            8.858486             -2.740619
| 45>   H                    : -2.837264            8.982155             -1.610011
| 46>   H                    : -1.602605            10.074410            -1.308795
| 47> *
| 48>
| 49> #Run DFT-D3 single point of the particle with dimer basis set
| 50> $new_job
| 51> %base "21-194_DFT_B"
| 52> ! wB97X-D3 def2-TZVP TIGHTSCF CHELPG PMODEL
| 53>
| 54> %scf
| 55> MaxIter 1000
| 56> end
| 57>
| 58> * xyz 0 1
| 59>   C                    : 1.064836             10.403060            1.959708
| 60>   O                    : 0.921461             9.305629             1.099116
| 61>   H                    : 1.660101             8.748959             1.207532
| 62>   H                    : 1.417389             10.046724            2.966692
| 63>   H                    : 1.741924             11.090266            1.572753
| 64>   H                    : 0.205987             11.068615            2.164938
| 65>   C                      -1.804028            9.062981             -1.684498
| 66>   O                      -1.185827            8.137430             -0.790392
| 67>   H                      -0.857489            8.554327             0.021385
| 68>   H                      -1.514621            8.858486             -2.740619
| 69>   H                      -2.837264            8.982155             -1.610011
| 70>   H                      -1.602605            10.074410            -1.308795
| 71> *
| 72>
| 73>                          ****END OF INPUT****
 Total Charge           Charge          ....    0
 Multiplicity           Mult            ....    1
 Number of Electrons    NEL             ....   36
Dispersion correction           -0.001442080
FINAL SINGLE POINT ENERGY      -231.464512069113
Dispersion correction           -0.000235713
FINAL SINGLE POINT ENERGY      -115.727790618170

CARTESIAN COORDINATES (ANGSTROEM)
---------------------------------
  C      1.064836   10.403060    1.959708
  O      0.921461    9.305629    1.099116
  H      1.660101    8.748959    1.207532
  H      1.417389   10.046724    2.966692
  H      1.741924   11.090266    1.572753
  H      0.205987   11.068615    2.164938
  C     -1.804028    9.062981   -1.684498
  O     -1.185827    8.137430   -0.790392
  H     -0.857489    8.554327    0.021385
  H     -1.514621    8.858486   -2.740619
  H     -2.837264    8.982155   -1.610011
  H     -1.602605   10.074410   -1.308795

 Multiplicity           Mult            ....    1
 Number of Electrons    NEL             ....   18
 Basis Dimension        Dim             ....  172

ORBITAL ENERGIES
----------------

  NO   OCC          E(Eh)            E(eV)
   0   2.0000     -19.226093      -523.1686
   1   2.0000     -10.311798      -280.5983
   2   2.0000      -1.125705       -30.6320
   3   2.0000      -0.799647       -21.7595
   4   2.0000      -0.608684       -16.5631
   5   2.0000      -0.537724       -14.6322
   6   2.0000      -0.534073       -14.5329
   7   2.0000      -0.426881       -11.6160
   8   2.0000      -0.370883       -10.0922
   9   0.0000       0.069351         1.8871
  10   0.0000       0.126370         3.4387
  11   0.0000       0.146763         3.9936
  12   0.0000       0.169289         4.6066
  13   0.0000       0.192621         5.2415

MULLIKEN ATOMIC CHARGES
-----------------------
   0 C :   -0.001694
   1 O :   -0.003051
   2 H :   -0.000735
   3 H :    0.000034
   4 H :    0.000081
   5 H :    0.000059
   6 C :   -0.155593
   7 O :   -0.490311
   8 H :    0.317660
   9 H :    0.116087
  10 H :    0.116419
  11 H :    0.101044
Sum of atomic charges:   -0.0000000

LOEWDIN ATOMIC CHARGES
----------------------
   0 C :   -0.001486
   1 O :   -0.011141
   2 H :   -0.001105
   3 H :   -0.000026
   4 H :   -0.000029
   5 H :   -0.000082
   6 C :   -0.364142
   7 O :   -0.091252
   8 H :    0.174150
   9 H :    0.109948
  10 H :    0.085471
  11 H :    0.099694

  Mayer bond orders larger than 0.1
B(  6-C ,  7-O ) :   0.9889 B(  6-C ,  9-H ) :   0.9711 B(  6-C , 10-H ) :   0.9777
B(  6-C , 11-H ) :   0.9882 B(  7-O ,  8-H ) :   0.8979

Dispersion correction           -0.000245119
FINAL SINGLE POINT ENERGY      -115.730344038794

DIPOLE MOMENT
-------------
                                X             Y             Z
Electronic contribution:      0.74552      -1.24125       0.92662
Nuclear contribution   :     -0.82254       1.90566      -0.76715
                        -----------------------------------------
Total Dipole Moment    :     -0.07702       0.66441       0.15947
                        -----------------------------------------
Magnitude (a.u.)       :      0.68761
Magnitude (Debye)      :      1.74776

Rotational constants in cm-1:     4.353536     0.825151     0.784574
Rotational constants in MHz : 130515.719426 24737.410517 23520.933872

                             ****ORCA TERMINATED NORMALLY****
TOTAL RUN TIME: 0 days 0 hours 1 minutes 6 seconds 412 msec
