                         Program Version 4.1.2  - RELEASE  -
|  1> #Run DFT-D3 single point of the dimer
|  2> ! wB97X-D3 def2-TZVP TIGHTSCF CHELPG PMODEL PAL8
|  3>
|  4> %base "5-151_DFT_AB"
|  5>
|  6> %scf
|  7> MaxIter 1000
|  8> end
|  9>
| 10> * xyz 0 1
| 11>   C                      8.147362             3.621650             -3.749684
| 12>   O                      8.053980             4.057583             -2.454928
| 13>   H                      7.472880             3.409524             -2.063040
| 14>   H                      7.820027             2.626620             -3.885421
| 15>   H                      7.487367             4.180078             -4.434288
| 16>   H                      9.216773             3.642630             -4.117676
| 17>   C                      6.349488             1.958305             -0.293641
| 18>   O                      6.402245             1.534939             -1.668295
| 19>   H                      5.500103             1.659178             -2.082639
| 20>   H                      7.230434             2.498772             -0.038362
| 21>   H                      5.513317             2.605014             -0.130240
| 22>   H                      6.275680             1.143591             0.346185
| 23> *
| 24>
| 25> #Run DFT-D3 single point of the molecule with dimer basis set
| 26> $new_job
| 27> %base "5-151_DFT_A"
| 28> ! wB97X-D3 def2-TZVP TIGHTSCF CHELPG PMODEL
| 29>
| 30> %scf
| 31> MaxIter 1000
| 32> end
| 33>
| 34> * xyz 0 1
| 35>   C                      8.147362             3.621650             -3.749684
| 36>   O                      8.053980             4.057583             -2.454928
| 37>   H                      7.472880             3.409524             -2.063040
| 38>   H                      7.820027             2.626620             -3.885421
| 39>   H                      7.487367             4.180078             -4.434288
| 40>   H                      9.216773             3.642630             -4.117676
| 41>   C                    : 6.349488             1.958305             -0.293641
| 42>   O                    : 6.402245             1.534939             -1.668295
| 43>   H                    : 5.500103             1.659178             -2.082639
| 44>   H                    : 7.230434             2.498772             -0.038362
| 45>   H                    : 5.513317             2.605014             -0.130240
| 46>   H                    : 6.275680             1.143591             0.346185
| 47> *
| 48>
| 49> #Run DFT-D3 single point of the particle with dimer basis set
| 50> $new_job
| 51> %base "5-151_DFT_B"
| 52> ! wB97X-D3 def2-TZVP TIGHTSCF CHELPG PMODEL
| 53>
| 54> %scf
| 55> MaxIter 1000
| 56> end
| 57>
| 58> * xyz 0 1
| 59>   C                    : 8.147362             3.621650             -3.749684
| 60>   O                    : 8.053980             4.057583             -2.454928
| 61>   H                    : 7.472880             3.409524             -2.063040
| 62>   H                    : 7.820027             2.626620             -3.885421
| 63>   H                    : 7.487367             4.180078             -4.434288
| 64>   H                    : 9.216773             3.642630             -4.117676
| 65>   C                      6.349488             1.958305             -0.293641
| 66>   O                      6.402245             1.534939             -1.668295
| 67>   H                      5.500103             1.659178             -2.082639
| 68>   H                      7.230434             2.498772             -0.038362
| 69>   H                      5.513317             2.605014             -0.130240
| 70>   H                      6.275680             1.143591             0.346185
| 71> *
| 72>
| 73>                          ****END OF INPUT****
 Total Charge           Charge          ....    0
 Multiplicity           Mult            ....    1
 Number of Electrons    NEL             ....   36
Dispersion correction           -0.001995868
FINAL SINGLE POINT ENERGY      -231.469482939726
Dispersion correction           -0.000222055
FINAL SINGLE POINT ENERGY      -115.730449501830

CARTESIAN COORDINATES (ANGSTROEM)
---------------------------------
  C      8.147362    3.621650   -3.749684
  O      8.053980    4.057583   -2.454928
  H      7.472880    3.409524   -2.063040
  H      7.820027    2.626620   -3.885421
  H      7.487367    4.180078   -4.434288
  H      9.216773    3.642630   -4.117676
  C      6.349488    1.958305   -0.293641
  O      6.402245    1.534939   -1.668295
  H      5.500103    1.659178   -2.082639
  H      7.230434    2.498772   -0.038362
  H      5.513317    2.605014   -0.130240
  H      6.275680    1.143591    0.346185

 Multiplicity           Mult            ....    1
 Number of Electrons    NEL             ....   18
 Basis Dimension        Dim             ....  172

ORBITAL ENERGIES
----------------

  NO   OCC          E(Eh)            E(eV)
   0   2.0000     -19.231223      -523.3082
   1   2.0000     -10.302949      -280.3575
   2   2.0000      -1.119306       -30.4579
   3   2.0000      -0.802656       -21.8414
   4   2.0000      -0.603152       -16.4126
   5   2.0000      -0.545705       -14.8494
   6   2.0000      -0.528409       -14.3787
   7   2.0000      -0.433083       -11.7848
   8   2.0000      -0.374051       -10.1784
   9   0.0000       0.094109         2.5608
  10   0.0000       0.124243         3.3808
  11   0.0000       0.150041         4.0828
  12   0.0000       0.186726         5.0811
  13   0.0000       0.207043         5.6339

MULLIKEN ATOMIC CHARGES
-----------------------
   0 C :    0.002809
   1 O :   -0.001977
   2 H :    0.000467
   3 H :   -0.006462
   4 H :    0.000106
   5 H :   -0.000448
   6 C :   -0.176134
   7 O :   -0.487745
   8 H :    0.319392
   9 H :    0.121439
  10 H :    0.109668
  11 H :    0.118883
Sum of atomic charges:    0.0000000

LOEWDIN ATOMIC CHARGES
----------------------
   0 C :   -0.007039
   1 O :   -0.002517
   2 H :   -0.021887
   3 H :   -0.005141
   4 H :   -0.000102
   5 H :   -0.000090
   6 C :   -0.348546
   7 O :   -0.090338
   8 H :    0.190882
   9 H :    0.102368
  10 H :    0.095204
  11 H :    0.087206

  Mayer bond orders larger than 0.1
B(  6-C ,  7-O ) :   0.9914 B(  6-C ,  9-H ) :   0.9808 B(  6-C , 10-H ) :   0.9852
B(  6-C , 11-H ) :   0.9763 B(  7-O ,  8-H ) :   0.8930

Dispersion correction           -0.000244145
FINAL SINGLE POINT ENERGY      -115.731698722438

DIPOLE MOMENT
-------------
                                X             Y             Z
Electronic contribution:      0.21684      -0.59257      -1.62868
Nuclear contribution   :     -0.81846       0.85027       1.96686
                        -----------------------------------------
Total Dipole Moment    :     -0.60162       0.25770       0.33818
                        -----------------------------------------
Magnitude (a.u.)       :      0.73670
Magnitude (Debye)      :      1.87254

Rotational constants in cm-1:     4.462845     0.813205     0.780907
Rotational constants in MHz : 133792.723314 24379.281866 23411.006381

                             ****ORCA TERMINATED NORMALLY****
TOTAL RUN TIME: 0 days 0 hours 1 minutes 4 seconds 202 msec
