                         Program Version 4.1.2  - RELEASE  -
|  1> #Run DFT-D3 single point of the dimer
|  2> ! wB97X-D3 def2-TZVP TIGHTSCF CHELPG PMODEL PAL8
|  3>
|  4> %base "20-118_DFT_AB"
|  5>
|  6> %scf
|  7> MaxIter 1000
|  8> end
|  9>
| 10> * xyz 0 1
| 11>   C                      -4.286633            7.826120             1.492004
| 12>   O                      -5.094304            8.659068             2.319935
| 13>   H                      -6.047964            8.445136             2.344196
| 14>   H                      -4.777304            7.440605             0.628035
| 15>   H                      -3.385954            8.291319             1.218376
| 16>   H                      -3.951033            6.945951             1.997395
| 17>   C                      -9.444903            7.118559             2.009416
| 18>   O                      -9.564462            7.870914             0.833202
| 19>   H                      -10.191301           8.543669             0.980895
| 20>   H                      -10.220304           7.259219             2.739813
| 21>   H                      -9.396842            6.043823             1.817411
| 22>   H                      -8.487909            7.302932             2.560824
| 23> *
| 24>
| 25> #Run DFT-D3 single point of the molecule with dimer basis set
| 26> $new_job
| 27> %base "20-118_DFT_A"
| 28> ! wB97X-D3 def2-TZVP TIGHTSCF CHELPG PMODEL
| 29>
| 30> %scf
| 31> MaxIter 1000
| 32> end
| 33>
| 34> * xyz 0 1
| 35>   C                      -4.286633            7.826120             1.492004
| 36>   O                      -5.094304            8.659068             2.319935
| 37>   H                      -6.047964            8.445136             2.344196
| 38>   H                      -4.777304            7.440605             0.628035
| 39>   H                      -3.385954            8.291319             1.218376
| 40>   H                      -3.951033            6.945951             1.997395
| 41>   C                    : -9.444903            7.118559             2.009416
| 42>   O                    : -9.564462            7.870914             0.833202
| 43>   H                    : -10.191301           8.543669             0.980895
| 44>   H                    : -10.220304           7.259219             2.739813
| 45>   H                    : -9.396842            6.043823             1.817411
| 46>   H                    : -8.487909            7.302932             2.560824
| 47> *
| 48>
| 49> #Run DFT-D3 single point of the particle with dimer basis set
| 50> $new_job
| 51> %base "20-118_DFT_B"
| 52> ! wB97X-D3 def2-TZVP TIGHTSCF CHELPG PMODEL
| 53>
| 54> %scf
| 55> MaxIter 1000
| 56> end
| 57>
| 58> * xyz 0 1
| 59>   C                    : -4.286633            7.826120             1.492004
| 60>   O                    : -5.094304            8.659068             2.319935
| 61>   H                    : -6.047964            8.445136             2.344196
| 62>   H                    : -4.777304            7.440605             0.628035
| 63>   H                    : -3.385954            8.291319             1.218376
| 64>   H                    : -3.951033            6.945951             1.997395
| 65>   C                      -9.444903            7.118559             2.009416
| 66>   O                      -9.564462            7.870914             0.833202
| 67>   H                      -10.191301           8.543669             0.980895
| 68>   H                      -10.220304           7.259219             2.739813
| 69>   H                      -9.396842            6.043823             1.817411
| 70>   H                      -8.487909            7.302932             2.560824
| 71> *
| 72>
| 73>                          ****END OF INPUT****
 Total Charge           Charge          ....    0
 Multiplicity           Mult            ....    1
 Number of Electrons    NEL             ....   36
Dispersion correction           -0.001046489
FINAL SINGLE POINT ENERGY      -231.464715886849
Dispersion correction           -0.000266828
FINAL SINGLE POINT ENERGY      -115.730360618414

CARTESIAN COORDINATES (ANGSTROEM)
---------------------------------
  C     -4.286633    7.826120    1.492004
  O     -5.094304    8.659068    2.319935
  H     -6.047964    8.445136    2.344196
  H     -4.777304    7.440605    0.628035
  H     -3.385954    8.291319    1.218376
  H     -3.951033    6.945951    1.997395
  C     -9.444903    7.118559    2.009416
  O     -9.564462    7.870914    0.833202
  H    -10.191301    8.543669    0.980895
  H    -10.220304    7.259219    2.739813
  H     -9.396842    6.043823    1.817411
  H     -8.487909    7.302932    2.560824

 Multiplicity           Mult            ....    1
 Number of Electrons    NEL             ....   18
 Basis Dimension        Dim             ....  172

ORBITAL ENERGIES
----------------

  NO   OCC          E(Eh)            E(eV)
   0   2.0000     -19.231577      -523.3178
   1   2.0000     -10.312586      -280.6197
   2   2.0000      -1.147579       -31.2272
   3   2.0000      -0.799862       -21.7654
   4   2.0000      -0.623103       -16.9555
   5   2.0000      -0.533635       -14.5209
   6   2.0000      -0.531614       -14.4660
   7   2.0000      -0.438991       -11.9455
   8   2.0000      -0.372841       -10.1455
   9   0.0000       0.090165         2.4535
  10   0.0000       0.119937         3.2637
  11   0.0000       0.149951         4.0804
  12   0.0000       0.168649         4.5892
  13   0.0000       0.199870         5.4387

MULLIKEN ATOMIC CHARGES
-----------------------
   0 C :   -0.000385
   1 O :   -0.000441
   2 H :    0.002711
   3 H :   -0.000012
   4 H :    0.000005
   5 H :    0.000031
   6 C :   -0.180312
   7 O :   -0.458286
   8 H :    0.312709
   9 H :    0.112813
  10 H :    0.117323
  11 H :    0.093843
Sum of atomic charges:   -0.0000000

LOEWDIN ATOMIC CHARGES
----------------------
   0 C :   -0.000063
   1 O :   -0.000064
   2 H :   -0.001652
   3 H :   -0.000017
   4 H :   -0.000000
   5 H :   -0.000002
   6 C :   -0.399501
   7 O :   -0.048196
   8 H :    0.153335
   9 H :    0.092322
  10 H :    0.103376
  11 H :    0.100462

  Mayer bond orders larger than 0.1
B(  6-C ,  7-O ) :   1.0206 B(  6-C ,  9-H ) :   0.9826 B(  6-C , 10-H ) :   0.9791
B(  6-C , 11-H ) :   0.9712 B(  7-O ,  8-H ) :   0.9055

Dispersion correction           -0.000257791
FINAL SINGLE POINT ENERGY      -115.733352187618

DIPOLE MOMENT
-------------
                                X             Y             Z
Electronic contribution:     -0.19252       1.00023      -1.69314
Nuclear contribution   :     -0.20041      -0.85057       2.24548
                        -----------------------------------------
Total Dipole Moment    :     -0.39293       0.14966       0.55234
                        -----------------------------------------
Magnitude (a.u.)       :      0.69417
Magnitude (Debye)      :      1.76443

Rotational constants in cm-1:     4.503482     0.831609     0.802269
Rotational constants in MHz : 135011.003007 24931.016539 24051.424977

                             ****ORCA TERMINATED NORMALLY****
TOTAL RUN TIME: 0 days 0 hours 1 minutes 2 seconds 184 msec
