                         Program Version 4.1.2  - RELEASE  -
|  1> #Run DFT-D3 single point of the dimer
|  2> ! wB97X-D3 def2-TZVP TIGHTSCF CHELPG PMODEL PAL8
|  3>
|  4> %base "3-187_DFT_AB"
|  5>
|  6> %scf
|  7> MaxIter 1000
|  8> end
|  9>
| 10> * xyz 0 1
| 11>   C                      -10.428202           5.531880             9.380070
| 12>   O                      -11.155193           4.439396             8.911200
| 13>   H                      -10.618214           3.684931             9.012320
| 14>   H                      -9.753657            5.184252             10.105576
| 15>   H                      -9.902580            5.987028             8.585777
| 16>   H                      -10.993473           6.326341             9.881629
| 17>   C                      -10.784921           2.338398             6.359228
| 18>   O                      -10.385116           3.674964             6.340304
| 19>   H                      -9.422935            3.708324             6.500767
| 20>   H                      -10.580213           1.830706             5.424346
| 21>   H                      -10.286281           1.740670             7.124465
| 22>   H                      -11.849395           2.245584             6.538222
| 23> *
| 24>
| 25> #Run DFT-D3 single point of the molecule with dimer basis set
| 26> $new_job
| 27> %base "3-187_DFT_A"
| 28> ! wB97X-D3 def2-TZVP TIGHTSCF CHELPG PMODEL
| 29>
| 30> %scf
| 31> MaxIter 1000
| 32> end
| 33>
| 34> * xyz 0 1
| 35>   C                      -10.428202           5.531880             9.380070
| 36>   O                      -11.155193           4.439396             8.911200
| 37>   H                      -10.618214           3.684931             9.012320
| 38>   H                      -9.753657            5.184252             10.105576
| 39>   H                      -9.902580            5.987028             8.585777
| 40>   H                      -10.993473           6.326341             9.881629
| 41>   C                    : -10.784921           2.338398             6.359228
| 42>   O                    : -10.385116           3.674964             6.340304
| 43>   H                    : -9.422935            3.708324             6.500767
| 44>   H                    : -10.580213           1.830706             5.424346
| 45>   H                    : -10.286281           1.740670             7.124465
| 46>   H                    : -11.849395           2.245584             6.538222
| 47> *
| 48>
| 49> #Run DFT-D3 single point of the particle with dimer basis set
| 50> $new_job
| 51> %base "3-187_DFT_B"
| 52> ! wB97X-D3 def2-TZVP TIGHTSCF CHELPG PMODEL
| 53>
| 54> %scf
| 55> MaxIter 1000
| 56> end
| 57>
| 58> * xyz 0 1
| 59>   C                    : -10.428202           5.531880             9.380070
| 60>   O                    : -11.155193           4.439396             8.911200
| 61>   H                    : -10.618214           3.684931             9.012320
| 62>   H                    : -9.753657            5.184252             10.105576
| 63>   H                    : -9.902580            5.987028             8.585777
| 64>   H                    : -10.993473           6.326341             9.881629
| 65>   C                      -10.784921           2.338398             6.359228
| 66>   O                      -10.385116           3.674964             6.340304
| 67>   H                      -9.422935            3.708324             6.500767
| 68>   H                      -10.580213           1.830706             5.424346
| 69>   H                      -10.286281           1.740670             7.124465
| 70>   H                      -11.849395           2.245584             6.538222
| 71> *
| 72>
| 73>                          ****END OF INPUT****
 Total Charge           Charge          ....    0
 Multiplicity           Mult            ....    1
 Number of Electrons    NEL             ....   36
Dispersion correction           -0.002037532
FINAL SINGLE POINT ENERGY      -231.461809517059
Dispersion correction           -0.000217030
FINAL SINGLE POINT ENERGY      -115.730771065202

CARTESIAN COORDINATES (ANGSTROEM)
---------------------------------
  C    -10.428202    5.531880    9.380070
  O    -11.155193    4.439396    8.911200
  H    -10.618214    3.684931    9.012320
  H     -9.753657    5.184252   10.105576
  H     -9.902580    5.987028    8.585777
  H    -10.993473    6.326341    9.881629
  C    -10.784921    2.338398    6.359228
  O    -10.385116    3.674964    6.340304
  H     -9.422935    3.708324    6.500767
  H    -10.580213    1.830706    5.424346
  H    -10.286281    1.740670    7.124465
  H    -11.849395    2.245584    6.538222

 Multiplicity           Mult            ....    1
 Number of Electrons    NEL             ....   18
 Basis Dimension        Dim             ....  172

ORBITAL ENERGIES
----------------

  NO   OCC          E(Eh)            E(eV)
   0   2.0000     -19.233529      -523.3709
   1   2.0000     -10.308726      -280.5147
   2   2.0000      -1.139944       -31.0194
   3   2.0000      -0.796570       -21.6758
   4   2.0000      -0.615933       -16.7604
   5   2.0000      -0.540997       -14.7213
   6   2.0000      -0.531754       -14.4698
   7   2.0000      -0.434101       -11.8125
   8   2.0000      -0.372931       -10.1480
   9   0.0000       0.089350         2.4313
  10   0.0000       0.127311         3.4643
  11   0.0000       0.149237         4.0609
  12   0.0000       0.187123         5.0919
  13   0.0000       0.192729         5.2444

MULLIKEN ATOMIC CHARGES
-----------------------
   0 C :   -0.007379
   1 O :    0.006891
   2 H :   -0.003716
   3 H :    0.000520
   4 H :   -0.000908
   5 H :   -0.000398
   6 C :   -0.167492
   7 O :   -0.473829
   8 H :    0.319119
   9 H :    0.104815
  10 H :    0.102553
  11 H :    0.119826
Sum of atomic charges:   -0.0000000

LOEWDIN ATOMIC CHARGES
----------------------
   0 C :   -0.006052
   1 O :   -0.012061
   2 H :   -0.006272
   3 H :   -0.000082
   4 H :   -0.001602
   5 H :   -0.000134
   6 C :   -0.400765
   7 O :   -0.049955
   8 H :    0.182329
   9 H :    0.092931
  10 H :    0.094727
  11 H :    0.106934

  Mayer bond orders larger than 0.1
B(  6-C ,  7-O ) :   0.9921 B(  6-C ,  9-H ) :   0.9733 B(  6-C , 10-H ) :   0.9813
B(  6-C , 11-H ) :   0.9765 B(  7-O ,  8-H ) :   0.8941

Dispersion correction           -0.000238560
FINAL SINGLE POINT ENERGY      -115.736322359895

DIPOLE MOMENT
-------------
                                X             Y             Z
Electronic contribution:      0.37625       1.84529      -0.04928
Nuclear contribution   :      0.07418      -2.35380       0.15900
                        -----------------------------------------
Total Dipole Moment    :      0.45043      -0.50851       0.10971
                        -----------------------------------------
Magnitude (a.u.)       :      0.68812
Magnitude (Debye)      :      1.74906

Rotational constants in cm-1:     4.401829     0.844868     0.811509
Rotational constants in MHz : 131963.510927 25328.514615 24328.417593

                             ****ORCA TERMINATED NORMALLY****
TOTAL RUN TIME: 0 days 0 hours 6 minutes 11 seconds 401 msec
