                         Program Version 4.1.2  - RELEASE  -
|  1> #Run DFT-D3 single point of the dimer
|  2> ! wB97X-D3 def2-TZVP TIGHTSCF CHELPG PMODEL PAL8
|  3>
|  4> %base "5-165_DFT_AB"
|  5>
|  6> %scf
|  7> MaxIter 1000
|  8> end
|  9>
| 10> * xyz 0 1
| 11>   C                      -8.410225            -0.821002            -8.789456
| 12>   O                      -8.113368            -0.162009            -9.990376
| 13>   H                      -7.278055            0.309001             -9.897010
| 14>   H                      -8.741089            -0.008371            -8.039512
| 15>   H                      -9.202039            -1.532107            -8.940040
| 16>   H                      -7.582550            -1.437232            -8.412476
| 17>   C                      -6.294605            2.821503             -8.977898
| 18>   O                      -5.834460            1.708429             -9.706962
| 19>   H                      -5.010333            1.957635             -10.059421
| 20>   H                      -5.538537            3.307708             -8.424907
| 21>   H                      -6.734016            3.464602             -9.747660
| 22>   H                      -7.150537            2.554967             -8.323217
| 23> *
| 24>
| 25> #Run DFT-D3 single point of the molecule with dimer basis set
| 26> $new_job
| 27> %base "5-165_DFT_A"
| 28> ! wB97X-D3 def2-TZVP TIGHTSCF CHELPG PMODEL
| 29>
| 30> %scf
| 31> MaxIter 1000
| 32> end
| 33>
| 34> * xyz 0 1
| 35>   C                      -8.410225            -0.821002            -8.789456
| 36>   O                      -8.113368            -0.162009            -9.990376
| 37>   H                      -7.278055            0.309001             -9.897010
| 38>   H                      -8.741089            -0.008371            -8.039512
| 39>   H                      -9.202039            -1.532107            -8.940040
| 40>   H                      -7.582550            -1.437232            -8.412476
| 41>   C                    : -6.294605            2.821503             -8.977898
| 42>   O                    : -5.834460            1.708429             -9.706962
| 43>   H                    : -5.010333            1.957635             -10.059421
| 44>   H                    : -5.538537            3.307708             -8.424907
| 45>   H                    : -6.734016            3.464602             -9.747660
| 46>   H                    : -7.150537            2.554967             -8.323217
| 47> *
| 48>
| 49> #Run DFT-D3 single point of the particle with dimer basis set
| 50> $new_job
| 51> %base "5-165_DFT_B"
| 52> ! wB97X-D3 def2-TZVP TIGHTSCF CHELPG PMODEL
| 53>
| 54> %scf
| 55> MaxIter 1000
| 56> end
| 57>
| 58> * xyz 0 1
| 59>   C                    : -8.410225            -0.821002            -8.789456
| 60>   O                    : -8.113368            -0.162009            -9.990376
| 61>   H                    : -7.278055            0.309001             -9.897010
| 62>   H                    : -8.741089            -0.008371            -8.039512
| 63>   H                    : -9.202039            -1.532107            -8.940040
| 64>   H                    : -7.582550            -1.437232            -8.412476
| 65>   C                      -6.294605            2.821503             -8.977898
| 66>   O                      -5.834460            1.708429             -9.706962
| 67>   H                      -5.010333            1.957635             -10.059421
| 68>   H                      -5.538537            3.307708             -8.424907
| 69>   H                      -6.734016            3.464602             -9.747660
| 70>   H                      -7.150537            2.554967             -8.323217
| 71> *
| 72>
| 73>                          ****END OF INPUT****
 Total Charge           Charge          ....    0
 Multiplicity           Mult            ....    1
 Number of Electrons    NEL             ....   36
Dispersion correction           -0.001804355
FINAL SINGLE POINT ENERGY      -231.473958465756
Dispersion correction           -0.000240599
FINAL SINGLE POINT ENERGY      -115.733877517196

CARTESIAN COORDINATES (ANGSTROEM)
---------------------------------
  C     -8.410225   -0.821002   -8.789456
  O     -8.113368   -0.162009   -9.990376
  H     -7.278055    0.309001   -9.897010
  H     -8.741089   -0.008371   -8.039512
  H     -9.202039   -1.532107   -8.940040
  H     -7.582550   -1.437232   -8.412476
  C     -6.294605    2.821503   -8.977898
  O     -5.834460    1.708429   -9.706962
  H     -5.010333    1.957635  -10.059421
  H     -5.538537    3.307708   -8.424907
  H     -6.734016    3.464602   -9.747660
  H     -7.150537    2.554967   -8.323217

 Multiplicity           Mult            ....    1
 Number of Electrons    NEL             ....   18
 Basis Dimension        Dim             ....  172

ORBITAL ENERGIES
----------------

  NO   OCC          E(Eh)            E(eV)
   0   2.0000     -19.225227      -523.1450
   1   2.0000     -10.309928      -280.5474
   2   2.0000      -1.145031       -31.1579
   3   2.0000      -0.797592       -21.7036
   4   2.0000      -0.615418       -16.7464
   5   2.0000      -0.547598       -14.9009
   6   2.0000      -0.529232       -14.4011
   7   2.0000      -0.437690       -11.9101
   8   2.0000      -0.370076       -10.0703
   9   0.0000       0.098468         2.6794
  10   0.0000       0.125283         3.4091
  11   0.0000       0.156760         4.2657
  12   0.0000       0.189352         5.1525
  13   0.0000       0.196905         5.3581

MULLIKEN ATOMIC CHARGES
-----------------------
   0 C :    0.000503
   1 O :    0.000390
   2 H :   -0.009768
   3 H :   -0.000314
   4 H :   -0.000087
   5 H :   -0.000545
   6 C :   -0.168375
   7 O :   -0.460205
   8 H :    0.303483
   9 H :    0.110470
  10 H :    0.105172
  11 H :    0.119276
Sum of atomic charges:    0.0000000

LOEWDIN ATOMIC CHARGES
----------------------
   0 C :   -0.001456
   1 O :   -0.003359
   2 H :   -0.033662
   3 H :   -0.000531
   4 H :   -0.000017
   5 H :   -0.000177
   6 C :   -0.379378
   7 O :   -0.031516
   8 H :    0.149673
   9 H :    0.088006
  10 H :    0.099365
  11 H :    0.113051

  Mayer bond orders larger than 0.1
B(  6-C ,  7-O ) :   0.9771 B(  6-C ,  9-H ) :   0.9700 B(  6-C , 10-H ) :   0.9894
B(  6-C , 11-H ) :   0.9740 B(  7-O ,  8-H ) :   0.9072

Dispersion correction           -0.000214195
FINAL SINGLE POINT ENERGY      -115.731751359602

DIPOLE MOMENT
-------------
                                X             Y             Z
Electronic contribution:      0.60178      -1.46602      -0.75936
Nuclear contribution   :     -0.24816       2.07651       0.83316
                        -----------------------------------------
Total Dipole Moment    :      0.35362       0.61049       0.07381
                        -----------------------------------------
Magnitude (a.u.)       :      0.70936
Magnitude (Debye)      :      1.80304

Rotational constants in cm-1:     4.339747     0.847893     0.817272
Rotational constants in MHz : 130102.345608 25419.183470 24501.203622

                             ****ORCA TERMINATED NORMALLY****
TOTAL RUN TIME: 0 days 0 hours 0 minutes 57 seconds 486 msec
