                         Program Version 4.1.2  - RELEASE  -
|  1> #Run DFT-D3 single point of the dimer
|  2> ! wB97X-D3 def2-TZVP TIGHTSCF CHELPG PMODEL PAL8
|  3>
|  4> %base "21-67_DFT_AB"
|  5>
|  6> %scf
|  7> MaxIter 1000
|  8> end
|  9>
| 10> * xyz 0 1
| 11>   C                      11.474556            2.102910             -9.297509
| 12>   O                      10.307835            2.200152             -8.489772
| 13>   H                      9.766941             1.402733             -8.572671
| 14>   H                      11.357470            1.455794             -10.216754
| 15>   H                      11.682326            3.060955             -9.649247
| 16>   H                      12.259209            1.769761             -8.610688
| 17>   C                      9.228296             -0.241838            -6.258084
| 18>   O                      10.018616            -0.647798            -7.345073
| 19>   H                      9.408194             -0.781000            -8.081191
| 20>   H                      9.509850             -0.656845            -5.285636
| 21>   H                      9.049536             0.800049             -6.202469
| 22>   H                      8.299088             -0.647132            -6.534378
| 23> *
| 24>
| 25> #Run DFT-D3 single point of the molecule with dimer basis set
| 26> $new_job
| 27> %base "21-67_DFT_A"
| 28> ! wB97X-D3 def2-TZVP TIGHTSCF CHELPG PMODEL
| 29>
| 30> %scf
| 31> MaxIter 1000
| 32> end
| 33>
| 34> * xyz 0 1
| 35>   C                      11.474556            2.102910             -9.297509
| 36>   O                      10.307835            2.200152             -8.489772
| 37>   H                      9.766941             1.402733             -8.572671
| 38>   H                      11.357470            1.455794             -10.216754
| 39>   H                      11.682326            3.060955             -9.649247
| 40>   H                      12.259209            1.769761             -8.610688
| 41>   C                    : 9.228296             -0.241838            -6.258084
| 42>   O                    : 10.018616            -0.647798            -7.345073
| 43>   H                    : 9.408194             -0.781000            -8.081191
| 44>   H                    : 9.509850             -0.656845            -5.285636
| 45>   H                    : 9.049536             0.800049             -6.202469
| 46>   H                    : 8.299088             -0.647132            -6.534378
| 47> *
| 48>
| 49> #Run DFT-D3 single point of the particle with dimer basis set
| 50> $new_job
| 51> %base "21-67_DFT_B"
| 52> ! wB97X-D3 def2-TZVP TIGHTSCF CHELPG PMODEL
| 53>
| 54> %scf
| 55> MaxIter 1000
| 56> end
| 57>
| 58> * xyz 0 1
| 59>   C                    : 11.474556            2.102910             -9.297509
| 60>   O                    : 10.307835            2.200152             -8.489772
| 61>   H                    : 9.766941             1.402733             -8.572671
| 62>   H                    : 11.357470            1.455794             -10.216754
| 63>   H                    : 11.682326            3.060955             -9.649247
| 64>   H                    : 12.259209            1.769761             -8.610688
| 65>   C                      9.228296             -0.241838            -6.258084
| 66>   O                      10.018616            -0.647798            -7.345073
| 67>   H                      9.408194             -0.781000            -8.081191
| 68>   H                      9.509850             -0.656845            -5.285636
| 69>   H                      9.049536             0.800049             -6.202469
| 70>   H                      8.299088             -0.647132            -6.534378
| 71> *
| 72>
| 73>                          ****END OF INPUT****
 Total Charge           Charge          ....    0
 Multiplicity           Mult            ....    1
 Number of Electrons    NEL             ....   36
Dispersion correction           -0.001896804
FINAL SINGLE POINT ENERGY      -231.459284819099
Dispersion correction           -0.000247817
FINAL SINGLE POINT ENERGY      -115.732510676915

CARTESIAN COORDINATES (ANGSTROEM)
---------------------------------
  C     11.474556    2.102910   -9.297509
  O     10.307835    2.200152   -8.489772
  H      9.766941    1.402733   -8.572671
  H     11.357470    1.455794  -10.216754
  H     11.682326    3.060955   -9.649247
  H     12.259209    1.769761   -8.610688
  C      9.228296   -0.241838   -6.258084
  O     10.018616   -0.647798   -7.345073
  H      9.408194   -0.781000   -8.081191
  H      9.509850   -0.656845   -5.285636
  H      9.049536    0.800049   -6.202469
  H      8.299088   -0.647132   -6.534378

 Multiplicity           Mult            ....    1
 Number of Electrons    NEL             ....   18
 Basis Dimension        Dim             ....  172

ORBITAL ENERGIES
----------------

  NO   OCC          E(Eh)            E(eV)
   0   2.0000     -19.229717      -523.2672
   1   2.0000     -10.304649      -280.4037
   2   2.0000      -1.141120       -31.0514
   3   2.0000      -0.798965       -21.7409
   4   2.0000      -0.616008       -16.7624
   5   2.0000      -0.548107       -14.9148
   6   2.0000      -0.538563       -14.6550
   7   2.0000      -0.427889       -11.6434
   8   2.0000      -0.374130       -10.1806
   9   0.0000       0.089632         2.4390
  10   0.0000       0.123017         3.3475
  11   0.0000       0.153529         4.1777
  12   0.0000       0.182920         4.9775
  13   0.0000       0.197192         5.3659

MULLIKEN ATOMIC CHARGES
-----------------------
   0 C :    0.001912
   1 O :    0.005108
   2 H :   -0.016963
   3 H :   -0.000419
   4 H :   -0.000423
   5 H :   -0.001924
   6 C :   -0.154635
   7 O :   -0.465799
   8 H :    0.317989
   9 H :    0.116254
  10 H :    0.105067
  11 H :    0.093833
Sum of atomic charges:   -0.0000000

LOEWDIN ATOMIC CHARGES
----------------------
   0 C :   -0.004348
   1 O :   -0.003641
   2 H :   -0.014972
   3 H :   -0.000245
   4 H :   -0.000102
   5 H :   -0.000936
   6 C :   -0.381508
   7 O :   -0.057809
   8 H :    0.176970
   9 H :    0.106327
  10 H :    0.088641
  11 H :    0.091622

  Mayer bond orders larger than 0.1
B(  6-C ,  7-O ) :   1.0029 B(  6-C ,  9-H ) :   0.9728 B(  6-C , 10-H ) :   0.9711
B(  6-C , 11-H ) :   1.0067 B(  7-O ,  8-H ) :   0.8990

Dispersion correction           -0.000215630
FINAL SINGLE POINT ENERGY      -115.726526100339

DIPOLE MOMENT
-------------
                                X             Y             Z
Electronic contribution:      1.26989      -0.44844      -1.18218
Nuclear contribution   :     -2.00495       0.49737       1.15060
                        -----------------------------------------
Total Dipole Moment    :     -0.73506       0.04893      -0.03159
                        -----------------------------------------
Magnitude (a.u.)       :      0.73736
Magnitude (Debye)      :      1.87423

Rotational constants in cm-1:     4.479691     0.851817     0.818635
Rotational constants in MHz : 134297.744404 25536.821028 24542.070132

                             ****ORCA TERMINATED NORMALLY****
TOTAL RUN TIME: 0 days 0 hours 1 minutes 6 seconds 170 msec
