                         Program Version 4.1.2  - RELEASE  -
|  1> #Run DFT-D3 single point of the dimer
|  2> ! wB97X-D3 def2-TZVP TIGHTSCF CHELPG PMODEL PAL8
|  3>
|  4> %base "3-171_DFT_AB"
|  5>
|  6> %scf
|  7> MaxIter 1000
|  8> end
|  9>
| 10> * xyz 0 1
| 11>   C                      9.317209             -10.534982           -1.717924
| 12>   O                      9.210696             -9.285179            -2.380809
| 13>   H                      8.920651             -9.409764            -3.293410
| 14>   H                      8.353681             -10.771040           -1.223376
| 15>   H                      9.593112             -11.371253           -2.394576
| 16>   H                      10.014606            -10.479013           -0.886625
| 17>   C                      10.813734            -7.524345            -5.822987
| 18>   O                      10.452674            -8.536013            -6.685280
| 19>   H                      9.900976             -9.172728            -6.264489
| 20>   H                      11.131674            -6.599680            -6.439249
| 21>   H                      10.085984            -7.191105            -5.042479
| 22>   H                      11.660104            -7.883414            -5.198647
| 23> *
| 24>
| 25> #Run DFT-D3 single point of the molecule with dimer basis set
| 26> $new_job
| 27> %base "3-171_DFT_A"
| 28> ! wB97X-D3 def2-TZVP TIGHTSCF CHELPG PMODEL
| 29>
| 30> %scf
| 31> MaxIter 1000
| 32> end
| 33>
| 34> * xyz 0 1
| 35>   C                      9.317209             -10.534982           -1.717924
| 36>   O                      9.210696             -9.285179            -2.380809
| 37>   H                      8.920651             -9.409764            -3.293410
| 38>   H                      8.353681             -10.771040           -1.223376
| 39>   H                      9.593112             -11.371253           -2.394576
| 40>   H                      10.014606            -10.479013           -0.886625
| 41>   C                    : 10.813734            -7.524345            -5.822987
| 42>   O                    : 10.452674            -8.536013            -6.685280
| 43>   H                    : 9.900976             -9.172728            -6.264489
| 44>   H                    : 11.131674            -6.599680            -6.439249
| 45>   H                    : 10.085984            -7.191105            -5.042479
| 46>   H                    : 11.660104            -7.883414            -5.198647
| 47> *
| 48>
| 49> #Run DFT-D3 single point of the particle with dimer basis set
| 50> $new_job
| 51> %base "3-171_DFT_B"
| 52> ! wB97X-D3 def2-TZVP TIGHTSCF CHELPG PMODEL
| 53>
| 54> %scf
| 55> MaxIter 1000
| 56> end
| 57>
| 58> * xyz 0 1
| 59>   C                    : 9.317209             -10.534982           -1.717924
| 60>   O                    : 9.210696             -9.285179            -2.380809
| 61>   H                    : 8.920651             -9.409764            -3.293410
| 62>   H                    : 8.353681             -10.771040           -1.223376
| 63>   H                    : 9.593112             -11.371253           -2.394576
| 64>   H                    : 10.014606            -10.479013           -0.886625
| 65>   C                      10.813734            -7.524345            -5.822987
| 66>   O                      10.452674            -8.536013            -6.685280
| 67>   H                      9.900976             -9.172728            -6.264489
| 68>   H                      11.131674            -6.599680            -6.439249
| 69>   H                      10.085984            -7.191105            -5.042479
| 70>   H                      11.660104            -7.883414            -5.198647
| 71> *
| 72>
| 73>                          ****END OF INPUT****
 Total Charge           Charge          ....    0
 Multiplicity           Mult            ....    1
 Number of Electrons    NEL             ....   36
Dispersion correction           -0.001184549
FINAL SINGLE POINT ENERGY      -231.465772067500
Dispersion correction           -0.000257281
FINAL SINGLE POINT ENERGY      -115.735450360410

CARTESIAN COORDINATES (ANGSTROEM)
---------------------------------
  C      9.317209  -10.534982   -1.717924
  O      9.210696   -9.285179   -2.380809
  H      8.920651   -9.409764   -3.293410
  H      8.353681  -10.771040   -1.223376
  H      9.593112  -11.371253   -2.394576
  H     10.014606  -10.479013   -0.886625
  C     10.813734   -7.524345   -5.822987
  O     10.452674   -8.536013   -6.685280
  H      9.900976   -9.172728   -6.264489
  H     11.131674   -6.599680   -6.439249
  H     10.085984   -7.191105   -5.042479
  H     11.660104   -7.883414   -5.198647

 Multiplicity           Mult            ....    1
 Number of Electrons    NEL             ....   18
 Basis Dimension        Dim             ....  172

ORBITAL ENERGIES
----------------

  NO   OCC          E(Eh)            E(eV)
   0   2.0000     -19.230228      -523.2811
   1   2.0000     -10.320639      -280.8389
   2   2.0000      -1.151046       -31.3216
   3   2.0000      -0.791168       -21.5288
   4   2.0000      -0.624753       -17.0004
   5   2.0000      -0.538704       -14.6589
   6   2.0000      -0.523576       -14.2472
   7   2.0000      -0.430558       -11.7161
   8   2.0000      -0.368902       -10.0383
   9   0.0000       0.073980         2.0131
  10   0.0000       0.115273         3.1367
  11   0.0000       0.149695         4.0734
  12   0.0000       0.175291         4.7699
  13   0.0000       0.194315         5.2876

MULLIKEN ATOMIC CHARGES
-----------------------
   0 C :   -0.000039
   1 O :    0.000001
   2 H :   -0.000183
   3 H :   -0.000002
   4 H :   -0.000016
   5 H :   -0.000002
   6 C :   -0.165488
   7 O :   -0.464806
   8 H :    0.314849
   9 H :    0.118706
  10 H :    0.101045
  11 H :    0.095933
Sum of atomic charges:   -0.0000000

LOEWDIN ATOMIC CHARGES
----------------------
   0 C :   -0.000032
   1 O :   -0.000223
   2 H :   -0.000792
   3 H :   -0.000000
   4 H :   -0.000005
   5 H :   -0.000002
   6 C :   -0.426844
   7 O :   -0.040660
   8 H :    0.159191
   9 H :    0.119446
  10 H :    0.095093
  11 H :    0.094829

  Mayer bond orders larger than 0.1
B(  6-C ,  7-O ) :   0.9988 B(  6-C ,  9-H ) :   0.9709 B(  6-C , 10-H ) :   0.9674
B(  6-C , 11-H ) :   0.9788 B(  7-O ,  8-H ) :   0.8994

Dispersion correction           -0.000253836
FINAL SINGLE POINT ENERGY      -115.730599925299

DIPOLE MOMENT
-------------
                                X             Y             Z
Electronic contribution:     -0.52962      -1.32822      -1.29153
Nuclear contribution   :      0.28355       1.27378       1.89385
                        -----------------------------------------
Total Dipole Moment    :     -0.24607      -0.05445       0.60232
                        -----------------------------------------
Magnitude (a.u.)       :      0.65292
Magnitude (Debye)      :      1.65958

Rotational constants in cm-1:     4.219730     0.855624     0.817299
Rotational constants in MHz : 126504.316480 25650.950303 24502.005266

                             ****ORCA TERMINATED NORMALLY****
TOTAL RUN TIME: 0 days 0 hours 5 minutes 30 seconds 391 msec
