                         Program Version 4.1.2  - RELEASE  -
|  1> #Run DFT-D3 single point of the dimer
|  2> ! wB97X-D3 def2-TZVP TIGHTSCF CHELPG PMODEL PAL8
|  3>
|  4> %base "20-9_DFT_AB"
|  5>
|  6> %scf
|  7> MaxIter 1000
|  8> end
|  9>
| 10> * xyz 0 1
| 11>   C                      -4.029221            8.344015             5.610913
| 12>   O                      -2.999871            7.977746             4.667712
| 13>   H                      -3.310125            8.320182             3.789893
| 14>   H                      -3.622109            8.473960             6.626864
| 15>   H                      -4.597087            9.250479             5.314208
| 16>   H                      -4.851451            7.575020             5.727861
| 17>   C                      -0.951433            5.290424             5.804685
| 18>   O                      -2.165011            5.068943             5.047114
| 19>   H                      -2.451916            5.919018             4.731868
| 20>   H                      -1.152294            6.019029             6.526219
| 21>   H                      -0.582023            4.346872             6.325513
| 22>   H                      -0.158983            5.659910             5.179873
| 23> *
| 24>
| 25> #Run DFT-D3 single point of the molecule with dimer basis set
| 26> $new_job
| 27> %base "20-9_DFT_A"
| 28> ! wB97X-D3 def2-TZVP TIGHTSCF CHELPG PMODEL
| 29>
| 30> %scf
| 31> MaxIter 1000
| 32> end
| 33>
| 34> * xyz 0 1
| 35>   C                      -4.029221            8.344015             5.610913
| 36>   O                      -2.999871            7.977746             4.667712
| 37>   H                      -3.310125            8.320182             3.789893
| 38>   H                      -3.622109            8.473960             6.626864
| 39>   H                      -4.597087            9.250479             5.314208
| 40>   H                      -4.851451            7.575020             5.727861
| 41>   C                    : -0.951433            5.290424             5.804685
| 42>   O                    : -2.165011            5.068943             5.047114
| 43>   H                    : -2.451916            5.919018             4.731868
| 44>   H                    : -1.152294            6.019029             6.526219
| 45>   H                    : -0.582023            4.346872             6.325513
| 46>   H                    : -0.158983            5.659910             5.179873
| 47> *
| 48>
| 49> #Run DFT-D3 single point of the particle with dimer basis set
| 50> $new_job
| 51> %base "20-9_DFT_B"
| 52> ! wB97X-D3 def2-TZVP TIGHTSCF CHELPG PMODEL
| 53>
| 54> %scf
| 55> MaxIter 1000
| 56> end
| 57>
| 58> * xyz 0 1
| 59>   C                    : -4.029221            8.344015             5.610913
| 60>   O                    : -2.999871            7.977746             4.667712
| 61>   H                    : -3.310125            8.320182             3.789893
| 62>   H                    : -3.622109            8.473960             6.626864
| 63>   H                    : -4.597087            9.250479             5.314208
| 64>   H                    : -4.851451            7.575020             5.727861
| 65>   C                      -0.951433            5.290424             5.804685
| 66>   O                      -2.165011            5.068943             5.047114
| 67>   H                      -2.451916            5.919018             4.731868
| 68>   H                      -1.152294            6.019029             6.526219
| 69>   H                      -0.582023            4.346872             6.325513
| 70>   H                      -0.158983            5.659910             5.179873
| 71> *
| 72>
| 73>                          ****END OF INPUT****
 Total Charge           Charge          ....    0
 Multiplicity           Mult            ....    1
 Number of Electrons    NEL             ....   36
Dispersion correction           -0.001830542
FINAL SINGLE POINT ENERGY      -231.472977686889
Dispersion correction           -0.000277109
FINAL SINGLE POINT ENERGY      -115.732462196887

CARTESIAN COORDINATES (ANGSTROEM)
---------------------------------
  C     -4.029221    8.344015    5.610913
  O     -2.999871    7.977746    4.667712
  H     -3.310125    8.320182    3.789893
  H     -3.622109    8.473960    6.626864
  H     -4.597087    9.250479    5.314208
  H     -4.851451    7.575020    5.727861
  C     -0.951433    5.290424    5.804685
  O     -2.165011    5.068943    5.047114
  H     -2.451916    5.919018    4.731868
  H     -1.152294    6.019029    6.526219
  H     -0.582023    4.346872    6.325513
  H     -0.158983    5.659910    5.179873

 Multiplicity           Mult            ....    1
 Number of Electrons    NEL             ....   18
 Basis Dimension        Dim             ....  172

ORBITAL ENERGIES
----------------

  NO   OCC          E(Eh)            E(eV)
   0   2.0000     -19.228752      -523.2410
   1   2.0000     -10.313756      -280.6516
   2   2.0000      -1.128553       -30.7095
   3   2.0000      -0.799021       -21.7425
   4   2.0000      -0.606668       -16.5083
   5   2.0000      -0.544911       -14.8278
   6   2.0000      -0.522039       -14.2054
   7   2.0000      -0.436244       -11.8708
   8   2.0000      -0.375425       -10.2158
   9   0.0000       0.069934         1.9030
  10   0.0000       0.134583         3.6622
  11   0.0000       0.144325         3.9273
  12   0.0000       0.164212         4.4684
  13   0.0000       0.190846         5.1932

MULLIKEN ATOMIC CHARGES
-----------------------
   0 C :   -0.004754
   1 O :   -0.001761
   2 H :   -0.000287
   3 H :    0.000377
   4 H :   -0.000138
   5 H :    0.000104
   6 C :   -0.175991
   7 O :   -0.478120
   8 H :    0.311632
   9 H :    0.115976
  10 H :    0.121902
  11 H :    0.111060
Sum of atomic charges:   -0.0000000

LOEWDIN ATOMIC CHARGES
----------------------
   0 C :   -0.003866
   1 O :   -0.011995
   2 H :   -0.000894
   3 H :   -0.000148
   4 H :   -0.000091
   5 H :   -0.000511
   6 C :   -0.354468
   7 O :   -0.089730
   8 H :    0.163819
   9 H :    0.085905
  10 H :    0.119564
  11 H :    0.092416

  Mayer bond orders larger than 0.1
B(  6-C ,  7-O ) :   0.9839 B(  6-C ,  9-H ) :   0.9790 B(  6-C , 10-H ) :   0.9708
B(  6-C , 11-H ) :   0.9783 B(  7-O ,  8-H ) :   0.9088

Dispersion correction           -0.000237628
FINAL SINGLE POINT ENERGY      -115.732336650538

DIPOLE MOMENT
-------------
                                X             Y             Z
Electronic contribution:     -1.48548      -0.41337      -0.90957
Nuclear contribution   :      1.82280       1.05527       1.04075
                        -----------------------------------------
Total Dipole Moment    :      0.33731       0.64189       0.13118
                        -----------------------------------------
Magnitude (a.u.)       :      0.73689
Magnitude (Debye)      :      1.87303

Rotational constants in cm-1:     4.357247     0.805425     0.771694
Rotational constants in MHz : 130626.970432 24146.031375 23134.798248

                             ****ORCA TERMINATED NORMALLY****
TOTAL RUN TIME: 0 days 0 hours 0 minutes 52 seconds 696 msec
