                         Program Version 4.1.2  - RELEASE  -
|  1> #Run DFT-D3 single point of the dimer
|  2> ! wB97X-D3 def2-TZVP TIGHTSCF CHELPG PMODEL PAL8
|  3>
|  4> %base "4-98_DFT_AB"
|  5>
|  6> %scf
|  7> MaxIter 1000
|  8> end
|  9>
| 10> * xyz 0 1
| 11>   C                      8.304697             0.773642             -7.879795
| 12>   O                      7.697569             -0.052126            -8.879199
| 13>   H                      7.046114             -0.492704            -8.416586
| 14>   H                      8.728058             0.224718             -7.058519
| 15>   H                      9.138744             1.205424             -8.296531
| 16>   H                      7.608282             1.530593             -7.478363
| 17>   C                      10.617867            0.336756             -3.608992
| 18>   O                      11.777566            -0.433742            -3.701011
| 19>   H                      12.452453            0.202574             -3.976502
| 20>   H                      10.156272            0.244509             -2.655682
| 21>   H                      10.910703            1.349251             -3.675621
| 22>   H                      9.901700             0.017406             -4.360395
| 23> *
| 24>
| 25> #Run DFT-D3 single point of the molecule with dimer basis set
| 26> $new_job
| 27> %base "4-98_DFT_A"
| 28> ! wB97X-D3 def2-TZVP TIGHTSCF CHELPG PMODEL
| 29>
| 30> %scf
| 31> MaxIter 1000
| 32> end
| 33>
| 34> * xyz 0 1
| 35>   C                      8.304697             0.773642             -7.879795
| 36>   O                      7.697569             -0.052126            -8.879199
| 37>   H                      7.046114             -0.492704            -8.416586
| 38>   H                      8.728058             0.224718             -7.058519
| 39>   H                      9.138744             1.205424             -8.296531
| 40>   H                      7.608282             1.530593             -7.478363
| 41>   C                    : 10.617867            0.336756             -3.608992
| 42>   O                    : 11.777566            -0.433742            -3.701011
| 43>   H                    : 12.452453            0.202574             -3.976502
| 44>   H                    : 10.156272            0.244509             -2.655682
| 45>   H                    : 10.910703            1.349251             -3.675621
| 46>   H                    : 9.901700             0.017406             -4.360395
| 47> *
| 48>
| 49> #Run DFT-D3 single point of the particle with dimer basis set
| 50> $new_job
| 51> %base "4-98_DFT_B"
| 52> ! wB97X-D3 def2-TZVP TIGHTSCF CHELPG PMODEL
| 53>
| 54> %scf
| 55> MaxIter 1000
| 56> end
| 57>
| 58> * xyz 0 1
| 59>   C                    : 8.304697             0.773642             -7.879795
| 60>   O                    : 7.697569             -0.052126            -8.879199
| 61>   H                    : 7.046114             -0.492704            -8.416586
| 62>   H                    : 8.728058             0.224718             -7.058519
| 63>   H                    : 9.138744             1.205424             -8.296531
| 64>   H                    : 7.608282             1.530593             -7.478363
| 65>   C                      10.617867            0.336756             -3.608992
| 66>   O                      11.777566            -0.433742            -3.701011
| 67>   H                      12.452453            0.202574             -3.976502
| 68>   H                      10.156272            0.244509             -2.655682
| 69>   H                      10.910703            1.349251             -3.675621
| 70>   H                      9.901700             0.017406             -4.360395
| 71> *
| 72>
| 73>                          ****END OF INPUT****
 Total Charge           Charge          ....    0
 Multiplicity           Mult            ....    1
 Number of Electrons    NEL             ....   36
Dispersion correction           -0.000836845
FINAL SINGLE POINT ENERGY      -231.461114513874
Dispersion correction           -0.000227093
FINAL SINGLE POINT ENERGY      -115.729970596680

CARTESIAN COORDINATES (ANGSTROEM)
---------------------------------
  C      8.304697    0.773642   -7.879795
  O      7.697569   -0.052126   -8.879199
  H      7.046114   -0.492704   -8.416586
  H      8.728058    0.224718   -7.058519
  H      9.138744    1.205424   -8.296531
  H      7.608282    1.530593   -7.478363
  C     10.617867    0.336756   -3.608992
  O     11.777566   -0.433742   -3.701011
  H     12.452453    0.202574   -3.976502
  H     10.156272    0.244509   -2.655682
  H     10.910703    1.349251   -3.675621
  H      9.901700    0.017406   -4.360395

 Multiplicity           Mult            ....    1
 Number of Electrons    NEL             ....   18
 Basis Dimension        Dim             ....  172

ORBITAL ENERGIES
----------------

  NO   OCC          E(Eh)            E(eV)
   0   2.0000     -19.227732      -523.2132
   1   2.0000     -10.302210      -280.3374
   2   2.0000      -1.142494       -31.0889
   3   2.0000      -0.796106       -21.6631
   4   2.0000      -0.616249       -16.7690
   5   2.0000      -0.546669       -14.8756
   6   2.0000      -0.534624       -14.5479
   7   2.0000      -0.434670       -11.8280
   8   2.0000      -0.371574       -10.1110
   9   0.0000       0.085820         2.3353
  10   0.0000       0.111597         3.0367
  11   0.0000       0.153348         4.1728
  12   0.0000       0.171746         4.6734
  13   0.0000       0.188556         5.1309

MULLIKEN ATOMIC CHARGES
-----------------------
   0 C :   -0.000989
   1 O :    0.000009
   2 H :    0.000003
   3 H :    0.001041
   4 H :    0.000034
   5 H :    0.000058
   6 C :   -0.166686
   7 O :   -0.465624
   8 H :    0.315227
   9 H :    0.108114
  10 H :    0.101038
  11 H :    0.107774
Sum of atomic charges:    0.0000000

LOEWDIN ATOMIC CHARGES
----------------------
   0 C :   -0.000460
   1 O :   -0.000006
   2 H :   -0.000000
   3 H :   -0.001139
   4 H :   -0.000009
   5 H :   -0.000013
   6 C :   -0.390593
   7 O :   -0.069675
   8 H :    0.177556
   9 H :    0.094607
  10 H :    0.090813
  11 H :    0.098917

  Mayer bond orders larger than 0.1
B(  6-C ,  7-O ) :   1.0154 B(  6-C ,  9-H ) :   0.9761 B(  6-C , 10-H ) :   0.9971
B(  6-C , 11-H ) :   0.9755 B(  7-O ,  8-H ) :   0.9040

Dispersion correction           -0.000214025
FINAL SINGLE POINT ENERGY      -115.730875584507

DIPOLE MOMENT
-------------
                                X             Y             Z
Electronic contribution:      1.37680      -1.10143      -0.10158
Nuclear contribution   :     -1.38603       1.82058      -0.01861
                        -----------------------------------------
Total Dipole Moment    :     -0.00923       0.71915      -0.12019
                        -----------------------------------------
Magnitude (a.u.)       :      0.72919
Magnitude (Debye)      :      1.85345

Rotational constants in cm-1:     4.360540     0.866211     0.832293
Rotational constants in MHz : 130725.701821 25968.366941 24951.505134

                             ****ORCA TERMINATED NORMALLY****
TOTAL RUN TIME: 0 days 0 hours 1 minutes 32 seconds 676 msec
