                         Program Version 4.1.2  - RELEASE  -
|  1> #Run DFT-D3 single point of the dimer
|  2> ! wB97X-D3 def2-TZVP TIGHTSCF CHELPG PMODEL PAL8
|  3>
|  4> %base "2-103_DFT_AB"
|  5>
|  6> %scf
|  7> MaxIter 1000
|  8> end
|  9>
| 10> * xyz 0 1
| 11>   C                      8.250343             5.705359             -1.178994
| 12>   O                      7.781973             4.399579             -0.935683
| 13>   H                      6.990076             4.528335             -0.441139
| 14>   H                      7.784217             6.542154             -0.621818
| 15>   H                      9.292746             5.743374             -0.911809
| 16>   H                      8.314528             5.887828             -2.257205
| 17>   C                      8.088401             1.207706             0.125048
| 18>   O                      6.880566             0.723944             0.725348
| 19>   H                      6.327736             0.306026             0.042389
| 20>   H                      7.969318             1.287649             -1.015837
| 21>   H                      8.502525             2.181685             0.544458
| 22>   H                      8.970427             0.581518             0.385500
| 23> *
| 24>
| 25> #Run DFT-D3 single point of the molecule with dimer basis set
| 26> $new_job
| 27> %base "2-103_DFT_A"
| 28> ! wB97X-D3 def2-TZVP TIGHTSCF CHELPG PMODEL
| 29>
| 30> %scf
| 31> MaxIter 1000
| 32> end
| 33>
| 34> * xyz 0 1
| 35>   C                      8.250343             5.705359             -1.178994
| 36>   O                      7.781973             4.399579             -0.935683
| 37>   H                      6.990076             4.528335             -0.441139
| 38>   H                      7.784217             6.542154             -0.621818
| 39>   H                      9.292746             5.743374             -0.911809
| 40>   H                      8.314528             5.887828             -2.257205
| 41>   C                    : 8.088401             1.207706             0.125048
| 42>   O                    : 6.880566             0.723944             0.725348
| 43>   H                    : 6.327736             0.306026             0.042389
| 44>   H                    : 7.969318             1.287649             -1.015837
| 45>   H                    : 8.502525             2.181685             0.544458
| 46>   H                    : 8.970427             0.581518             0.385500
| 47> *
| 48>
| 49> #Run DFT-D3 single point of the particle with dimer basis set
| 50> $new_job
| 51> %base "2-103_DFT_B"
| 52> ! wB97X-D3 def2-TZVP TIGHTSCF CHELPG PMODEL
| 53>
| 54> %scf
| 55> MaxIter 1000
| 56> end
| 57>
| 58> * xyz 0 1
| 59>   C                    : 8.250343             5.705359             -1.178994
| 60>   O                    : 7.781973             4.399579             -0.935683
| 61>   H                    : 6.990076             4.528335             -0.441139
| 62>   H                    : 7.784217             6.542154             -0.621818
| 63>   H                    : 9.292746             5.743374             -0.911809
| 64>   H                    : 8.314528             5.887828             -2.257205
| 65>   C                      8.088401             1.207706             0.125048
| 66>   O                      6.880566             0.723944             0.725348
| 67>   H                      6.327736             0.306026             0.042389
| 68>   H                      7.969318             1.287649             -1.015837
| 69>   H                      8.502525             2.181685             0.544458
| 70>   H                      8.970427             0.581518             0.385500
| 71> *
| 72>
| 73>                          ****END OF INPUT****
 Total Charge           Charge          ....    0
 Multiplicity           Mult            ....    1
 Number of Electrons    NEL             ....   36
Dispersion correction           -0.001496886
FINAL SINGLE POINT ENERGY      -231.460298642934
Dispersion correction           -0.000249600
FINAL SINGLE POINT ENERGY      -115.731461180610

CARTESIAN COORDINATES (ANGSTROEM)
---------------------------------
  C      8.250343    5.705359   -1.178994
  O      7.781973    4.399579   -0.935683
  H      6.990076    4.528335   -0.441139
  H      7.784217    6.542154   -0.621818
  H      9.292746    5.743374   -0.911809
  H      8.314528    5.887828   -2.257205
  C      8.088401    1.207706    0.125048
  O      6.880566    0.723944    0.725348
  H      6.327736    0.306026    0.042389
  H      7.969318    1.287649   -1.015837
  H      8.502525    2.181685    0.544458
  H      8.970427    0.581518    0.385500

 Multiplicity           Mult            ....    1
 Number of Electrons    NEL             ....   18
 Basis Dimension        Dim             ....  172

ORBITAL ENERGIES
----------------

  NO   OCC          E(Eh)            E(eV)
   0   2.0000     -19.235031      -523.4118
   1   2.0000     -10.328496      -281.0527
   2   2.0000      -1.129454       -30.7340
   3   2.0000      -0.789194       -21.4750
   4   2.0000      -0.605126       -16.4663
   5   2.0000      -0.539252       -14.6738
   6   2.0000      -0.517901       -14.0928
   7   2.0000      -0.431665       -11.7462
   8   2.0000      -0.370409       -10.0794
   9   0.0000       0.085394         2.3237
  10   0.0000       0.110735         3.0132
  11   0.0000       0.143846         3.9143
  12   0.0000       0.173261         4.7147
  13   0.0000       0.185795         5.0557

MULLIKEN ATOMIC CHARGES
-----------------------
   0 C :   -0.001185
   1 O :   -0.000713
   2 H :    0.000608
   3 H :    0.000042
   4 H :   -0.000038
   5 H :    0.000008
   6 C :   -0.178850
   7 O :   -0.471382
   8 H :    0.322130
   9 H :    0.106717
  10 H :    0.112504
  11 H :    0.110158
Sum of atomic charges:    0.0000000

LOEWDIN ATOMIC CHARGES
----------------------
   0 C :   -0.000618
   1 O :   -0.004086
   2 H :   -0.000887
   3 H :   -0.000008
   4 H :   -0.000064
   5 H :   -0.000016
   6 C :   -0.393115
   7 O :   -0.095953
   8 H :    0.177583
   9 H :    0.107207
  10 H :    0.111380
  11 H :    0.098576

  Mayer bond orders larger than 0.1
B(  6-C ,  7-O ) :   1.0123 B(  6-C ,  9-H ) :   0.9809 B(  6-C , 10-H ) :   0.9710
B(  6-C , 11-H ) :   0.9704 B(  7-O ,  8-H ) :   0.8938

Dispersion correction           -0.000284983
FINAL SINGLE POINT ENERGY      -115.727294112115

DIPOLE MOMENT
-------------
                                X             Y             Z
Electronic contribution:     -1.64839      -0.59289       0.90093
Nuclear contribution   :      1.77592       0.51441      -1.56601
                        -----------------------------------------
Total Dipole Moment    :      0.12753      -0.07848      -0.66509
                        -----------------------------------------
Magnitude (a.u.)       :      0.68174
Magnitude (Debye)      :      1.73283

Rotational constants in cm-1:     4.173905     0.801094     0.758975
Rotational constants in MHz : 125130.535735 24016.208247 22753.493453

                             ****ORCA TERMINATED NORMALLY****
TOTAL RUN TIME: 0 days 0 hours 4 minutes 45 seconds 486 msec
