                         Program Version 4.1.2  - RELEASE  -
|  1> #Run DFT-D3 single point of the dimer
|  2> ! wB97X-D3 def2-TZVP TIGHTSCF CHELPG PMODEL PAL8
|  3>
|  4> %base "7-192_DFT_AB"
|  5>
|  6> %scf
|  7> MaxIter 1000
|  8> end
|  9>
| 10> * xyz 0 1
| 11>   C                      8.985296             -3.054821            8.696973
| 12>   O                      8.995016             -2.653601            7.377167
| 13>   H                      9.719916             -3.104390            6.964746
| 14>   H                      8.650019             -4.060848            8.822176
| 15>   H                      9.996094             -3.003890            9.103342
| 16>   H                      8.332179             -2.501358            9.316840
| 17>   C                      9.789159             1.336026             5.816755
| 18>   O                      8.851170             0.420211             6.445269
| 19>   H                      9.305486             -0.407004            6.583768
| 20>   H                      10.574013            1.653443             6.509549
| 21>   H                      10.169795            1.047420             4.861731
| 22>   H                      9.221420             2.251812             5.505735
| 23> *
| 24>
| 25> #Run DFT-D3 single point of the molecule with dimer basis set
| 26> $new_job
| 27> %base "7-192_DFT_A"
| 28> ! wB97X-D3 def2-TZVP TIGHTSCF CHELPG PMODEL
| 29>
| 30> %scf
| 31> MaxIter 1000
| 32> end
| 33>
| 34> * xyz 0 1
| 35>   C                      8.985296             -3.054821            8.696973
| 36>   O                      8.995016             -2.653601            7.377167
| 37>   H                      9.719916             -3.104390            6.964746
| 38>   H                      8.650019             -4.060848            8.822176
| 39>   H                      9.996094             -3.003890            9.103342
| 40>   H                      8.332179             -2.501358            9.316840
| 41>   C                    : 9.789159             1.336026             5.816755
| 42>   O                    : 8.851170             0.420211             6.445269
| 43>   H                    : 9.305486             -0.407004            6.583768
| 44>   H                    : 10.574013            1.653443             6.509549
| 45>   H                    : 10.169795            1.047420             4.861731
| 46>   H                    : 9.221420             2.251812             5.505735
| 47> *
| 48>
| 49> #Run DFT-D3 single point of the particle with dimer basis set
| 50> $new_job
| 51> %base "7-192_DFT_B"
| 52> ! wB97X-D3 def2-TZVP TIGHTSCF CHELPG PMODEL
| 53>
| 54> %scf
| 55> MaxIter 1000
| 56> end
| 57>
| 58> * xyz 0 1
| 59>   C                    : 8.985296             -3.054821            8.696973
| 60>   O                    : 8.995016             -2.653601            7.377167
| 61>   H                    : 9.719916             -3.104390            6.964746
| 62>   H                    : 8.650019             -4.060848            8.822176
| 63>   H                    : 9.996094             -3.003890            9.103342
| 64>   H                    : 8.332179             -2.501358            9.316840
| 65>   C                      9.789159             1.336026             5.816755
| 66>   O                      8.851170             0.420211             6.445269
| 67>   H                      9.305486             -0.407004            6.583768
| 68>   H                      10.574013            1.653443             6.509549
| 69>   H                      10.169795            1.047420             4.861731
| 70>   H                      9.221420             2.251812             5.505735
| 71> *
| 72>
| 73>                          ****END OF INPUT****
 Total Charge           Charge          ....    0
 Multiplicity           Mult            ....    1
 Number of Electrons    NEL             ....   36
Dispersion correction           -0.001287702
FINAL SINGLE POINT ENERGY      -231.469723726749
Dispersion correction           -0.000211309
FINAL SINGLE POINT ENERGY      -115.733401742657

CARTESIAN COORDINATES (ANGSTROEM)
---------------------------------
  C      8.985296   -3.054821    8.696973
  O      8.995016   -2.653601    7.377167
  H      9.719916   -3.104390    6.964746
  H      8.650019   -4.060848    8.822176
  H      9.996094   -3.003890    9.103342
  H      8.332179   -2.501358    9.316840
  C      9.789159    1.336026    5.816755
  O      8.851170    0.420211    6.445269
  H      9.305486   -0.407004    6.583768
  H     10.574013    1.653443    6.509549
  H     10.169795    1.047420    4.861731
  H      9.221420    2.251812    5.505735

 Multiplicity           Mult            ....    1
 Number of Electrons    NEL             ....   18
 Basis Dimension        Dim             ....  172

ORBITAL ENERGIES
----------------

  NO   OCC          E(Eh)            E(eV)
   0   2.0000     -19.232173      -523.3340
   1   2.0000     -10.316384      -280.7231
   2   2.0000      -1.126537       -30.6546
   3   2.0000      -0.799348       -21.7514
   4   2.0000      -0.603902       -16.4330
   5   2.0000      -0.547578       -14.9004
   6   2.0000      -0.513704       -13.9786
   7   2.0000      -0.431764       -11.7489
   8   2.0000      -0.380514       -10.3543
   9   0.0000       0.075332         2.0499
  10   0.0000       0.127557         3.4710
  11   0.0000       0.147006         4.0002
  12   0.0000       0.173726         4.7273
  13   0.0000       0.196796         5.3551

MULLIKEN ATOMIC CHARGES
-----------------------
   0 C :   -0.000705
   1 O :    0.000059
   2 H :   -0.000323
   3 H :   -0.000035
   4 H :    0.000051
   5 H :    0.000009
   6 C :   -0.171861
   7 O :   -0.475845
   8 H :    0.309931
   9 H :    0.111848
  10 H :    0.108495
  11 H :    0.118375
Sum of atomic charges:   -0.0000000

LOEWDIN ATOMIC CHARGES
----------------------
   0 C :   -0.001192
   1 O :   -0.005202
   2 H :   -0.000890
   3 H :   -0.000034
   4 H :   -0.000035
   5 H :   -0.000098
   6 C :   -0.362781
   7 O :   -0.095867
   8 H :    0.162408
   9 H :    0.097348
  10 H :    0.089801
  11 H :    0.116542

  Mayer bond orders larger than 0.1
B(  6-C ,  7-O ) :   0.9992 B(  6-C ,  9-H ) :   0.9752 B(  6-C , 10-H ) :   0.9702
B(  6-C , 11-H ) :   0.9746 B(  7-O ,  8-H ) :   0.9051

Dispersion correction           -0.000271892
FINAL SINGLE POINT ENERGY      -115.732682118255

DIPOLE MOMENT
-------------
                                X             Y             Z
Electronic contribution:     -1.17488      -1.18427       0.81499
Nuclear contribution   :      1.84414       1.05481      -1.01422
                        -----------------------------------------
Total Dipole Moment    :      0.66926      -0.12946      -0.19923
                        -----------------------------------------
Magnitude (a.u.)       :      0.71019
Magnitude (Debye)      :      1.80515

Rotational constants in cm-1:     4.371958     0.785680     0.765094
Rotational constants in MHz : 131068.016168 23554.105431 22936.932576

                             ****ORCA TERMINATED NORMALLY****
TOTAL RUN TIME: 0 days 0 hours 1 minutes 11 seconds 539 msec
