                         Program Version 4.1.2  - RELEASE  -
|  1> #Run DFT-D3 single point of the dimer
|  2> ! wB97X-D3 def2-TZVP TIGHTSCF CHELPG PMODEL PAL8
|  3>
|  4> %base "8-103_DFT_AB"
|  5>
|  6> %scf
|  7> MaxIter 1000
|  8> end
|  9>
| 10> * xyz 0 1
| 11>   C                      -5.195719            -0.427144            9.365506
| 12>   O                      -6.124433            -1.080566            10.163934
| 13>   H                      -6.539004            -1.747450            9.631112
| 14>   H                      -5.596017            -0.049719            8.423426
| 15>   H                      -4.831508            0.366167             9.977338
| 16>   H                      -4.342301            -1.112926            9.156067
| 17>   C                      -10.093289           1.103940             9.916650
| 18>   O                      -10.461866           2.426109             9.879604
| 19>   H                      -9.652044            3.001358             9.833511
| 20>   H                      -9.199362            0.937206             10.515245
| 21>   H                      -10.851303           0.534979             10.498085
| 22>   H                      -10.048276           0.648209             8.947210
| 23> *
| 24>
| 25> #Run DFT-D3 single point of the molecule with dimer basis set
| 26> $new_job
| 27> %base "8-103_DFT_A"
| 28> ! wB97X-D3 def2-TZVP TIGHTSCF CHELPG PMODEL
| 29>
| 30> %scf
| 31> MaxIter 1000
| 32> end
| 33>
| 34> * xyz 0 1
| 35>   C                      -5.195719            -0.427144            9.365506
| 36>   O                      -6.124433            -1.080566            10.163934
| 37>   H                      -6.539004            -1.747450            9.631112
| 38>   H                      -5.596017            -0.049719            8.423426
| 39>   H                      -4.831508            0.366167             9.977338
| 40>   H                      -4.342301            -1.112926            9.156067
| 41>   C                    : -10.093289           1.103940             9.916650
| 42>   O                    : -10.461866           2.426109             9.879604
| 43>   H                    : -9.652044            3.001358             9.833511
| 44>   H                    : -9.199362            0.937206             10.515245
| 45>   H                    : -10.851303           0.534979             10.498085
| 46>   H                    : -10.048276           0.648209             8.947210
| 47> *
| 48>
| 49> #Run DFT-D3 single point of the particle with dimer basis set
| 50> $new_job
| 51> %base "8-103_DFT_B"
| 52> ! wB97X-D3 def2-TZVP TIGHTSCF CHELPG PMODEL
| 53>
| 54> %scf
| 55> MaxIter 1000
| 56> end
| 57>
| 58> * xyz 0 1
| 59>   C                    : -5.195719            -0.427144            9.365506
| 60>   O                    : -6.124433            -1.080566            10.163934
| 61>   H                    : -6.539004            -1.747450            9.631112
| 62>   H                    : -5.596017            -0.049719            8.423426
| 63>   H                    : -4.831508            0.366167             9.977338
| 64>   H                    : -4.342301            -1.112926            9.156067
| 65>   C                      -10.093289           1.103940             9.916650
| 66>   O                      -10.461866           2.426109             9.879604
| 67>   H                      -9.652044            3.001358             9.833511
| 68>   H                      -9.199362            0.937206             10.515245
| 69>   H                      -10.851303           0.534979             10.498085
| 70>   H                      -10.048276           0.648209             8.947210
| 71> *
| 72>
| 73>                          ****END OF INPUT****
 Total Charge           Charge          ....    0
 Multiplicity           Mult            ....    1
 Number of Electrons    NEL             ....   36
Dispersion correction           -0.000840446
FINAL SINGLE POINT ENERGY      -231.469058532048
Dispersion correction           -0.000220311
FINAL SINGLE POINT ENERGY      -115.735728468568

CARTESIAN COORDINATES (ANGSTROEM)
---------------------------------
  C     -5.195719   -0.427144    9.365506
  O     -6.124433   -1.080566   10.163934
  H     -6.539004   -1.747450    9.631112
  H     -5.596017   -0.049719    8.423426
  H     -4.831508    0.366167    9.977338
  H     -4.342301   -1.112926    9.156067
  C    -10.093289    1.103940    9.916650
  O    -10.461866    2.426109    9.879604
  H     -9.652044    3.001358    9.833511
  H     -9.199362    0.937206   10.515245
  H    -10.851303    0.534979   10.498085
  H    -10.048276    0.648209    8.947210

 Multiplicity           Mult            ....    1
 Number of Electrons    NEL             ....   18
 Basis Dimension        Dim             ....  172

ORBITAL ENERGIES
----------------

  NO   OCC          E(Eh)            E(eV)
   0   2.0000     -19.231845      -523.3251
   1   2.0000     -10.307110      -280.4707
   2   2.0000      -1.141872       -31.0719
   3   2.0000      -0.792194       -21.5567
   4   2.0000      -0.613872       -16.7043
   5   2.0000      -0.553477       -15.0609
   6   2.0000      -0.527523       -14.3546
   7   2.0000      -0.420870       -11.4524
   8   2.0000      -0.373124       -10.1532
   9   0.0000       0.079370         2.1598
  10   0.0000       0.113272         3.0823
  11   0.0000       0.146723         3.9925
  12   0.0000       0.169878         4.6226
  13   0.0000       0.181607         4.9418

MULLIKEN ATOMIC CHARGES
-----------------------
   0 C :   -0.000095
   1 O :    0.000012
   2 H :   -0.000072
   3 H :   -0.000032
   4 H :   -0.000003
   5 H :   -0.000004
   6 C :   -0.154433
   7 O :   -0.471420
   8 H :    0.320576
   9 H :    0.099168
  10 H :    0.105665
  11 H :    0.100638
Sum of atomic charges:    0.0000000

LOEWDIN ATOMIC CHARGES
----------------------
   0 C :   -0.000159
   1 O :   -0.000168
   2 H :   -0.000094
   3 H :   -0.000023
   4 H :   -0.000010
   5 H :   -0.000003
   6 C :   -0.422506
   7 O :   -0.062362
   8 H :    0.192070
   9 H :    0.094145
  10 H :    0.109651
  11 H :    0.089460

  Mayer bond orders larger than 0.1
B(  6-C ,  7-O ) :   1.0139 B(  6-C ,  9-H ) :   0.9842 B(  6-C , 10-H ) :   0.9734
B(  6-C , 11-H ) :   0.9743 B(  7-O ,  8-H ) :   0.8905

Dispersion correction           -0.000237197
FINAL SINGLE POINT ENERGY      -115.732551885473

DIPOLE MOMENT
-------------
                                X             Y             Z
Electronic contribution:     -0.54230       1.75986      -0.16468
Nuclear contribution   :      1.19787      -1.88899       0.17361
                        -----------------------------------------
Total Dipole Moment    :      0.65557      -0.12913       0.00892
                        -----------------------------------------
Magnitude (a.u.)       :      0.66823
Magnitude (Debye)      :      1.69850

Rotational constants in cm-1:     4.324356     0.862329     0.836339
Rotational constants in MHz : 129640.937566 25851.987227 25072.804769

                             ****ORCA TERMINATED NORMALLY****
TOTAL RUN TIME: 0 days 0 hours 0 minutes 41 seconds 978 msec
