                         Program Version 4.1.2  - RELEASE  -
|  1> #Run DFT geometry optimization
|  2> ! wB97X-D3 def2-TZVP TIGHTSCF Grid5 FinalGrid6 Opt CHELPG PAL4
|  3>
|  4> %base "3_geo_opt"
|  5> %geom MaxIter 500
|  6> end
|  7>
|  8> %geom
|  9>   Constraints
| 10>     { B 5 0 C }
| 11>   end
| 12> end
| 13>
| 14>
| 15> * xyz 0 1
| 16>   C                    3.011404             -1.181061            0.598428
| 17>   O                    4.394769             -1.128214            0.874244
| 18>   H                    4.772292             -0.379185            0.412430
| 19>   H                    2.806530             -1.319128            -0.469413
| 20>   H                    2.611728             -2.040429            1.135835
| 21>   H                    2.484661             -0.284328            0.945722
| 22> *
| 23>
| 24>                          ****END OF INPUT****
 Total Charge           Charge          ....    0
 Multiplicity           Mult            ....    1
 Number of Electrons    NEL             ....   18
Dispersion correction           -0.000239339
FINAL SINGLE POINT ENERGY      -115.738051280394
Dispersion correction            ... done
                    ***********************HURRAY********************

CARTESIAN COORDINATES (ANGSTROEM)
---------------------------------
  C      3.011464   -1.181101    0.598458
  O      4.394786   -1.128190    0.874222
  H      4.772273   -0.379154    0.412416
  H      2.806543   -1.319121   -0.469380
  H      2.611624   -2.040409    1.135818
  H      2.484693   -0.284370    0.945713

 Multiplicity           Mult            ....    1
 Number of Electrons    NEL             ....   18
 Basis Dimension        Dim             ....   86

ORBITAL ENERGIES
----------------

  NO   OCC          E(Eh)            E(eV)
   0   2.0000     -19.228092      -523.2230
   1   2.0000     -10.315154      -280.6896
   2   2.0000      -1.136822       -30.9345
   3   2.0000      -0.795318       -21.6417
   4   2.0000      -0.611591       -16.6422
   5   2.0000      -0.541739       -14.7415
   6   2.0000      -0.526346       -14.3226
   7   2.0000      -0.433789       -11.8040
   8   2.0000      -0.373600       -10.1662
   9   0.0000       0.116638         3.1739
  10   0.0000       0.156663         4.2630
  11   0.0000       0.202573         5.5123
  12   0.0000       0.205086         5.5807
  13   0.0000       0.226365         6.1597

MULLIKEN ATOMIC CHARGES
-----------------------
   0 C :   -0.150879
   1 O :   -0.477611
   2 H :    0.313024
   3 H :    0.098641
   4 H :    0.118242
   5 H :    0.098582
Sum of atomic charges:   -0.0000000

LOEWDIN ATOMIC CHARGES
----------------------
   0 C :   -0.385254
   1 O :   -0.076061
   2 H :    0.165789
   3 H :    0.093387
   4 H :    0.108677
   5 H :    0.093462

  Mayer bond orders larger than 0.1
B(  0-C ,  1-O ) :   0.9987 B(  0-C ,  3-H ) :   0.9755 B(  0-C ,  4-H ) :   0.9749
B(  0-C ,  5-H ) :   0.9755 B(  1-O ,  2-H ) :   0.9002

Dispersion correction           -0.000239329
FINAL SINGLE POINT ENERGY      -115.738051299749

DIPOLE MOMENT
-------------
                                X             Y             Z
Electronic contribution:      1.75635      -0.02865       0.41968
Nuclear contribution   :     -2.06600       0.47611      -0.81735
                        -----------------------------------------
Total Dipole Moment    :     -0.30965       0.44746      -0.39767
                        -----------------------------------------
Magnitude (a.u.)       :      0.67398
Magnitude (Debye)      :      1.71311

Rotational constants in cm-1:     4.292218     0.833794     0.804918
Rotational constants in MHz : 128677.467511 24996.504896 24130.848639

                             ****ORCA TERMINATED NORMALLY****
TOTAL RUN TIME: 0 days 0 hours 0 minutes 35 seconds 415 msec
