                         Program Version 4.1.2  - RELEASE  -
|  1> #Run DFT-D3 single point of the dimer
|  2> ! wB97X-D3 def2-TZVP TIGHTSCF CHELPG PMODEL PAL8
|  3>
|  4> %base "1-57_DFT_AB"
|  5>
|  6> %scf
|  7> MaxIter 1000
|  8> end
|  9>
| 10> * xyz 0 1
| 11>   C                      -2.795325            9.217840             5.555766
| 12>   O                      -3.946272            9.686863             6.213946
| 13>   H                      -3.969267            9.351075             7.120477
| 14>   H                      -2.991524            9.209093             4.464861
| 15>   H                      -1.885058            9.769403             5.855998
| 16>   H                      -2.593840            8.207868             5.831886
| 17>   C                      -4.728299            5.566947             3.681288
| 18>   O                      -3.589925            5.869790             4.411110
| 19>   H                      -3.218320            6.670380             4.094765
| 20>   H                      -5.260163            6.458923             3.442964
| 21>   H                      -4.550372            5.150121             2.696832
| 22>   H                      -5.420831            4.930192             4.198414
| 23> *
| 24>
| 25> #Run DFT-D3 single point of the molecule with dimer basis set
| 26> $new_job
| 27> %base "1-57_DFT_A"
| 28> ! wB97X-D3 def2-TZVP TIGHTSCF CHELPG PMODEL
| 29>
| 30> %scf
| 31> MaxIter 1000
| 32> end
| 33>
| 34> * xyz 0 1
| 35>   C                      -2.795325            9.217840             5.555766
| 36>   O                      -3.946272            9.686863             6.213946
| 37>   H                      -3.969267            9.351075             7.120477
| 38>   H                      -2.991524            9.209093             4.464861
| 39>   H                      -1.885058            9.769403             5.855998
| 40>   H                      -2.593840            8.207868             5.831886
| 41>   C                    : -4.728299            5.566947             3.681288
| 42>   O                    : -3.589925            5.869790             4.411110
| 43>   H                    : -3.218320            6.670380             4.094765
| 44>   H                    : -5.260163            6.458923             3.442964
| 45>   H                    : -4.550372            5.150121             2.696832
| 46>   H                    : -5.420831            4.930192             4.198414
| 47> *
| 48>
| 49> #Run DFT-D3 single point of the particle with dimer basis set
| 50> $new_job
| 51> %base "1-57_DFT_B"
| 52> ! wB97X-D3 def2-TZVP TIGHTSCF CHELPG PMODEL
| 53>
| 54> %scf
| 55> MaxIter 1000
| 56> end
| 57>
| 58> * xyz 0 1
| 59>   C                    : -2.795325            9.217840             5.555766
| 60>   O                    : -3.946272            9.686863             6.213946
| 61>   H                    : -3.969267            9.351075             7.120477
| 62>   H                    : -2.991524            9.209093             4.464861
| 63>   H                    : -1.885058            9.769403             5.855998
| 64>   H                    : -2.593840            8.207868             5.831886
| 65>   C                      -4.728299            5.566947             3.681288
| 66>   O                      -3.589925            5.869790             4.411110
| 67>   H                      -3.218320            6.670380             4.094765
| 68>   H                      -5.260163            6.458923             3.442964
| 69>   H                      -4.550372            5.150121             2.696832
| 70>   H                      -5.420831            4.930192             4.198414
| 71> *
| 72>
| 73>                          ****END OF INPUT****
 Total Charge           Charge          ....    0
 Multiplicity           Mult            ....    1
 Number of Electrons    NEL             ....   36
Dispersion correction           -0.001500051
FINAL SINGLE POINT ENERGY      -231.469010493748
Dispersion correction           -0.000237326
FINAL SINGLE POINT ENERGY      -115.734653765164

CARTESIAN COORDINATES (ANGSTROEM)
---------------------------------
  C     -2.795325    9.217840    5.555766
  O     -3.946272    9.686863    6.213946
  H     -3.969267    9.351075    7.120477
  H     -2.991524    9.209093    4.464861
  H     -1.885058    9.769403    5.855998
  H     -2.593840    8.207868    5.831886
  C     -4.728299    5.566947    3.681288
  O     -3.589925    5.869790    4.411110
  H     -3.218320    6.670380    4.094765
  H     -5.260163    6.458923    3.442964
  H     -4.550372    5.150121    2.696832
  H     -5.420831    4.930192    4.198414

 Multiplicity           Mult            ....    1
 Number of Electrons    NEL             ....   18
 Basis Dimension        Dim             ....  172

ORBITAL ENERGIES
----------------

  NO   OCC          E(Eh)            E(eV)
   0   2.0000     -19.229723      -523.2674
   1   2.0000     -10.305117      -280.4165
   2   2.0000      -1.149644       -31.2834
   3   2.0000      -0.803676       -21.8691
   4   2.0000      -0.625858       -17.0305
   5   2.0000      -0.541649       -14.7390
   6   2.0000      -0.537680       -14.6310
   7   2.0000      -0.433985       -11.8093
   8   2.0000      -0.372989       -10.1496
   9   0.0000       0.078786         2.1439
  10   0.0000       0.129062         3.5119
  11   0.0000       0.152470         4.1489
  12   0.0000       0.175445         4.7741
  13   0.0000       0.189384         5.1534

MULLIKEN ATOMIC CHARGES
-----------------------
   0 C :   -0.005375
   1 O :    0.000619
   2 H :    0.000066
   3 H :   -0.000119
   4 H :   -0.000496
   5 H :   -0.002960
   6 C :   -0.157756
   7 O :   -0.464369
   8 H :    0.316564
   9 H :    0.100042
  10 H :    0.095272
  11 H :    0.118512
Sum of atomic charges:    0.0000000

LOEWDIN ATOMIC CHARGES
----------------------
   0 C :   -0.005804
   1 O :   -0.000034
   2 H :   -0.000035
   3 H :   -0.001336
   4 H :   -0.000100
   5 H :   -0.004106
   6 C :   -0.397836
   7 O :   -0.036099
   8 H :    0.159045
   9 H :    0.090602
  10 H :    0.091783
  11 H :    0.103920

  Mayer bond orders larger than 0.1
B(  6-C ,  7-O ) :   1.0022 B(  6-C ,  9-H ) :   0.9866 B(  6-C , 10-H ) :   0.9760
B(  6-C , 11-H ) :   0.9747 B(  7-O ,  8-H ) :   0.9006

Dispersion correction           -0.000227838
FINAL SINGLE POINT ENERGY      -115.733234961590

DIPOLE MOMENT
-------------
                                X             Y             Z
Electronic contribution:      1.51833       0.20687       1.10749
Nuclear contribution   :     -1.74471       0.20676      -1.60160
                        -----------------------------------------
Total Dipole Moment    :     -0.22638       0.41363      -0.49411
                        -----------------------------------------
Magnitude (a.u.)       :      0.68300
Magnitude (Debye)      :      1.73604

Rotational constants in cm-1:     4.604390     0.855746     0.822442
Rotational constants in MHz : 138036.125935 25654.617290 24656.181712

                             ****ORCA TERMINATED NORMALLY****
TOTAL RUN TIME: 0 days 0 hours 5 minutes 53 seconds 539 msec
