                         Program Version 4.1.2  - RELEASE  -
|  1> #Run DFT-D3 single point of the dimer
|  2> ! wB97X-D3 def2-TZVP TIGHTSCF CHELPG PMODEL PAL8
|  3>
|  4> %base "9-107_DFT_AB"
|  5>
|  6> %scf
|  7> MaxIter 1000
|  8> end
|  9>
| 10> * xyz 0 1
| 11>   C                      6.482871             0.175619             -3.124092
| 12>   O                      5.876064             1.479061             -3.086430
| 13>   H                      5.127288             1.460981             -2.485195
| 14>   H                      6.305677             -0.243266            -2.102666
| 15>   H                      5.921835             -0.472918            -3.836024
| 16>   H                      7.590044             0.153542             -3.268757
| 17>   C                      2.403711             2.233500             -2.240277
| 18>   O                      2.961890             1.900304             -3.510987
| 19>   H                      2.285466             2.224040             -4.178838
| 20>   H                      3.212827             2.323104             -1.545528
| 21>   H                      1.740199             3.100437             -2.266122
| 22>   H                      1.691648             1.586078             -1.791668
| 23> *
| 24>
| 25> #Run DFT-D3 single point of the molecule with dimer basis set
| 26> $new_job
| 27> %base "9-107_DFT_A"
| 28> ! wB97X-D3 def2-TZVP TIGHTSCF CHELPG PMODEL
| 29>
| 30> %scf
| 31> MaxIter 1000
| 32> end
| 33>
| 34> * xyz 0 1
| 35>   C                      6.482871             0.175619             -3.124092
| 36>   O                      5.876064             1.479061             -3.086430
| 37>   H                      5.127288             1.460981             -2.485195
| 38>   H                      6.305677             -0.243266            -2.102666
| 39>   H                      5.921835             -0.472918            -3.836024
| 40>   H                      7.590044             0.153542             -3.268757
| 41>   C                    : 2.403711             2.233500             -2.240277
| 42>   O                    : 2.961890             1.900304             -3.510987
| 43>   H                    : 2.285466             2.224040             -4.178838
| 44>   H                    : 3.212827             2.323104             -1.545528
| 45>   H                    : 1.740199             3.100437             -2.266122
| 46>   H                    : 1.691648             1.586078             -1.791668
| 47> *
| 48>
| 49> #Run DFT-D3 single point of the particle with dimer basis set
| 50> $new_job
| 51> %base "9-107_DFT_B"
| 52> ! wB97X-D3 def2-TZVP TIGHTSCF CHELPG PMODEL
| 53>
| 54> %scf
| 55> MaxIter 1000
| 56> end
| 57>
| 58> * xyz 0 1
| 59>   C                    : 6.482871             0.175619             -3.124092
| 60>   O                    : 5.876064             1.479061             -3.086430
| 61>   H                    : 5.127288             1.460981             -2.485195
| 62>   H                    : 6.305677             -0.243266            -2.102666
| 63>   H                    : 5.921835             -0.472918            -3.836024
| 64>   H                    : 7.590044             0.153542             -3.268757
| 65>   C                      2.403711             2.233500             -2.240277
| 66>   O                      2.961890             1.900304             -3.510987
| 67>   H                      2.285466             2.224040             -4.178838
| 68>   H                      3.212827             2.323104             -1.545528
| 69>   H                      1.740199             3.100437             -2.266122
| 70>   H                      1.691648             1.586078             -1.791668
| 71> *
| 72>
| 73>                          ****END OF INPUT****
 Total Charge           Charge          ....    0
 Multiplicity           Mult            ....    1
 Number of Electrons    NEL             ....   36
Dispersion correction           -0.001612444
FINAL SINGLE POINT ENERGY      -231.456605147752
Dispersion correction           -0.000249290
FINAL SINGLE POINT ENERGY      -115.730844433041

CARTESIAN COORDINATES (ANGSTROEM)
---------------------------------
  C      6.482871    0.175619   -3.124092
  O      5.876064    1.479061   -3.086430
  H      5.127288    1.460981   -2.485195
  H      6.305677   -0.243266   -2.102666
  H      5.921835   -0.472918   -3.836024
  H      7.590044    0.153542   -3.268757
  C      2.403711    2.233500   -2.240277
  O      2.961890    1.900304   -3.510987
  H      2.285466    2.224040   -4.178838
  H      3.212827    2.323104   -1.545528
  H      1.740199    3.100437   -2.266122
  H      1.691648    1.586078   -1.791668

 Multiplicity           Mult            ....    1
 Number of Electrons    NEL             ....   18
 Basis Dimension        Dim             ....  172

ORBITAL ENERGIES
----------------

  NO   OCC          E(Eh)            E(eV)
   0   2.0000     -19.239191      -523.5250
   1   2.0000     -10.307915      -280.4926
   2   2.0000      -1.127965       -30.6935
   3   2.0000      -0.800020       -21.7696
   4   2.0000      -0.615555       -16.7501
   5   2.0000      -0.528655       -14.3854
   6   2.0000      -0.524650       -14.2764
   7   2.0000      -0.447135       -12.1672
   8   2.0000      -0.371379       -10.1057
   9   0.0000       0.096360         2.6221
  10   0.0000       0.115748         3.1497
  11   0.0000       0.150648         4.0994
  12   0.0000       0.179611         4.8875
  13   0.0000       0.206069         5.6074

MULLIKEN ATOMIC CHARGES
-----------------------
   0 C :   -0.001498
   1 O :    0.000986
   2 H :   -0.001198
   3 H :    0.000051
   4 H :   -0.000614
   5 H :   -0.000064
   6 C :   -0.174895
   7 O :   -0.458530
   8 H :    0.313490
   9 H :    0.118432
  10 H :    0.101648
  11 H :    0.102191
Sum of atomic charges:    0.0000000

LOEWDIN ATOMIC CHARGES
----------------------
   0 C :   -0.001399
   1 O :   -0.005215
   2 H :   -0.009454
   3 H :   -0.000015
   4 H :   -0.000341
   5 H :   -0.000027
   6 C :   -0.381393
   7 O :   -0.086940
   8 H :    0.195094
   9 H :    0.104269
  10 H :    0.097045
  11 H :    0.088376

  Mayer bond orders larger than 0.1
B(  6-C ,  7-O ) :   1.0120 B(  6-C ,  9-H ) :   0.9832 B(  6-C , 10-H ) :   0.9844
B(  6-C , 11-H ) :   0.9646 B(  7-O ,  8-H ) :   0.8965

Dispersion correction           -0.000253635
FINAL SINGLE POINT ENERGY      -115.726788375839

DIPOLE MOMENT
-------------
                                X             Y             Z
Electronic contribution:      0.94363      -0.53568      -1.60938
Nuclear contribution   :     -1.60299       0.86748       1.69864
                        -----------------------------------------
Total Dipole Moment    :     -0.65936       0.33180       0.08926
                        -----------------------------------------
Magnitude (a.u.)       :      0.74351
Magnitude (Debye)      :      1.88986

Rotational constants in cm-1:     4.439930     0.824090     0.774393
Rotational constants in MHz : 133105.744877 24705.605420 23215.716626

                             ****ORCA TERMINATED NORMALLY****
TOTAL RUN TIME: 0 days 0 hours 0 minutes 42 seconds 947 msec
