                         Program Version 4.1.2  - RELEASE  -
|  1> #Run DFT-D3 single point of the dimer
|  2> ! wB97X-D3 def2-TZVP TIGHTSCF CHELPG PMODEL PAL8
|  3>
|  4> %base "4-76_DFT_AB"
|  5>
|  6> %scf
|  7> MaxIter 1000
|  8> end
|  9>
| 10> * xyz 0 1
| 11>   C                      4.024355             -6.801977            -8.916837
| 12>   O                      2.663368             -6.801153            -9.057764
| 13>   H                      2.302271             -5.971964            -8.723730
| 14>   H                      4.469199             -5.890253            -9.387422
| 15>   H                      4.195968             -6.701892            -7.838637
| 16>   H                      4.536072             -7.759296            -9.102608
| 17>   C                      1.234261             -9.242018            -7.495827
| 18>   O                      -0.152943            -9.365824            -7.903059
| 19>   H                      -0.178561            -10.163182           -8.461206
| 20>   H                      1.957693             -8.993515            -8.252238
| 21>   H                      1.411291             -8.555166            -6.692722
| 22>   H                      1.445783             -10.252646           -7.104688
| 23> *
| 24>
| 25> #Run DFT-D3 single point of the molecule with dimer basis set
| 26> $new_job
| 27> %base "4-76_DFT_A"
| 28> ! wB97X-D3 def2-TZVP TIGHTSCF CHELPG PMODEL
| 29>
| 30> %scf
| 31> MaxIter 1000
| 32> end
| 33>
| 34> * xyz 0 1
| 35>   C                      4.024355             -6.801977            -8.916837
| 36>   O                      2.663368             -6.801153            -9.057764
| 37>   H                      2.302271             -5.971964            -8.723730
| 38>   H                      4.469199             -5.890253            -9.387422
| 39>   H                      4.195968             -6.701892            -7.838637
| 40>   H                      4.536072             -7.759296            -9.102608
| 41>   C                    : 1.234261             -9.242018            -7.495827
| 42>   O                    : -0.152943            -9.365824            -7.903059
| 43>   H                    : -0.178561            -10.163182           -8.461206
| 44>   H                    : 1.957693             -8.993515            -8.252238
| 45>   H                    : 1.411291             -8.555166            -6.692722
| 46>   H                    : 1.445783             -10.252646           -7.104688
| 47> *
| 48>
| 49> #Run DFT-D3 single point of the particle with dimer basis set
| 50> $new_job
| 51> %base "4-76_DFT_B"
| 52> ! wB97X-D3 def2-TZVP TIGHTSCF CHELPG PMODEL
| 53>
| 54> %scf
| 55> MaxIter 1000
| 56> end
| 57>
| 58> * xyz 0 1
| 59>   C                    : 4.024355             -6.801977            -8.916837
| 60>   O                    : 2.663368             -6.801153            -9.057764
| 61>   H                    : 2.302271             -5.971964            -8.723730
| 62>   H                    : 4.469199             -5.890253            -9.387422
| 63>   H                    : 4.195968             -6.701892            -7.838637
| 64>   H                    : 4.536072             -7.759296            -9.102608
| 65>   C                      1.234261             -9.242018            -7.495827
| 66>   O                      -0.152943            -9.365824            -7.903059
| 67>   H                      -0.178561            -10.163182           -8.461206
| 68>   H                      1.957693             -8.993515            -8.252238
| 69>   H                      1.411291             -8.555166            -6.692722
| 70>   H                      1.445783             -10.252646           -7.104688
| 71> *
| 72>
| 73>                          ****END OF INPUT****
 Total Charge           Charge          ....    0
 Multiplicity           Mult            ....    1
 Number of Electrons    NEL             ....   36
Dispersion correction           -0.001722943
FINAL SINGLE POINT ENERGY      -231.458227861510
Dispersion correction           -0.000212364
FINAL SINGLE POINT ENERGY      -115.727775880119

CARTESIAN COORDINATES (ANGSTROEM)
---------------------------------
  C      4.024355   -6.801977   -8.916837
  O      2.663368   -6.801153   -9.057764
  H      2.302271   -5.971964   -8.723730
  H      4.469199   -5.890253   -9.387422
  H      4.195968   -6.701892   -7.838637
  H      4.536072   -7.759296   -9.102608
  C      1.234261   -9.242018   -7.495827
  O     -0.152943   -9.365824   -7.903059
  H     -0.178561  -10.163182   -8.461206
  H      1.957693   -8.993515   -8.252238
  H      1.411291   -8.555166   -6.692722
  H      1.445783  -10.252646   -7.104688

 Multiplicity           Mult            ....    1
 Number of Electrons    NEL             ....   18
 Basis Dimension        Dim             ....  172

ORBITAL ENERGIES
----------------

  NO   OCC          E(Eh)            E(eV)
   0   2.0000     -19.231872      -523.3259
   1   2.0000     -10.313520      -280.6451
   2   2.0000      -1.124812       -30.6077
   3   2.0000      -0.798122       -21.7180
   4   2.0000      -0.600040       -16.3279
   5   2.0000      -0.543676       -14.7942
   6   2.0000      -0.528108       -14.3706
   7   2.0000      -0.434302       -11.8180
   8   2.0000      -0.373802       -10.1717
   9   0.0000       0.081780         2.2254
  10   0.0000       0.113155         3.0791
  11   0.0000       0.154891         4.2148
  12   0.0000       0.161636         4.3983
  13   0.0000       0.183925         5.0049

MULLIKEN ATOMIC CHARGES
-----------------------
   0 C :   -0.000117
   1 O :    0.000534
   2 H :    0.000097
   3 H :   -0.000064
   4 H :   -0.000205
   5 H :    0.000048
   6 C :   -0.180110
   7 O :   -0.477616
   8 H :    0.317061
   9 H :    0.110036
  10 H :    0.122919
  11 H :    0.107417
Sum of atomic charges:    0.0000000

LOEWDIN ATOMIC CHARGES
----------------------
   0 C :   -0.004309
   1 O :   -0.006416
   2 H :   -0.000473
   3 H :   -0.000077
   4 H :   -0.000259
   5 H :   -0.000685
   6 C :   -0.356131
   7 O :   -0.109141
   8 H :    0.176116
   9 H :    0.095322
  10 H :    0.104148
  11 H :    0.101905

  Mayer bond orders larger than 0.1
B(  6-C ,  7-O ) :   0.9887 B(  6-C ,  9-H ) :   0.9615 B(  6-C , 10-H ) :   0.9731
B(  6-C , 11-H ) :   0.9945 B(  7-O ,  8-H ) :   0.8987

Dispersion correction           -0.000243789
FINAL SINGLE POINT ENERGY      -115.729683905897

DIPOLE MOMENT
-------------
                                X             Y             Z
Electronic contribution:     -1.78208       0.14825      -0.48968
Nuclear contribution   :      2.34245      -0.58567       0.32764
                        -----------------------------------------
Total Dipole Moment    :      0.56037      -0.43742      -0.16204
                        -----------------------------------------
Magnitude (a.u.)       :      0.72911
Magnitude (Debye)      :      1.85326

Rotational constants in cm-1:     4.380669     0.797866     0.770917
Rotational constants in MHz : 131329.142721 23919.433909 23111.500281

                             ****ORCA TERMINATED NORMALLY****
TOTAL RUN TIME: 0 days 0 hours 1 minutes 33 seconds 729 msec
