                         Program Version 4.1.2  - RELEASE  -
|  1> #Run DFT-D3 single point of the dimer
|  2> ! wB97X-D3 def2-TZVP TIGHTSCF CHELPG PMODEL PAL8
|  3>
|  4> %base "19-146_DFT_AB"
|  5>
|  6> %scf
|  7> MaxIter 1000
|  8> end
|  9>
| 10> * xyz 0 1
| 11>   C                      6.381632             -1.870875            3.659416
| 12>   O                      6.865294             -2.428046            2.462627
| 13>   H                      7.177478             -3.339419            2.607261
| 14>   H                      5.847585             -2.577557            4.305369
| 15>   H                      7.275320             -1.535234            4.225810
| 16>   H                      5.685898             -1.053315            3.452593
| 17>   C                      9.360468             -4.523656            4.335038
| 18>   O                      8.326896             -5.370352            3.903964
| 19>   H                      7.725141             -5.409423            4.658001
| 20>   H                      8.951792             -3.626088            4.768817
| 21>   H                      9.861924             -4.986321            5.201307
| 22>   H                      10.075039            -4.268118            3.603111
| 23> *
| 24>
| 25> #Run DFT-D3 single point of the molecule with dimer basis set
| 26> $new_job
| 27> %base "19-146_DFT_A"
| 28> ! wB97X-D3 def2-TZVP TIGHTSCF CHELPG PMODEL
| 29>
| 30> %scf
| 31> MaxIter 1000
| 32> end
| 33>
| 34> * xyz 0 1
| 35>   C                      6.381632             -1.870875            3.659416
| 36>   O                      6.865294             -2.428046            2.462627
| 37>   H                      7.177478             -3.339419            2.607261
| 38>   H                      5.847585             -2.577557            4.305369
| 39>   H                      7.275320             -1.535234            4.225810
| 40>   H                      5.685898             -1.053315            3.452593
| 41>   C                    : 9.360468             -4.523656            4.335038
| 42>   O                    : 8.326896             -5.370352            3.903964
| 43>   H                    : 7.725141             -5.409423            4.658001
| 44>   H                    : 8.951792             -3.626088            4.768817
| 45>   H                    : 9.861924             -4.986321            5.201307
| 46>   H                    : 10.075039            -4.268118            3.603111
| 47> *
| 48>
| 49> #Run DFT-D3 single point of the particle with dimer basis set
| 50> $new_job
| 51> %base "19-146_DFT_B"
| 52> ! wB97X-D3 def2-TZVP TIGHTSCF CHELPG PMODEL
| 53>
| 54> %scf
| 55> MaxIter 1000
| 56> end
| 57>
| 58> * xyz 0 1
| 59>   C                    : 6.381632             -1.870875            3.659416
| 60>   O                    : 6.865294             -2.428046            2.462627
| 61>   H                    : 7.177478             -3.339419            2.607261
| 62>   H                    : 5.847585             -2.577557            4.305369
| 63>   H                    : 7.275320             -1.535234            4.225810
| 64>   H                    : 5.685898             -1.053315            3.452593
| 65>   C                      9.360468             -4.523656            4.335038
| 66>   O                      8.326896             -5.370352            3.903964
| 67>   H                      7.725141             -5.409423            4.658001
| 68>   H                      8.951792             -3.626088            4.768817
| 69>   H                      9.861924             -4.986321            5.201307
| 70>   H                      10.075039            -4.268118            3.603111
| 71> *
| 72>
| 73>                          ****END OF INPUT****
 Total Charge           Charge          ....    0
 Multiplicity           Mult            ....    1
 Number of Electrons    NEL             ....   36
Dispersion correction           -0.002042260
FINAL SINGLE POINT ENERGY      -231.472473364604
Dispersion correction           -0.000241501
FINAL SINGLE POINT ENERGY      -115.735066319451

CARTESIAN COORDINATES (ANGSTROEM)
---------------------------------
  C      6.381632   -1.870875    3.659416
  O      6.865294   -2.428046    2.462627
  H      7.177478   -3.339419    2.607261
  H      5.847585   -2.577557    4.305369
  H      7.275320   -1.535234    4.225810
  H      5.685898   -1.053315    3.452593
  C      9.360468   -4.523656    4.335038
  O      8.326896   -5.370352    3.903964
  H      7.725141   -5.409423    4.658001
  H      8.951792   -3.626088    4.768817
  H      9.861924   -4.986321    5.201307
  H     10.075039   -4.268118    3.603111

 Multiplicity           Mult            ....    1
 Number of Electrons    NEL             ....   18
 Basis Dimension        Dim             ....  172

ORBITAL ENERGIES
----------------

  NO   OCC          E(Eh)            E(eV)
   0   2.0000     -19.231670      -523.3204
   1   2.0000     -10.307634      -280.4850
   2   2.0000      -1.141484       -31.0614
   3   2.0000      -0.797496       -21.7010
   4   2.0000      -0.614992       -16.7348
   5   2.0000      -0.540679       -14.7126
   6   2.0000      -0.536148       -14.5893
   7   2.0000      -0.442006       -12.0276
   8   2.0000      -0.368930       -10.0391
   9   0.0000       0.083600         2.2749
  10   0.0000       0.126805         3.4505
  11   0.0000       0.154270         4.1979
  12   0.0000       0.174123         4.7381
  13   0.0000       0.191463         5.2100

MULLIKEN ATOMIC CHARGES
-----------------------
   0 C :    0.001016
   1 O :    0.000595
   2 H :   -0.005353
   3 H :   -0.001068
   4 H :   -0.000740
   5 H :    0.000039
   6 C :   -0.173330
   7 O :   -0.470197
   8 H :    0.317204
   9 H :    0.101072
  10 H :    0.102178
  11 H :    0.128583
Sum of atomic charges:   -0.0000000

LOEWDIN ATOMIC CHARGES
----------------------
   0 C :   -0.002431
   1 O :   -0.000473
   2 H :   -0.009533
   3 H :   -0.000399
   4 H :   -0.001771
   5 H :   -0.000014
   6 C :   -0.387827
   7 O :   -0.065556
   8 H :    0.177362
   9 H :    0.092710
  10 H :    0.097708
  11 H :    0.100225

  Mayer bond orders larger than 0.1
B(  6-C ,  7-O ) :   0.9777 B(  6-C ,  9-H ) :   0.9829 B(  6-C , 10-H ) :   0.9803
B(  6-C , 11-H ) :   0.9739 B(  7-O ,  8-H ) :   0.8986

Dispersion correction           -0.000209568
FINAL SINGLE POINT ENERGY      -115.732692790072

DIPOLE MOMENT
-------------
                                X             Y             Z
Electronic contribution:     -1.21611      -1.10852      -0.89599
Nuclear contribution   :      1.25037       1.42015       1.53493
                        -----------------------------------------
Total Dipole Moment    :      0.03426       0.31163       0.63893
                        -----------------------------------------
Magnitude (a.u.)       :      0.71170
Magnitude (Debye)      :      1.80901

Rotational constants in cm-1:     4.381581     0.850956     0.812153
Rotational constants in MHz : 131356.500654 25511.020327 24347.733352

                             ****ORCA TERMINATED NORMALLY****
TOTAL RUN TIME: 0 days 0 hours 1 minutes 45 seconds 212 msec
