                         Program Version 4.1.2  - RELEASE  -
|  1> #Run DFT-D3 single point of the dimer
|  2> ! wB97X-D3 def2-TZVP TIGHTSCF CHELPG PMODEL PAL8
|  3>
|  4> %base "9-99_DFT_AB"
|  5>
|  6> %scf
|  7> MaxIter 1000
|  8> end
|  9>
| 10> * xyz 0 1
| 11>   C                      -2.747217            -1.439285            7.215734
| 12>   O                      -3.661565            -2.257749            7.941439
| 13>   H                      -4.087411            -2.914877            7.304557
| 14>   H                      -1.744539            -1.863552            7.165893
| 15>   H                      -3.187766            -1.140830            6.244377
| 16>   H                      -2.642980            -0.476722            7.720025
| 17>   C                      -1.104165            -2.855743            10.807104
| 18>   O                      -2.237965            -2.004441            10.663022
| 19>   H                      -2.474254            -1.946662            9.719554
| 20>   H                      -0.320003            -2.598897            10.077089
| 21>   H                      -0.633331            -2.882177            11.777636
| 22>   H                      -1.442892            -3.862745            10.649468
| 23> *
| 24>
| 25> #Run DFT-D3 single point of the molecule with dimer basis set
| 26> $new_job
| 27> %base "9-99_DFT_A"
| 28> ! wB97X-D3 def2-TZVP TIGHTSCF CHELPG PMODEL
| 29>
| 30> %scf
| 31> MaxIter 1000
| 32> end
| 33>
| 34> * xyz 0 1
| 35>   C                      -2.747217            -1.439285            7.215734
| 36>   O                      -3.661565            -2.257749            7.941439
| 37>   H                      -4.087411            -2.914877            7.304557
| 38>   H                      -1.744539            -1.863552            7.165893
| 39>   H                      -3.187766            -1.140830            6.244377
| 40>   H                      -2.642980            -0.476722            7.720025
| 41>   C                    : -1.104165            -2.855743            10.807104
| 42>   O                    : -2.237965            -2.004441            10.663022
| 43>   H                    : -2.474254            -1.946662            9.719554
| 44>   H                    : -0.320003            -2.598897            10.077089
| 45>   H                    : -0.633331            -2.882177            11.777636
| 46>   H                    : -1.442892            -3.862745            10.649468
| 47> *
| 48>
| 49> #Run DFT-D3 single point of the particle with dimer basis set
| 50> $new_job
| 51> %base "9-99_DFT_B"
| 52> ! wB97X-D3 def2-TZVP TIGHTSCF CHELPG PMODEL
| 53>
| 54> %scf
| 55> MaxIter 1000
| 56> end
| 57>
| 58> * xyz 0 1
| 59>   C                    : -2.747217            -1.439285            7.215734
| 60>   O                    : -3.661565            -2.257749            7.941439
| 61>   H                    : -4.087411            -2.914877            7.304557
| 62>   H                    : -1.744539            -1.863552            7.165893
| 63>   H                    : -3.187766            -1.140830            6.244377
| 64>   H                    : -2.642980            -0.476722            7.720025
| 65>   C                      -1.104165            -2.855743            10.807104
| 66>   O                      -2.237965            -2.004441            10.663022
| 67>   H                      -2.474254            -1.946662            9.719554
| 68>   H                      -0.320003            -2.598897            10.077089
| 69>   H                      -0.633331            -2.882177            11.777636
| 70>   H                      -1.442892            -3.862745            10.649468
| 71> *
| 72>
| 73>                          ****END OF INPUT****
 Total Charge           Charge          ....    0
 Multiplicity           Mult            ....    1
 Number of Electrons    NEL             ....   36
Dispersion correction           -0.001826963
FINAL SINGLE POINT ENERGY      -231.470161954803
Dispersion correction           -0.000258130
FINAL SINGLE POINT ENERGY      -115.732659375460

CARTESIAN COORDINATES (ANGSTROEM)
---------------------------------
  C     -2.747217   -1.439285    7.215734
  O     -3.661565   -2.257749    7.941439
  H     -4.087411   -2.914877    7.304557
  H     -1.744539   -1.863552    7.165893
  H     -3.187766   -1.140830    6.244377
  H     -2.642980   -0.476722    7.720025
  C     -1.104165   -2.855743   10.807104
  O     -2.237965   -2.004441   10.663022
  H     -2.474254   -1.946662    9.719554
  H     -0.320003   -2.598897   10.077089
  H     -0.633331   -2.882177   11.777636
  H     -1.442892   -3.862745   10.649468

 Multiplicity           Mult            ....    1
 Number of Electrons    NEL             ....   18
 Basis Dimension        Dim             ....  172

ORBITAL ENERGIES
----------------

  NO   OCC          E(Eh)            E(eV)
   0   2.0000     -19.230269      -523.2822
   1   2.0000     -10.311458      -280.5890
   2   2.0000      -1.129015       -30.7221
   3   2.0000      -0.798058       -21.7163
   4   2.0000      -0.604766       -16.4565
   5   2.0000      -0.543652       -14.7935
   6   2.0000      -0.533227       -14.5099
   7   2.0000      -0.428855       -11.6697
   8   2.0000      -0.372369       -10.1327
   9   0.0000       0.067888         1.8473
  10   0.0000       0.137153         3.7321
  11   0.0000       0.151843         4.1319
  12   0.0000       0.155368         4.2278
  13   0.0000       0.191304         5.2056

MULLIKEN ATOMIC CHARGES
-----------------------
   0 C :   -0.005767
   1 O :   -0.000988
   2 H :   -0.000092
   3 H :    0.000606
   4 H :   -0.000305
   5 H :   -0.000559
   6 C :   -0.169504
   7 O :   -0.475239
   8 H :    0.315283
   9 H :    0.104957
  10 H :    0.125201
  11 H :    0.106409
Sum of atomic charges:   -0.0000000

LOEWDIN ATOMIC CHARGES
----------------------
   0 C :   -0.009786
   1 O :   -0.010034
   2 H :   -0.000419
   3 H :   -0.000769
   4 H :   -0.000181
   5 H :   -0.001621
   6 C :   -0.374007
   7 O :   -0.083825
   8 H :    0.184113
   9 H :    0.098031
  10 H :    0.105667
  11 H :    0.092832

  Mayer bond orders larger than 0.1
B(  6-C ,  7-O ) :   0.9822 B(  6-C ,  9-H ) :   0.9787 B(  6-C , 10-H ) :   0.9700
B(  6-C , 11-H ) :   0.9831 B(  7-O ,  8-H ) :   0.9065

Dispersion correction           -0.000239977
FINAL SINGLE POINT ENERGY      -115.733094454575

DIPOLE MOMENT
-------------
                                X             Y             Z
Electronic contribution:     -1.41845       1.15649       0.03981
Nuclear contribution   :      1.74412      -1.48025      -0.55457
                        -----------------------------------------
Total Dipole Moment    :      0.32567      -0.32375      -0.51476
                        -----------------------------------------
Magnitude (a.u.)       :      0.68982
Magnitude (Debye)      :      1.75339

Rotational constants in cm-1:     4.406425     0.815671     0.788935
Rotational constants in MHz : 132101.300490 24453.195375 23651.662250

                             ****ORCA TERMINATED NORMALLY****
TOTAL RUN TIME: 0 days 0 hours 0 minutes 39 seconds 63 msec
