                         Program Version 4.1.2  - RELEASE  -
|  1> #Run DFT-D3 single point of the dimer
|  2> ! wB97X-D3 def2-TZVP TIGHTSCF  CHELPG PAL8
|  3>
|  4> %base "17_charges"
|  5>
|  6> %scf
|  7> MaxIter 1000
|  8> end
|  9> %output
| 10>   Print[ P_Mayer ] 1
| 11>   Print[ P_NatPop ] 1
| 12>   Print[ P_Hirshfeld ] 1
| 13>   Print[ P_Mulliken ] 1
| 14>   Print [ P_Loewdin ] 1
| 15> end
| 16>
| 17> * xyz 0 1
| 18>   C                      -1.804335            6.645059             1.523067
| 19>   O                      -2.370496            5.559634             2.191601
| 20>   H                      -3.314504            5.702586             2.088402
| 21>   H                      -2.219584            6.543093             0.540295
| 22>   H                      -2.086437            7.610948             2.029899
| 23>   H                      -0.770762            6.590160             1.422351
| 24> *
| 25>
| 26>                          ****END OF INPUT****

CARTESIAN COORDINATES (ANGSTROEM)
---------------------------------
  C     -1.804335    6.645059    1.523067
  O     -2.370496    5.559634    2.191601
  H     -3.314504    5.702586    2.088402
  H     -2.219584    6.543093    0.540295
  H     -2.086437    7.610948    2.029899
  H     -0.770762    6.590160    1.422351

 Total Charge           Charge          ....    0
 Multiplicity           Mult            ....    1
 Number of Electrons    NEL             ....   18
 Basis Dimension        Dim             ....   86

ORBITAL ENERGIES
----------------

  NO   OCC          E(Eh)            E(eV)
   0   2.0000     -19.226287      -523.1739
   1   2.0000     -10.306464      -280.4531
   2   2.0000      -1.144386       -31.1403
   3   2.0000      -0.794857       -21.6292
   4   2.0000      -0.607450       -16.5296
   5   2.0000      -0.552047       -15.0220
   6   2.0000      -0.539924       -14.6921
   7   2.0000      -0.431892       -11.7524
   8   2.0000      -0.368998       -10.0409
   9   0.0000       0.114071         3.1040
  10   0.0000       0.161811         4.4031
  11   0.0000       0.200287         5.4501
  12   0.0000       0.212895         5.7932
  13   0.0000       0.219350         5.9688

MULLIKEN ATOMIC CHARGES
-----------------------
   0 C :   -0.163598
   1 O :   -0.469564
   2 H :    0.315679
   3 H :    0.101608
   4 H :    0.092960
   5 H :    0.122916
Sum of atomic charges:    0.0000000

LOEWDIN ATOMIC CHARGES
----------------------
   0 C :   -0.393029
   1 O :   -0.069144
   2 H :    0.173184
   3 H :    0.094717
   4 H :    0.100254
   5 H :    0.094018

  Mayer bond orders larger than 0.1
B(  0-C ,  1-O ) :   0.9918 B(  0-C ,  3-H ) :   0.9955 B(  0-C ,  4-H ) :   0.9752
B(  0-C ,  5-H ) :   0.9712 B(  1-O ,  2-H ) :   0.9016

Dispersion correction           -0.000196709
FINAL SINGLE POINT ENERGY      -115.728535332429

DIPOLE MOMENT
-------------
                                X             Y             Z
Electronic contribution:     -0.43902      -1.43371       0.91511
Nuclear contribution   :      0.09443       1.91642      -1.25701
                        -----------------------------------------
Total Dipole Moment    :     -0.34459       0.48271      -0.34190
                        -----------------------------------------
Magnitude (a.u.)       :      0.68458
Magnitude (Debye)      :      1.74005

Rotational constants in cm-1:     4.283419     0.863024     0.839242
Rotational constants in MHz : 128413.685624 25872.810842 25159.853677

                             ****ORCA TERMINATED NORMALLY****
TOTAL RUN TIME: 0 days 0 hours 0 minutes 41 seconds 451 msec
