                         Program Version 4.1.2  - RELEASE  -
|  1> #Run DFT-D3 single point of the dimer
|  2> ! wB97X-D3 def2-TZVP TIGHTSCF CHELPG PMODEL PAL8
|  3>
|  4> %base "11-107_DFT_AB"
|  5>
|  6> %scf
|  7> MaxIter 1000
|  8> end
|  9>
| 10> * xyz 0 1
| 11>   C                      -8.009871            -4.711269            -2.147200
| 12>   O                      -8.298918            -5.552520            -1.027599
| 13>   H                      -8.177552            -5.122342            -0.191332
| 14>   H                      -8.178726            -5.149591            -3.108748
| 15>   H                      -8.576040            -3.788171            -2.055177
| 16>   H                      -7.060665            -4.281000            -2.058181
| 17>   C                      -9.377443            -0.722194            -1.786221
| 18>   O                      -9.024279            -1.231015            -3.033294
| 19>   H                      -8.088597            -1.123171            -3.081556
| 20>   H                      -9.541488            0.328002             -1.906169
| 21>   H                      -10.284769           -1.261342            -1.328762
| 22>   H                      -8.513561            -0.847553            -1.098093
| 23> *
| 24>
| 25> #Run DFT-D3 single point of the molecule with dimer basis set
| 26> $new_job
| 27> %base "11-107_DFT_A"
| 28> ! wB97X-D3 def2-TZVP TIGHTSCF CHELPG PMODEL
| 29>
| 30> %scf
| 31> MaxIter 1000
| 32> end
| 33>
| 34> * xyz 0 1
| 35>   C                      -8.009871            -4.711269            -2.147200
| 36>   O                      -8.298918            -5.552520            -1.027599
| 37>   H                      -8.177552            -5.122342            -0.191332
| 38>   H                      -8.178726            -5.149591            -3.108748
| 39>   H                      -8.576040            -3.788171            -2.055177
| 40>   H                      -7.060665            -4.281000            -2.058181
| 41>   C                    : -9.377443            -0.722194            -1.786221
| 42>   O                    : -9.024279            -1.231015            -3.033294
| 43>   H                    : -8.088597            -1.123171            -3.081556
| 44>   H                    : -9.541488            0.328002             -1.906169
| 45>   H                    : -10.284769           -1.261342            -1.328762
| 46>   H                    : -8.513561            -0.847553            -1.098093
| 47> *
| 48>
| 49> #Run DFT-D3 single point of the particle with dimer basis set
| 50> $new_job
| 51> %base "11-107_DFT_B"
| 52> ! wB97X-D3 def2-TZVP TIGHTSCF CHELPG PMODEL
| 53>
| 54> %scf
| 55> MaxIter 1000
| 56> end
| 57>
| 58> * xyz 0 1
| 59>   C                    : -8.009871            -4.711269            -2.147200
| 60>   O                    : -8.298918            -5.552520            -1.027599
| 61>   H                    : -8.177552            -5.122342            -0.191332
| 62>   H                    : -8.178726            -5.149591            -3.108748
| 63>   H                    : -8.576040            -3.788171            -2.055177
| 64>   H                    : -7.060665            -4.281000            -2.058181
| 65>   C                      -9.377443            -0.722194            -1.786221
| 66>   O                      -9.024279            -1.231015            -3.033294
| 67>   H                      -8.088597            -1.123171            -3.081556
| 68>   H                      -9.541488            0.328002             -1.906169
| 69>   H                      -10.284769           -1.261342            -1.328762
| 70>   H                      -8.513561            -0.847553            -1.098093
| 71> *
| 72>
| 73>                          ****END OF INPUT****
 Total Charge           Charge          ....    0
 Multiplicity           Mult            ....    1
 Number of Electrons    NEL             ....   36
Dispersion correction           -0.001568259
FINAL SINGLE POINT ENERGY      -231.459928186960
Dispersion correction           -0.000237372
FINAL SINGLE POINT ENERGY      -115.727787422970

CARTESIAN COORDINATES (ANGSTROEM)
---------------------------------
  C     -8.009871   -4.711269   -2.147200
  O     -8.298918   -5.552520   -1.027599
  H     -8.177552   -5.122342   -0.191332
  H     -8.178726   -5.149591   -3.108748
  H     -8.576040   -3.788171   -2.055177
  H     -7.060665   -4.281000   -2.058181
  C     -9.377443   -0.722194   -1.786221
  O     -9.024279   -1.231015   -3.033294
  H     -8.088597   -1.123171   -3.081556
  H     -9.541488    0.328002   -1.906169
  H    -10.284769   -1.261342   -1.328762
  H     -8.513561   -0.847553   -1.098093

 Multiplicity           Mult            ....    1
 Number of Electrons    NEL             ....   18
 Basis Dimension        Dim             ....  172

ORBITAL ENERGIES
----------------

  NO   OCC          E(Eh)            E(eV)
   0   2.0000     -19.228052      -523.2219
   1   2.0000     -10.316491      -280.7260
   2   2.0000      -1.149398       -31.2767
   3   2.0000      -0.789503       -21.4835
   4   2.0000      -0.616306       -16.7705
   5   2.0000      -0.549592       -14.9552
   6   2.0000      -0.526881       -14.3372
   7   2.0000      -0.431746       -11.7484
   8   2.0000      -0.372415       -10.1339
   9   0.0000       0.084521         2.2999
  10   0.0000       0.124006         3.3744
  11   0.0000       0.150041         4.0828
  12   0.0000       0.175603         4.7784
  13   0.0000       0.186678         5.0798

MULLIKEN ATOMIC CHARGES
-----------------------
   0 C :   -0.000098
   1 O :   -0.000077
   2 H :   -0.000019
   3 H :   -0.000134
   4 H :   -0.004962
   5 H :   -0.000669
   6 C :   -0.178346
   7 O :   -0.462273
   8 H :    0.314799
   9 H :    0.114276
  10 H :    0.115787
  11 H :    0.101715
Sum of atomic charges:   -0.0000000

LOEWDIN ATOMIC CHARGES
----------------------
   0 C :   -0.004121
   1 O :   -0.000039
   2 H :   -0.000011
   3 H :   -0.000138
   4 H :   -0.006639
   5 H :   -0.000339
   6 C :   -0.405836
   7 O :   -0.050686
   8 H :    0.162404
   9 H :    0.091003
  10 H :    0.116617
  11 H :    0.097786

  Mayer bond orders larger than 0.1
B(  6-C ,  7-O ) :   0.9836 B(  6-C ,  9-H ) :   0.9746 B(  6-C , 10-H ) :   0.9715
B(  6-C , 11-H ) :   0.9908 B(  7-O ,  8-H ) :   0.9029

Dispersion correction           -0.000215683
FINAL SINGLE POINT ENERGY      -115.731158951421

DIPOLE MOMENT
-------------
                                X             Y             Z
Electronic contribution:      0.24892      -0.66050      -1.66671
Nuclear contribution   :      0.22721       0.93712       2.10644
                        -----------------------------------------
Total Dipole Moment    :      0.47612       0.27662       0.43974
                        -----------------------------------------
Magnitude (a.u.)       :      0.70468
Magnitude (Debye)      :      1.79116

Rotational constants in cm-1:     4.144562     0.861749     0.825852
Rotational constants in MHz : 124250.850778 25834.575510 24758.414389

                             ****ORCA TERMINATED NORMALLY****
TOTAL RUN TIME: 0 days 0 hours 1 minutes 6 seconds 641 msec
