                         Program Version 4.1.2  - RELEASE  -
|  1> #Run DFT-D3 single point of the dimer
|  2> ! wB97X-D3 def2-TZVP TIGHTSCF CHELPG PMODEL PAL8
|  3>
|  4> %base "13-119_DFT_AB"
|  5>
|  6> %scf
|  7> MaxIter 1000
|  8> end
|  9>
| 10> * xyz 0 1
| 11>   C                      -4.012360            -0.632223            -6.223825
| 12>   O                      -2.965257            -0.703320            -7.190753
| 13>   H                      -2.852629            0.189757             -7.475184
| 14>   H                      -4.895015            -0.107006            -6.552738
| 15>   H                      -4.281098            -1.627161            -5.907874
| 16>   H                      -3.664603            -0.197199            -5.263075
| 17>   C                      -8.511850            -0.963525            -8.511419
| 18>   O                      -7.419741            -0.358722            -7.879378
| 19>   H                      -6.722054            -0.542908            -8.465725
| 20>   H                      -8.506354            -2.102621            -8.689913
| 21>   H                      -9.434446            -0.754104            -8.016659
| 22>   H                      -8.626261            -0.625500            -9.523608
| 23> *
| 24>
| 25> #Run DFT-D3 single point of the molecule with dimer basis set
| 26> $new_job
| 27> %base "13-119_DFT_A"
| 28> ! wB97X-D3 def2-TZVP TIGHTSCF CHELPG PMODEL
| 29>
| 30> %scf
| 31> MaxIter 1000
| 32> end
| 33>
| 34> * xyz 0 1
| 35>   C                      -4.012360            -0.632223            -6.223825
| 36>   O                      -2.965257            -0.703320            -7.190753
| 37>   H                      -2.852629            0.189757             -7.475184
| 38>   H                      -4.895015            -0.107006            -6.552738
| 39>   H                      -4.281098            -1.627161            -5.907874
| 40>   H                      -3.664603            -0.197199            -5.263075
| 41>   C                    : -8.511850            -0.963525            -8.511419
| 42>   O                    : -7.419741            -0.358722            -7.879378
| 43>   H                    : -6.722054            -0.542908            -8.465725
| 44>   H                    : -8.506354            -2.102621            -8.689913
| 45>   H                    : -9.434446            -0.754104            -8.016659
| 46>   H                    : -8.626261            -0.625500            -9.523608
| 47> *
| 48>
| 49> #Run DFT-D3 single point of the particle with dimer basis set
| 50> $new_job
| 51> %base "13-119_DFT_B"
| 52> ! wB97X-D3 def2-TZVP TIGHTSCF CHELPG PMODEL
| 53>
| 54> %scf
| 55> MaxIter 1000
| 56> end
| 57>
| 58> * xyz 0 1
| 59>   C                    : -4.012360            -0.632223            -6.223825
| 60>   O                    : -2.965257            -0.703320            -7.190753
| 61>   H                    : -2.852629            0.189757             -7.475184
| 62>   H                    : -4.895015            -0.107006            -6.552738
| 63>   H                    : -4.281098            -1.627161            -5.907874
| 64>   H                    : -3.664603            -0.197199            -5.263075
| 65>   C                      -8.511850            -0.963525            -8.511419
| 66>   O                      -7.419741            -0.358722            -7.879378
| 67>   H                      -6.722054            -0.542908            -8.465725
| 68>   H                      -8.506354            -2.102621            -8.689913
| 69>   H                      -9.434446            -0.754104            -8.016659
| 70>   H                      -8.626261            -0.625500            -9.523608
| 71> *
| 72>
| 73>                          ****END OF INPUT****
 Total Charge           Charge          ....    0
 Multiplicity           Mult            ....    1
 Number of Electrons    NEL             ....   36
Dispersion correction           -0.001207499
FINAL SINGLE POINT ENERGY      -231.466205952226
Dispersion correction           -0.000243031
FINAL SINGLE POINT ENERGY      -115.734830237049

CARTESIAN COORDINATES (ANGSTROEM)
---------------------------------
  C     -4.012360   -0.632223   -6.223825
  O     -2.965257   -0.703320   -7.190753
  H     -2.852629    0.189757   -7.475184
  H     -4.895015   -0.107006   -6.552738
  H     -4.281098   -1.627161   -5.907874
  H     -3.664603   -0.197199   -5.263075
  C     -8.511850   -0.963525   -8.511419
  O     -7.419741   -0.358722   -7.879378
  H     -6.722054   -0.542908   -8.465725
  H     -8.506354   -2.102621   -8.689913
  H     -9.434446   -0.754104   -8.016659
  H     -8.626261   -0.625500   -9.523608

 Multiplicity           Mult            ....    1
 Number of Electrons    NEL             ....   18
 Basis Dimension        Dim             ....  172

ORBITAL ENERGIES
----------------

  NO   OCC          E(Eh)            E(eV)
   0   2.0000     -19.236131      -523.4417
   1   2.0000     -10.313796      -280.6527
   2   2.0000      -1.154787       -31.4233
   3   2.0000      -0.798448       -21.7269
   4   2.0000      -0.623469       -16.9654
   5   2.0000      -0.537327       -14.6214
   6   2.0000      -0.529348       -14.4043
   7   2.0000      -0.447388       -12.1740
   8   2.0000      -0.374161       -10.1814
   9   0.0000       0.087912         2.3922
  10   0.0000       0.123571         3.3625
  11   0.0000       0.152650         4.1538
  12   0.0000       0.168392         4.5822
  13   0.0000       0.198219         5.3938

MULLIKEN ATOMIC CHARGES
-----------------------
   0 C :   -0.001904
   1 O :    0.000106
   2 H :    0.000009
   3 H :   -0.003096
   4 H :    0.000185
   5 H :   -0.000215
   6 C :   -0.183573
   7 O :   -0.443778
   8 H :    0.313136
   9 H :    0.090157
  10 H :    0.124775
  11 H :    0.104197
Sum of atomic charges:   -0.0000000

LOEWDIN ATOMIC CHARGES
----------------------
   0 C :   -0.002789
   1 O :   -0.000022
   2 H :   -0.000007
   3 H :   -0.003944
   4 H :   -0.000199
   5 H :   -0.000028
   6 C :   -0.405370
   7 O :   -0.038222
   8 H :    0.156861
   9 H :    0.101347
  10 H :    0.102611
  11 H :    0.089761

  Mayer bond orders larger than 0.1
B(  6-C ,  7-O ) :   1.0043 B(  6-C ,  9-H ) :   0.9649 B(  6-C , 10-H ) :   0.9773
B(  6-C , 11-H ) :   0.9798 B(  7-O ,  8-H ) :   0.9048

Dispersion correction           -0.000241307
FINAL SINGLE POINT ENERGY      -115.729722338527

DIPOLE MOMENT
-------------
                                X             Y             Z
Electronic contribution:      1.42867       0.96435       1.08739
Nuclear contribution   :     -1.41675      -1.26898      -1.71259
                        -----------------------------------------
Total Dipole Moment    :      0.01192      -0.30462      -0.62519
                        -----------------------------------------
Magnitude (a.u.)       :      0.69556
Magnitude (Debye)      :      1.76797

Rotational constants in cm-1:     4.472226     0.839827     0.804712
Rotational constants in MHz : 134073.968170 25177.365365 24124.656348

                             ****ORCA TERMINATED NORMALLY****
TOTAL RUN TIME: 0 days 0 hours 1 minutes 6 seconds 25 msec
