                         Program Version 4.1.2  - RELEASE  -
|  1> #Run DFT-D3 single point of the dimer
|  2> ! wB97X-D3 def2-TZVP TIGHTSCF CHELPG PMODEL PAL8
|  3>
|  4> %base "4-127_DFT_AB"
|  5>
|  6> %scf
|  7> MaxIter 1000
|  8> end
|  9>
| 10> * xyz 0 1
| 11>   C                      6.954746             7.491548             2.890849
| 12>   O                      6.315243             6.971353             1.717059
| 13>   H                      5.920077             7.735909             1.324826
| 14>   H                      7.605254             6.722106             3.359889
| 15>   H                      7.647488             8.305513             2.508878
| 16>   H                      6.250953             7.862724             3.602146
| 17>   C                      3.208912             8.523574             1.890041
| 18>   O                      4.022419             9.685875             2.003729
| 19>   H                      4.329274             9.884666             1.116175
| 20>   H                      3.838737             7.602119             1.554761
| 21>   H                      2.728100             8.354032             2.919526
| 22>   H                      2.387934             8.697139             1.159460
| 23> *
| 24>
| 25> #Run DFT-D3 single point of the molecule with dimer basis set
| 26> $new_job
| 27> %base "4-127_DFT_A"
| 28> ! wB97X-D3 def2-TZVP TIGHTSCF CHELPG PMODEL
| 29>
| 30> %scf
| 31> MaxIter 1000
| 32> end
| 33>
| 34> * xyz 0 1
| 35>   C                      6.954746             7.491548             2.890849
| 36>   O                      6.315243             6.971353             1.717059
| 37>   H                      5.920077             7.735909             1.324826
| 38>   H                      7.605254             6.722106             3.359889
| 39>   H                      7.647488             8.305513             2.508878
| 40>   H                      6.250953             7.862724             3.602146
| 41>   C                    : 3.208912             8.523574             1.890041
| 42>   O                    : 4.022419             9.685875             2.003729
| 43>   H                    : 4.329274             9.884666             1.116175
| 44>   H                    : 3.838737             7.602119             1.554761
| 45>   H                    : 2.728100             8.354032             2.919526
| 46>   H                    : 2.387934             8.697139             1.159460
| 47> *
| 48>
| 49> #Run DFT-D3 single point of the particle with dimer basis set
| 50> $new_job
| 51> %base "4-127_DFT_B"
| 52> ! wB97X-D3 def2-TZVP TIGHTSCF CHELPG PMODEL
| 53>
| 54> %scf
| 55> MaxIter 1000
| 56> end
| 57>
| 58> * xyz 0 1
| 59>   C                    : 6.954746             7.491548             2.890849
| 60>   O                    : 6.315243             6.971353             1.717059
| 61>   H                    : 5.920077             7.735909             1.324826
| 62>   H                    : 7.605254             6.722106             3.359889
| 63>   H                    : 7.647488             8.305513             2.508878
| 64>   H                    : 6.250953             7.862724             3.602146
| 65>   C                      3.208912             8.523574             1.890041
| 66>   O                      4.022419             9.685875             2.003729
| 67>   H                      4.329274             9.884666             1.116175
| 68>   H                      3.838737             7.602119             1.554761
| 69>   H                      2.728100             8.354032             2.919526
| 70>   H                      2.387934             8.697139             1.159460
| 71> *
| 72>
| 73>                          ****END OF INPUT****
 Total Charge           Charge          ....    0
 Multiplicity           Mult            ....    1
 Number of Electrons    NEL             ....   36
Dispersion correction           -0.002089321
FINAL SINGLE POINT ENERGY      -231.468219160307
Dispersion correction           -0.000225224
FINAL SINGLE POINT ENERGY      -115.733631132268

CARTESIAN COORDINATES (ANGSTROEM)
---------------------------------
  C      6.954746    7.491548    2.890849
  O      6.315243    6.971353    1.717059
  H      5.920077    7.735909    1.324826
  H      7.605254    6.722106    3.359889
  H      7.647488    8.305513    2.508878
  H      6.250953    7.862724    3.602146
  C      3.208912    8.523574    1.890041
  O      4.022419    9.685875    2.003729
  H      4.329274    9.884666    1.116175
  H      3.838737    7.602119    1.554761
  H      2.728100    8.354032    2.919526
  H      2.387934    8.697139    1.159460

 Multiplicity           Mult            ....    1
 Number of Electrons    NEL             ....   18
 Basis Dimension        Dim             ....  172

ORBITAL ENERGIES
----------------

  NO   OCC          E(Eh)            E(eV)
   0   2.0000     -19.232695      -523.3482
   1   2.0000     -10.329500      -281.0800
   2   2.0000      -1.136386       -30.9226
   3   2.0000      -0.783768       -21.3274
   4   2.0000      -0.607021       -16.5179
   5   2.0000      -0.536628       -14.6024
   6   2.0000      -0.519657       -14.1406
   7   2.0000      -0.434664       -11.8278
   8   2.0000      -0.373903       -10.1744
   9   0.0000       0.087430         2.3791
  10   0.0000       0.126998         3.4558
  11   0.0000       0.148301         4.0355
  12   0.0000       0.169502         4.6124
  13   0.0000       0.190698         5.1892

MULLIKEN ATOMIC CHARGES
-----------------------
   0 C :    0.001802
   1 O :    0.001125
   2 H :   -0.005078
   3 H :   -0.000109
   4 H :   -0.000444
   5 H :   -0.001728
   6 C :   -0.177086
   7 O :   -0.465136
   8 H :    0.313408
   9 H :    0.097442
  10 H :    0.123233
  11 H :    0.112571
Sum of atomic charges:    0.0000000

LOEWDIN ATOMIC CHARGES
----------------------
   0 C :   -0.003971
   1 O :   -0.004239
   2 H :   -0.008929
   3 H :   -0.000045
   4 H :   -0.000209
   5 H :   -0.001332
   6 C :   -0.393731
   7 O :   -0.079846
   8 H :    0.167728
   9 H :    0.108714
  10 H :    0.119598
  11 H :    0.096261

  Mayer bond orders larger than 0.1
B(  6-C ,  7-O ) :   0.9906 B(  6-C ,  9-H ) :   0.9671 B(  6-C , 10-H ) :   0.9723
B(  6-C , 11-H ) :   0.9741 B(  7-O ,  8-H ) :   0.9001

Dispersion correction           -0.000252827
FINAL SINGLE POINT ENERGY      -115.732674981308

DIPOLE MOMENT
-------------
                                X             Y             Z
Electronic contribution:      1.00536       1.51201       0.27817
Nuclear contribution   :     -1.15077      -1.80564      -0.87630
                        -----------------------------------------
Total Dipole Moment    :     -0.14541      -0.29362      -0.59814
                        -----------------------------------------
Magnitude (a.u.)       :      0.68200
Magnitude (Debye)      :      1.73351

Rotational constants in cm-1:     3.925355     0.820812     0.790189
Rotational constants in MHz : 117679.187497 24607.332102 23689.258972

                             ****ORCA TERMINATED NORMALLY****
TOTAL RUN TIME: 0 days 0 hours 1 minutes 29 seconds 649 msec
