                         Program Version 4.1.2  - RELEASE  -
|  1> #Run DFT-D3 single point of the dimer
|  2> ! wB97X-D3 def2-TZVP TIGHTSCF CHELPG PMODEL PAL8
|  3>
|  4> %base "17-83_DFT_AB"
|  5>
|  6> %scf
|  7> MaxIter 1000
|  8> end
|  9>
| 10> * xyz 0 1
| 11>   C                      -5.201214            2.513529             -9.631531
| 12>   O                      -4.515403            1.567229             -8.775223
| 13>   H                      -3.611690            1.885344             -8.810768
| 14>   H                      -5.769243            3.251244             -9.067049
| 15>   H                      -4.640554            2.954154             -10.383649
| 16>   H                      -6.017593            1.996925             -10.226665
| 17>   C                      -2.415535            -0.971302            -7.674667
| 18>   O                      -3.117178            -0.081729            -6.746123
| 19>   H                      -3.902999            0.348662             -7.180337
| 20>   H                      -1.751958            -0.437656            -8.368405
| 21>   H                      -1.859473            -1.788429            -7.245069
| 22>   H                      -3.184254            -1.533560            -8.318336
| 23> *
| 24>
| 25> #Run DFT-D3 single point of the molecule with dimer basis set
| 26> $new_job
| 27> %base "17-83_DFT_A"
| 28> ! wB97X-D3 def2-TZVP TIGHTSCF CHELPG PMODEL
| 29>
| 30> %scf
| 31> MaxIter 1000
| 32> end
| 33>
| 34> * xyz 0 1
| 35>   C                      -5.201214            2.513529             -9.631531
| 36>   O                      -4.515403            1.567229             -8.775223
| 37>   H                      -3.611690            1.885344             -8.810768
| 38>   H                      -5.769243            3.251244             -9.067049
| 39>   H                      -4.640554            2.954154             -10.383649
| 40>   H                      -6.017593            1.996925             -10.226665
| 41>   C                    : -2.415535            -0.971302            -7.674667
| 42>   O                    : -3.117178            -0.081729            -6.746123
| 43>   H                    : -3.902999            0.348662             -7.180337
| 44>   H                    : -1.751958            -0.437656            -8.368405
| 45>   H                    : -1.859473            -1.788429            -7.245069
| 46>   H                    : -3.184254            -1.533560            -8.318336
| 47> *
| 48>
| 49> #Run DFT-D3 single point of the particle with dimer basis set
| 50> $new_job
| 51> %base "17-83_DFT_B"
| 52> ! wB97X-D3 def2-TZVP TIGHTSCF CHELPG PMODEL
| 53>
| 54> %scf
| 55> MaxIter 1000
| 56> end
| 57>
| 58> * xyz 0 1
| 59>   C                    : -5.201214            2.513529             -9.631531
| 60>   O                    : -4.515403            1.567229             -8.775223
| 61>   H                    : -3.611690            1.885344             -8.810768
| 62>   H                    : -5.769243            3.251244             -9.067049
| 63>   H                    : -4.640554            2.954154             -10.383649
| 64>   H                    : -6.017593            1.996925             -10.226665
| 65>   C                      -2.415535            -0.971302            -7.674667
| 66>   O                      -3.117178            -0.081729            -6.746123
| 67>   H                      -3.902999            0.348662             -7.180337
| 68>   H                      -1.751958            -0.437656            -8.368405
| 69>   H                      -1.859473            -1.788429            -7.245069
| 70>   H                      -3.184254            -1.533560            -8.318336
| 71> *
| 72>
| 73>                          ****END OF INPUT****
 Total Charge           Charge          ....    0
 Multiplicity           Mult            ....    1
 Number of Electrons    NEL             ....   36
Dispersion correction           -0.001686413
FINAL SINGLE POINT ENERGY      -231.463670219434
Dispersion correction           -0.000262466
FINAL SINGLE POINT ENERGY      -115.729146769004

CARTESIAN COORDINATES (ANGSTROEM)
---------------------------------
  C     -5.201214    2.513529   -9.631531
  O     -4.515403    1.567229   -8.775223
  H     -3.611690    1.885344   -8.810768
  H     -5.769243    3.251244   -9.067049
  H     -4.640554    2.954154  -10.383649
  H     -6.017593    1.996925  -10.226665
  C     -2.415535   -0.971302   -7.674667
  O     -3.117178   -0.081729   -6.746123
  H     -3.902999    0.348662   -7.180337
  H     -1.751958   -0.437656   -8.368405
  H     -1.859473   -1.788429   -7.245069
  H     -3.184254   -1.533560   -8.318336

 Multiplicity           Mult            ....    1
 Number of Electrons    NEL             ....   18
 Basis Dimension        Dim             ....  172

ORBITAL ENERGIES
----------------

  NO   OCC          E(Eh)            E(eV)
   0   2.0000     -19.235606      -523.4275
   1   2.0000     -10.323920      -280.9281
   2   2.0000      -1.114087       -30.3158
   3   2.0000      -0.795735       -21.6530
   4   2.0000      -0.597315       -16.2538
   5   2.0000      -0.536423       -14.5968
   6   2.0000      -0.523235       -14.2380
   7   2.0000      -0.425587       -11.5808
   8   2.0000      -0.376430       -10.2432
   9   0.0000       0.073342         1.9957
  10   0.0000       0.120075         3.2674
  11   0.0000       0.141554         3.8519
  12   0.0000       0.171448         4.6653
  13   0.0000       0.194972         5.3055

MULLIKEN ATOMIC CHARGES
-----------------------
   0 C :   -0.001102
   1 O :   -0.005326
   2 H :   -0.003617
   3 H :    0.000046
   4 H :    0.000002
   5 H :    0.000044
   6 C :   -0.183320
   7 O :   -0.485997
   8 H :    0.326694
   9 H :    0.114872
  10 H :    0.135068
  11 H :    0.102635
Sum of atomic charges:    0.0000000

LOEWDIN ATOMIC CHARGES
----------------------
   0 C :   -0.000822
   1 O :   -0.015578
   2 H :   -0.005215
   3 H :   -0.000024
   4 H :   -0.000020
   5 H :   -0.000022
   6 C :   -0.359104
   7 O :   -0.119426
   8 H :    0.192930
   9 H :    0.096986
  10 H :    0.103815
  11 H :    0.106479

  Mayer bond orders larger than 0.1
B(  6-C ,  7-O ) :   0.9923 B(  6-C ,  9-H ) :   0.9708 B(  6-C , 10-H ) :   0.9697
B(  6-C , 11-H ) :   0.9839 B(  7-O ,  8-H ) :   0.8898

Dispersion correction           -0.000291856
FINAL SINGLE POINT ENERGY      -115.728020293764

DIPOLE MOMENT
-------------
                                X             Y             Z
Electronic contribution:     -0.64897       1.13610       1.41897
Nuclear contribution   :      0.45992      -1.27157      -2.07192
                        -----------------------------------------
Total Dipole Moment    :     -0.18906      -0.13547      -0.65295
                        -----------------------------------------
Magnitude (a.u.)       :      0.69314
Magnitude (Debye)      :      1.76182

Rotational constants in cm-1:     4.297678     0.764592     0.743372
Rotational constants in MHz : 128841.157221 22921.892769 22285.717066

                             ****ORCA TERMINATED NORMALLY****
TOTAL RUN TIME: 0 days 0 hours 1 minutes 12 seconds 892 msec
