                         Program Version 4.1.2  - RELEASE  -
|  1> #Run DFT-D3 single point of the dimer
|  2> ! wB97X-D3 def2-TZVP TIGHTSCF CHELPG PMODEL PAL8
|  3>
|  4> %base "14-95_DFT_AB"
|  5>
|  6> %scf
|  7> MaxIter 1000
|  8> end
|  9>
| 10> * xyz 0 1
| 11>   C                      -8.023118            5.970073             -7.301579
| 12>   O                      -7.208899            5.748031             -6.199433
| 13>   H                      -7.582233            5.100643             -5.540227
| 14>   H                      -8.491772            6.984259             -7.204203
| 15>   H                      -7.494694            5.832346             -8.256467
| 16>   H                      -8.841849            5.215604             -7.301558
| 17>   C                      -11.198574           2.196297             -8.663899
| 18>   O                      -9.934511            2.627828             -9.106042
| 19>   H                      -9.437128            2.008321             -9.679980
| 20>   H                      -11.242939           1.426187             -7.873173
| 21>   H                      -11.747869           3.026897             -8.234249
| 22>   H                      -11.859639           1.793048             -9.379719
| 23> *
| 24>
| 25> #Run DFT-D3 single point of the molecule with dimer basis set
| 26> $new_job
| 27> %base "14-95_DFT_A"
| 28> ! wB97X-D3 def2-TZVP TIGHTSCF CHELPG PMODEL
| 29>
| 30> %scf
| 31> MaxIter 1000
| 32> end
| 33>
| 34> * xyz 0 1
| 35>   C                      -8.023118            5.970073             -7.301579
| 36>   O                      -7.208899            5.748031             -6.199433
| 37>   H                      -7.582233            5.100643             -5.540227
| 38>   H                      -8.491772            6.984259             -7.204203
| 39>   H                      -7.494694            5.832346             -8.256467
| 40>   H                      -8.841849            5.215604             -7.301558
| 41>   C                    : -11.198574           2.196297             -8.663899
| 42>   O                    : -9.934511            2.627828             -9.106042
| 43>   H                    : -9.437128            2.008321             -9.679980
| 44>   H                    : -11.242939           1.426187             -7.873173
| 45>   H                    : -11.747869           3.026897             -8.234249
| 46>   H                    : -11.859639           1.793048             -9.379719
| 47> *
| 48>
| 49> #Run DFT-D3 single point of the particle with dimer basis set
| 50> $new_job
| 51> %base "14-95_DFT_B"
| 52> ! wB97X-D3 def2-TZVP TIGHTSCF CHELPG PMODEL
| 53>
| 54> %scf
| 55> MaxIter 1000
| 56> end
| 57>
| 58> * xyz 0 1
| 59>   C                    : -8.023118            5.970073             -7.301579
| 60>   O                    : -7.208899            5.748031             -6.199433
| 61>   H                    : -7.582233            5.100643             -5.540227
| 62>   H                    : -8.491772            6.984259             -7.204203
| 63>   H                    : -7.494694            5.832346             -8.256467
| 64>   H                    : -8.841849            5.215604             -7.301558
| 65>   C                      -11.198574           2.196297             -8.663899
| 66>   O                      -9.934511            2.627828             -9.106042
| 67>   H                      -9.437128            2.008321             -9.679980
| 68>   H                      -11.242939           1.426187             -7.873173
| 69>   H                      -11.747869           3.026897             -8.234249
| 70>   H                      -11.859639           1.793048             -9.379719
| 71> *
| 72>
| 73>                          ****END OF INPUT****
 Total Charge           Charge          ....    0
 Multiplicity           Mult            ....    1
 Number of Electrons    NEL             ....   36
Dispersion correction           -0.001003627
FINAL SINGLE POINT ENERGY      -231.462912791439
Dispersion correction           -0.000249417
FINAL SINGLE POINT ENERGY      -115.731245678144

CARTESIAN COORDINATES (ANGSTROEM)
---------------------------------
  C     -8.023118    5.970073   -7.301579
  O     -7.208899    5.748031   -6.199433
  H     -7.582233    5.100643   -5.540227
  H     -8.491772    6.984259   -7.204203
  H     -7.494694    5.832346   -8.256467
  H     -8.841849    5.215604   -7.301558
  C    -11.198574    2.196297   -8.663899
  O     -9.934511    2.627828   -9.106042
  H     -9.437128    2.008321   -9.679980
  H    -11.242939    1.426187   -7.873173
  H    -11.747869    3.026897   -8.234249
  H    -11.859639    1.793048   -9.379719

 Multiplicity           Mult            ....    1
 Number of Electrons    NEL             ....   18
 Basis Dimension        Dim             ....  172

ORBITAL ENERGIES
----------------

  NO   OCC          E(Eh)            E(eV)
   0   2.0000     -19.234958      -523.4098
   1   2.0000     -10.308676      -280.5133
   2   2.0000      -1.131311       -30.7845
   3   2.0000      -0.804264       -21.8851
   4   2.0000      -0.621785       -16.9196
   5   2.0000      -0.531590       -14.4653
   6   2.0000      -0.527781       -14.3617
   7   2.0000      -0.427978       -11.6459
   8   2.0000      -0.374240       -10.1836
   9   0.0000       0.096815         2.6345
  10   0.0000       0.118361         3.2208
  11   0.0000       0.146863         3.9963
  12   0.0000       0.174821         4.7571
  13   0.0000       0.191164         5.2018

MULLIKEN ATOMIC CHARGES
-----------------------
   0 C :    0.000261
   1 O :    0.000020
   2 H :   -0.000011
   3 H :   -0.000107
   4 H :   -0.000170
   5 H :   -0.002396
   6 C :   -0.153839
   7 O :   -0.485280
   8 H :    0.321192
   9 H :    0.091058
  10 H :    0.121079
  11 H :    0.108194
Sum of atomic charges:   -0.0000000

LOEWDIN ATOMIC CHARGES
----------------------
   0 C :   -0.001039
   1 O :   -0.000012
   2 H :   -0.000004
   3 H :   -0.000009
   4 H :   -0.000136
   5 H :   -0.001713
   6 C :   -0.394527
   7 O :   -0.073753
   8 H :    0.180424
   9 H :    0.094478
  10 H :    0.109550
  11 H :    0.086742

  Mayer bond orders larger than 0.1
B(  6-C ,  7-O ) :   1.0060 B(  6-C ,  9-H ) :   0.9726 B(  6-C , 10-H ) :   0.9763
B(  6-C , 11-H ) :   0.9730 B(  7-O ,  8-H ) :   0.8865

Dispersion correction           -0.000286011
FINAL SINGLE POINT ENERGY      -115.730459704252

DIPOLE MOMENT
-------------
                                X             Y             Z
Electronic contribution:      1.73620       0.66263      -0.62703
Nuclear contribution   :     -1.94387      -1.24042       0.40593
                        -----------------------------------------
Total Dipole Moment    :     -0.20767      -0.57779      -0.22110
                        -----------------------------------------
Magnitude (a.u.)       :      0.65258
Magnitude (Debye)      :      1.65872

Rotational constants in cm-1:     4.719424     0.811485     0.783529
Rotational constants in MHz : 141484.769204 24327.702205 23489.594744

                             ****ORCA TERMINATED NORMALLY****
TOTAL RUN TIME: 0 days 0 hours 1 minutes 10 seconds 681 msec
