                         Program Version 4.1.2  - RELEASE  -
|  1> #Run DFT-D3 single point of the dimer
|  2> ! wB97X-D3 def2-TZVP TIGHTSCF CHELPG PMODEL PAL8
|  3>
|  4> %base "1-65_DFT_AB"
|  5>
|  6> %scf
|  7> MaxIter 1000
|  8> end
|  9>
| 10> * xyz 0 1
| 11>   C                      5.651281             -6.607152            -7.131808
| 12>   O                      4.421029             -6.172387            -6.635053
| 13>   H                      3.846128             -6.941923            -6.443546
| 14>   H                      6.331579             -5.736460            -7.229165
| 15>   H                      6.041744             -7.382705            -6.519006
| 16>   H                      5.543523             -7.079936            -8.062609
| 17>   C                      2.188186             -9.000318            -4.165154
| 18>   O                      1.145914             -9.692273            -4.773061
| 19>   H                      0.926932             -9.237407            -5.568259
| 20>   H                      1.780757             -7.966807            -4.038153
| 21>   H                      2.504193             -9.540271            -3.265993
| 22>   H                      3.121350             -8.856803            -4.773930
| 23> *
| 24>
| 25> #Run DFT-D3 single point of the molecule with dimer basis set
| 26> $new_job
| 27> %base "1-65_DFT_A"
| 28> ! wB97X-D3 def2-TZVP TIGHTSCF CHELPG PMODEL
| 29>
| 30> %scf
| 31> MaxIter 1000
| 32> end
| 33>
| 34> * xyz 0 1
| 35>   C                      5.651281             -6.607152            -7.131808
| 36>   O                      4.421029             -6.172387            -6.635053
| 37>   H                      3.846128             -6.941923            -6.443546
| 38>   H                      6.331579             -5.736460            -7.229165
| 39>   H                      6.041744             -7.382705            -6.519006
| 40>   H                      5.543523             -7.079936            -8.062609
| 41>   C                    : 2.188186             -9.000318            -4.165154
| 42>   O                    : 1.145914             -9.692273            -4.773061
| 43>   H                    : 0.926932             -9.237407            -5.568259
| 44>   H                    : 1.780757             -7.966807            -4.038153
| 45>   H                    : 2.504193             -9.540271            -3.265993
| 46>   H                    : 3.121350             -8.856803            -4.773930
| 47> *
| 48>
| 49> #Run DFT-D3 single point of the particle with dimer basis set
| 50> $new_job
| 51> %base "1-65_DFT_B"
| 52> ! wB97X-D3 def2-TZVP TIGHTSCF CHELPG PMODEL
| 53>
| 54> %scf
| 55> MaxIter 1000
| 56> end
| 57>
| 58> * xyz 0 1
| 59>   C                    : 5.651281             -6.607152            -7.131808
| 60>   O                    : 4.421029             -6.172387            -6.635053
| 61>   H                    : 3.846128             -6.941923            -6.443546
| 62>   H                    : 6.331579             -5.736460            -7.229165
| 63>   H                    : 6.041744             -7.382705            -6.519006
| 64>   H                    : 5.543523             -7.079936            -8.062609
| 65>   C                      2.188186             -9.000318            -4.165154
| 66>   O                      1.145914             -9.692273            -4.773061
| 67>   H                      0.926932             -9.237407            -5.568259
| 68>   H                      1.780757             -7.966807            -4.038153
| 69>   H                      2.504193             -9.540271            -3.265993
| 70>   H                      3.121350             -8.856803            -4.773930
| 71> *
| 72>
| 73>                          ****END OF INPUT****
 Total Charge           Charge          ....    0
 Multiplicity           Mult            ....    1
 Number of Electrons    NEL             ....   36
Dispersion correction           -0.001074919
FINAL SINGLE POINT ENERGY      -231.463683077023
Dispersion correction           -0.000217693
FINAL SINGLE POINT ENERGY      -115.732626333829

CARTESIAN COORDINATES (ANGSTROEM)
---------------------------------
  C      5.651281   -6.607152   -7.131808
  O      4.421029   -6.172387   -6.635053
  H      3.846128   -6.941923   -6.443546
  H      6.331579   -5.736460   -7.229165
  H      6.041744   -7.382705   -6.519006
  H      5.543523   -7.079936   -8.062609
  C      2.188186   -9.000318   -4.165154
  O      1.145914   -9.692273   -4.773061
  H      0.926932   -9.237407   -5.568259
  H      1.780757   -7.966807   -4.038153
  H      2.504193   -9.540271   -3.265993
  H      3.121350   -8.856803   -4.773930

 Multiplicity           Mult            ....    1
 Number of Electrons    NEL             ....   18
 Basis Dimension        Dim             ....  172

ORBITAL ENERGIES
----------------

  NO   OCC          E(Eh)            E(eV)
   0   2.0000     -19.227918      -523.2183
   1   2.0000     -10.317363      -280.7497
   2   2.0000      -1.148198       -31.2440
   3   2.0000      -0.791346       -21.5336
   4   2.0000      -0.617794       -16.8110
   5   2.0000      -0.548873       -14.9356
   6   2.0000      -0.521652       -14.1949
   7   2.0000      -0.436521       -11.8783
   8   2.0000      -0.367205        -9.9922
   9   0.0000       0.080113         2.1800
  10   0.0000       0.114821         3.1245
  11   0.0000       0.152753         4.1566
  12   0.0000       0.177024         4.8171
  13   0.0000       0.182594         4.9686

MULLIKEN ATOMIC CHARGES
-----------------------
   0 C :   -0.000077
   1 O :   -0.000032
   2 H :    0.000147
   3 H :   -0.000006
   4 H :   -0.000158
   5 H :   -0.000017
   6 C :   -0.160170
   7 O :   -0.462096
   8 H :    0.311441
   9 H :    0.095907
  10 H :    0.121857
  11 H :    0.093204
Sum of atomic charges:   -0.0000000

LOEWDIN ATOMIC CHARGES
----------------------
   0 C :   -0.000242
   1 O :   -0.000132
   2 H :   -0.002419
   3 H :   -0.000002
   4 H :   -0.000143
   5 H :   -0.000002
   6 C :   -0.406752
   7 O :   -0.054025
   8 H :    0.158837
   9 H :    0.100251
  10 H :    0.109523
  11 H :    0.095107

  Mayer bond orders larger than 0.1
B(  6-C ,  7-O ) :   0.9979 B(  6-C ,  9-H ) :   0.9902 B(  6-C , 10-H ) :   0.9706
B(  6-C , 11-H ) :   0.9644 B(  7-O ,  8-H ) :   0.9025

Dispersion correction           -0.000224764
FINAL SINGLE POINT ENERGY      -115.730934581157

DIPOLE MOMENT
-------------
                                X             Y             Z
Electronic contribution:     -1.34879      -1.08317      -0.60596
Nuclear contribution   :      1.60141       1.61929       0.32663
                        -----------------------------------------
Total Dipole Moment    :      0.25262       0.53613      -0.27933
                        -----------------------------------------
Magnitude (a.u.)       :      0.65519
Magnitude (Debye)      :      1.66536

Rotational constants in cm-1:     4.187240     0.860802     0.820465
Rotational constants in MHz : 125530.287775 25806.186688 24596.917643

                             ****ORCA TERMINATED NORMALLY****
TOTAL RUN TIME: 0 days 0 hours 6 minutes 11 seconds 820 msec
