                         Program Version 4.1.2  - RELEASE  -
|  1> #Run DFT geometry optimization
|  2> ! wB97X-D3 def2-TZVP TIGHTSCF Grid5 FinalGrid6 Opt CHELPG PAL4
|  3>
|  4> %base "1_geo_opt"
|  5> %geom MaxIter 500
|  6> end
|  7>
|  8> %geom
|  9>   Constraints
| 10>     { B 5 0 C }
| 11>   end
| 12> end
| 13>
| 14>
| 15> * xyz 0 1
| 16>   C                    3.011500             -1.181224            0.598365
| 17>   O                    4.394865             -1.128377            0.874181
| 18>   H                    4.772388             -0.379349            0.412366
| 19>   H                    2.806626             -1.319292            -0.469476
| 20>   H                    2.611824             -2.040592            1.135772
| 21>   H                    2.484565             -0.284164            0.945786
| 22> *
| 23>
| 24>                          ****END OF INPUT****
 Total Charge           Charge          ....    0
 Multiplicity           Mult            ....    1
 Number of Electrons    NEL             ....   18
Dispersion correction           -0.000239411
FINAL SINGLE POINT ENERGY      -115.738051019645
Dispersion correction            ... done
                    ***********************HURRAY********************

CARTESIAN COORDINATES (ANGSTROEM)
---------------------------------
  C      3.011570   -1.181273    0.598393
  O      4.394877   -1.128351    0.874163
  H      4.772362   -0.379320    0.412347
  H      2.806643   -1.319270   -0.469442
  H      2.611717   -2.040565    1.135763
  H      2.484599   -0.284219    0.945772

 Multiplicity           Mult            ....    1
 Number of Electrons    NEL             ....   18
 Basis Dimension        Dim             ....   86

ORBITAL ENERGIES
----------------

  NO   OCC          E(Eh)            E(eV)
   0   2.0000     -19.228101      -523.2232
   1   2.0000     -10.315198      -280.6908
   2   2.0000      -1.136832       -30.9348
   3   2.0000      -0.795291       -21.6410
   4   2.0000      -0.611583       -16.6420
   5   2.0000      -0.541707       -14.7406
   6   2.0000      -0.526353       -14.3228
   7   2.0000      -0.433787       -11.8040
   8   2.0000      -0.373596       -10.1661
   9   0.0000       0.116632         3.1737
  10   0.0000       0.156651         4.2627
  11   0.0000       0.202567         5.5121
  12   0.0000       0.205055         5.5798
  13   0.0000       0.226357         6.1595

MULLIKEN ATOMIC CHARGES
-----------------------
   0 C :   -0.150905
   1 O :   -0.477586
   2 H :    0.313032
   3 H :    0.098661
   4 H :    0.118259
   5 H :    0.098539
Sum of atomic charges:   -0.0000000

LOEWDIN ATOMIC CHARGES
----------------------
   0 C :   -0.385317
   1 O :   -0.076051
   2 H :    0.165793
   3 H :    0.093378
   4 H :    0.108667
   5 H :    0.093529

  Mayer bond orders larger than 0.1
B(  0-C ,  1-O ) :   0.9987 B(  0-C ,  3-H ) :   0.9755 B(  0-C ,  4-H ) :   0.9749
B(  0-C ,  5-H ) :   0.9755 B(  1-O ,  2-H ) :   0.9002

Dispersion correction           -0.000239395
FINAL SINGLE POINT ENERGY      -115.738051044387

DIPOLE MOMENT
-------------
                                X             Y             Z
Electronic contribution:      1.75665      -0.02906       0.41953
Nuclear contribution   :     -2.06617       0.47640      -0.81725
                        -----------------------------------------
Total Dipole Moment    :     -0.30952       0.44734      -0.39772
                        -----------------------------------------
Magnitude (a.u.)       :      0.67386
Magnitude (Debye)      :      1.71283

Rotational constants in cm-1:     4.291404     0.833769     0.804909
Rotational constants in MHz : 128653.050430 24995.762385 24130.559461

                             ****ORCA TERMINATED NORMALLY****
TOTAL RUN TIME: 0 days 0 hours 0 minutes 35 seconds 323 msec
