                         Program Version 4.1.2  - RELEASE  -
|  1> #Run DFT-D3 single point of the dimer
|  2> ! wB97X-D3 def2-TZVP TIGHTSCF CHELPG PMODEL PAL8
|  3>
|  4> %base "14-201_DFT_AB"
|  5>
|  6> %scf
|  7> MaxIter 1000
|  8> end
|  9>
| 10> * xyz 0 1
| 11>   C                      -0.902070            -3.157981            3.493314
| 12>   O                      0.133759             -2.613469            2.684156
| 13>   H                      0.577743             -3.368369            2.322678
| 14>   H                      -0.511078            -4.028069            4.052424
| 15>   H                      -1.286494            -2.302959            4.148782
| 16>   H                      -1.672193            -3.504648            2.850024
| 17>   C                      -0.225415            -6.095642            1.633426
| 18>   O                      0.536393             -4.945777            1.263949
| 19>   H                      0.282742             -4.668539            0.398102
| 20>   H                      -0.303400            -6.885576            0.849981
| 21>   H                      0.171865             -6.535752            2.542253
| 22>   H                      -1.226510            -5.752249            1.770612
| 23> *
| 24>
| 25> #Run DFT-D3 single point of the molecule with dimer basis set
| 26> $new_job
| 27> %base "14-201_DFT_A"
| 28> ! wB97X-D3 def2-TZVP TIGHTSCF CHELPG PMODEL
| 29>
| 30> %scf
| 31> MaxIter 1000
| 32> end
| 33>
| 34> * xyz 0 1
| 35>   C                      -0.902070            -3.157981            3.493314
| 36>   O                      0.133759             -2.613469            2.684156
| 37>   H                      0.577743             -3.368369            2.322678
| 38>   H                      -0.511078            -4.028069            4.052424
| 39>   H                      -1.286494            -2.302959            4.148782
| 40>   H                      -1.672193            -3.504648            2.850024
| 41>   C                    : -0.225415            -6.095642            1.633426
| 42>   O                    : 0.536393             -4.945777            1.263949
| 43>   H                    : 0.282742             -4.668539            0.398102
| 44>   H                    : -0.303400            -6.885576            0.849981
| 45>   H                    : 0.171865             -6.535752            2.542253
| 46>   H                    : -1.226510            -5.752249            1.770612
| 47> *
| 48>
| 49> #Run DFT-D3 single point of the particle with dimer basis set
| 50> $new_job
| 51> %base "14-201_DFT_B"
| 52> ! wB97X-D3 def2-TZVP TIGHTSCF CHELPG PMODEL
| 53>
| 54> %scf
| 55> MaxIter 1000
| 56> end
| 57>
| 58> * xyz 0 1
| 59>   C                    : -0.902070            -3.157981            3.493314
| 60>   O                    : 0.133759             -2.613469            2.684156
| 61>   H                    : 0.577743             -3.368369            2.322678
| 62>   H                    : -0.511078            -4.028069            4.052424
| 63>   H                    : -1.286494            -2.302959            4.148782
| 64>   H                    : -1.672193            -3.504648            2.850024
| 65>   C                      -0.225415            -6.095642            1.633426
| 66>   O                      0.536393             -4.945777            1.263949
| 67>   H                      0.282742             -4.668539            0.398102
| 68>   H                      -0.303400            -6.885576            0.849981
| 69>   H                      0.171865             -6.535752            2.542253
| 70>   H                      -1.226510            -5.752249            1.770612
| 71> *
| 72>
| 73>                          ****END OF INPUT****
 Total Charge           Charge          ....    0
 Multiplicity           Mult            ....    1
 Number of Electrons    NEL             ....   36
Dispersion correction           -0.002377928
FINAL SINGLE POINT ENERGY      -231.474733146124
Dispersion correction           -0.000216984
FINAL SINGLE POINT ENERGY      -115.733039580445

CARTESIAN COORDINATES (ANGSTROEM)
---------------------------------
  C     -0.902070   -3.157981    3.493314
  O      0.133759   -2.613469    2.684156
  H      0.577743   -3.368369    2.322678
  H     -0.511078   -4.028069    4.052424
  H     -1.286494   -2.302959    4.148782
  H     -1.672193   -3.504648    2.850024
  C     -0.225415   -6.095642    1.633426
  O      0.536393   -4.945777    1.263949
  H      0.282742   -4.668539    0.398102
  H     -0.303400   -6.885576    0.849981
  H      0.171865   -6.535752    2.542253
  H     -1.226510   -5.752249    1.770612

 Multiplicity           Mult            ....    1
 Number of Electrons    NEL             ....   18
 Basis Dimension        Dim             ....  172

ORBITAL ENERGIES
----------------

  NO   OCC          E(Eh)            E(eV)
   0   2.0000     -19.227958      -523.2193
   1   2.0000     -10.313799      -280.6527
   2   2.0000      -1.134606       -30.8742
   3   2.0000      -0.799385       -21.7524
   4   2.0000      -0.611971       -16.6526
   5   2.0000      -0.542686       -14.7672
   6   2.0000      -0.525222       -14.2920
   7   2.0000      -0.437755       -11.9119
   8   2.0000      -0.372238       -10.1291
   9   0.0000       0.096402         2.6232
  10   0.0000       0.132939         3.6174
  11   0.0000       0.151581         4.1247
  12   0.0000       0.186464         5.0739
  13   0.0000       0.192320         5.2333

MULLIKEN ATOMIC CHARGES
-----------------------
   0 C :    0.008326
   1 O :   -0.003970
   2 H :   -0.006256
   3 H :   -0.001844
   4 H :    0.000173
   5 H :   -0.002814
   6 C :   -0.164261
   7 O :   -0.478269
   8 H :    0.311692
   9 H :    0.106205
  10 H :    0.121669
  11 H :    0.109348
Sum of atomic charges:   -0.0000000

LOEWDIN ATOMIC CHARGES
----------------------
   0 C :   -0.010140
   1 O :   -0.009395
   2 H :   -0.046410
   3 H :   -0.001291
   4 H :   -0.000090
   5 H :   -0.002484
   6 C :   -0.363608
   7 O :   -0.026332
   8 H :    0.157916
   9 H :    0.100058
  10 H :    0.108690
  11 H :    0.093086

  Mayer bond orders larger than 0.1
B(  6-C ,  7-O ) :   0.9746 B(  6-C ,  9-H ) :   0.9684 B(  6-C , 10-H ) :   0.9762
B(  6-C , 11-H ) :   0.9855 B(  7-O ,  8-H ) :   0.9006

Dispersion correction           -0.000239196
FINAL SINGLE POINT ENERGY      -115.734620662358

DIPOLE MOMENT
-------------
                                X             Y             Z
Electronic contribution:      1.08055       1.40306      -0.29538
Nuclear contribution   :     -1.56414      -1.70309      -0.10774
                        -----------------------------------------
Total Dipole Moment    :     -0.48360      -0.30003      -0.40312
                        -----------------------------------------
Magnitude (a.u.)       :      0.69742
Magnitude (Debye)      :      1.77270

Rotational constants in cm-1:     4.363417     0.822133     0.788070
Rotational constants in MHz : 130811.961326 24646.940343 23625.735983

                             ****ORCA TERMINATED NORMALLY****
TOTAL RUN TIME: 0 days 0 hours 1 minutes 10 seconds 549 msec
