                         Program Version 4.1.2  - RELEASE  -
|  1> #Run DFT-D3 single point of the dimer
|  2> ! wB97X-D3 def2-TZVP TIGHTSCF CHELPG PMODEL PAL8
|  3>
|  4> %base "21-130_DFT_AB"
|  5>
|  6> %scf
|  7> MaxIter 1000
|  8> end
|  9>
| 10> * xyz 0 1
| 11>   C                      -5.919274            -3.266028            -9.765933
| 12>   O                      -7.007712            -2.477800            -10.131426
| 13>   H                      -7.419284            -2.264709            -9.271346
| 14>   H                      -5.092639            -3.122663            -10.527099
| 15>   H                      -5.501222            -2.933932            -8.783267
| 16>   H                      -6.205399            -4.343898            -9.720369
| 17>   C                      -10.101643           -2.063667            -9.217787
| 18>   O                      -9.895398            -1.207752            -8.121446
| 19>   H                      -10.622897           -1.547476            -7.569429
| 20>   H                      -9.559789            -1.773989            -10.137801
| 21>   H                      -9.786645            -3.098036            -9.004654
| 22>   H                      -11.238790           -1.925143            -9.452922
| 23> *
| 24>
| 25> #Run DFT-D3 single point of the molecule with dimer basis set
| 26> $new_job
| 27> %base "21-130_DFT_A"
| 28> ! wB97X-D3 def2-TZVP TIGHTSCF CHELPG PMODEL
| 29>
| 30> %scf
| 31> MaxIter 1000
| 32> end
| 33>
| 34> * xyz 0 1
| 35>   C                      -5.919274            -3.266028            -9.765933
| 36>   O                      -7.007712            -2.477800            -10.131426
| 37>   H                      -7.419284            -2.264709            -9.271346
| 38>   H                      -5.092639            -3.122663            -10.527099
| 39>   H                      -5.501222            -2.933932            -8.783267
| 40>   H                      -6.205399            -4.343898            -9.720369
| 41>   C                    : -10.101643           -2.063667            -9.217787
| 42>   O                    : -9.895398            -1.207752            -8.121446
| 43>   H                    : -10.622897           -1.547476            -7.569429
| 44>   H                    : -9.559789            -1.773989            -10.137801
| 45>   H                    : -9.786645            -3.098036            -9.004654
| 46>   H                    : -11.238790           -1.925143            -9.452922
| 47> *
| 48>
| 49> #Run DFT-D3 single point of the particle with dimer basis set
| 50> $new_job
| 51> %base "21-130_DFT_B"
| 52> ! wB97X-D3 def2-TZVP TIGHTSCF CHELPG PMODEL
| 53>
| 54> %scf
| 55> MaxIter 1000
| 56> end
| 57>
| 58> * xyz 0 1
| 59>   C                    : -5.919274            -3.266028            -9.765933
| 60>   O                    : -7.007712            -2.477800            -10.131426
| 61>   H                    : -7.419284            -2.264709            -9.271346
| 62>   H                    : -5.092639            -3.122663            -10.527099
| 63>   H                    : -5.501222            -2.933932            -8.783267
| 64>   H                    : -6.205399            -4.343898            -9.720369
| 65>   C                      -10.101643           -2.063667            -9.217787
| 66>   O                      -9.895398            -1.207752            -8.121446
| 67>   H                      -10.622897           -1.547476            -7.569429
| 68>   H                      -9.559789            -1.773989            -10.137801
| 69>   H                      -9.786645            -3.098036            -9.004654
| 70>   H                      -11.238790           -1.925143            -9.452922
| 71> *
| 72>
| 73>                          ****END OF INPUT****
 Total Charge           Charge          ....    0
 Multiplicity           Mult            ....    1
 Number of Electrons    NEL             ....   36
Dispersion correction           -0.001632222
FINAL SINGLE POINT ENERGY      -231.461967169380
Dispersion correction           -0.000230944
FINAL SINGLE POINT ENERGY      -115.733706683636

CARTESIAN COORDINATES (ANGSTROEM)
---------------------------------
  C     -5.919274   -3.266028   -9.765933
  O     -7.007712   -2.477800  -10.131426
  H     -7.419284   -2.264709   -9.271346
  H     -5.092639   -3.122663  -10.527099
  H     -5.501222   -2.933932   -8.783267
  H     -6.205399   -4.343898   -9.720369
  C    -10.101643   -2.063667   -9.217787
  O     -9.895398   -1.207752   -8.121446
  H    -10.622897   -1.547476   -7.569429
  H     -9.559789   -1.773989  -10.137801
  H     -9.786645   -3.098036   -9.004654
  H    -11.238790   -1.925143   -9.452922

 Multiplicity           Mult            ....    1
 Number of Electrons    NEL             ....   18
 Basis Dimension        Dim             ....  172

ORBITAL ENERGIES
----------------

  NO   OCC          E(Eh)            E(eV)
   0   2.0000     -19.234030      -523.3846
   1   2.0000     -10.323968      -280.9295
   2   2.0000      -1.145120       -31.1603
   3   2.0000      -0.781815       -21.2743
   4   2.0000      -0.603219       -16.4144
   5   2.0000      -0.549852       -14.9622
   6   2.0000      -0.529641       -14.4123
   7   2.0000      -0.431916       -11.7530
   8   2.0000      -0.373057       -10.1514
   9   0.0000       0.087656         2.3852
  10   0.0000       0.113944         3.1006
  11   0.0000       0.152915         4.1610
  12   0.0000       0.181569         4.9408
  13   0.0000       0.187109         5.0915

MULLIKEN ATOMIC CHARGES
-----------------------
   0 C :   -0.000988
   1 O :   -0.001168
   2 H :    0.003568
   3 H :    0.000009
   4 H :   -0.000041
   5 H :   -0.000022
   6 C :   -0.197243
   7 O :   -0.455195
   8 H :    0.319139
   9 H :    0.119635
  10 H :    0.106415
  11 H :    0.105890
Sum of atomic charges:    0.0000000

LOEWDIN ATOMIC CHARGES
----------------------
   0 C :   -0.000417
   1 O :   -0.004131
   2 H :   -0.005966
   3 H :   -0.000007
   4 H :   -0.000007
   5 H :   -0.000055
   6 C :   -0.410763
   7 O :   -0.079070
   8 H :    0.185815
   9 H :    0.109084
  10 H :    0.096197
  11 H :    0.109320

  Mayer bond orders larger than 0.1
B(  6-C ,  7-O ) :   0.9890 B(  6-C ,  9-H ) :   0.9729 B(  6-C , 10-H ) :   0.9704
B(  6-C , 11-H ) :   0.9879 B(  7-O ,  8-H ) :   0.8993

Dispersion correction           -0.000215542
FINAL SINGLE POINT ENERGY      -115.725787449242

DIPOLE MOMENT
-------------
                                X             Y             Z
Electronic contribution:      0.55645       1.16818       1.38565
Nuclear contribution   :     -1.04192      -1.67120      -1.46722
                        -----------------------------------------
Total Dipole Moment    :     -0.48547      -0.50302      -0.08157
                        -----------------------------------------
Magnitude (a.u.)       :      0.70382
Magnitude (Debye)      :      1.78898

Rotational constants in cm-1:     3.982190     0.845042     0.818954
Rotational constants in MHz : 119383.056409 25333.716415 24551.632624

                             ****ORCA TERMINATED NORMALLY****
TOTAL RUN TIME: 0 days 0 hours 1 minutes 2 seconds 637 msec
