                         Program Version 4.1.2  - RELEASE  -
|  1> #Run DFT-D3 single point of the dimer
|  2> ! wB97X-D3 def2-TZVP TIGHTSCF CHELPG PMODEL PAL8
|  3>
|  4> %base "19-136_DFT_AB"
|  5>
|  6> %scf
|  7> MaxIter 1000
|  8> end
|  9>
| 10> * xyz 0 1
| 11>   C                      -7.106117            -0.711953            -4.295349
| 12>   O                      -7.987258            -0.969623            -5.345620
| 13>   H                      -8.785335            -0.606331            -5.012032
| 14>   H                      -6.036073            -1.036936            -4.411769
| 15>   H                      -7.037151            0.351110             -4.185939
| 16>   H                      -7.469075            -1.155235            -3.374603
| 17>   C                      -7.374341            -3.510027            -7.790926
| 18>   O                      -7.082794            -3.160391            -6.496887
| 19>   H                      -7.014447            -2.195298            -6.513542
| 20>   H                      -6.792086            -2.873235            -8.448449
| 21>   H                      -7.207540            -4.645789            -8.009260
| 22>   H                      -8.493821            -3.377078            -8.052661
| 23> *
| 24>
| 25> #Run DFT-D3 single point of the molecule with dimer basis set
| 26> $new_job
| 27> %base "19-136_DFT_A"
| 28> ! wB97X-D3 def2-TZVP TIGHTSCF CHELPG PMODEL
| 29>
| 30> %scf
| 31> MaxIter 1000
| 32> end
| 33>
| 34> * xyz 0 1
| 35>   C                      -7.106117            -0.711953            -4.295349
| 36>   O                      -7.987258            -0.969623            -5.345620
| 37>   H                      -8.785335            -0.606331            -5.012032
| 38>   H                      -6.036073            -1.036936            -4.411769
| 39>   H                      -7.037151            0.351110             -4.185939
| 40>   H                      -7.469075            -1.155235            -3.374603
| 41>   C                    : -7.374341            -3.510027            -7.790926
| 42>   O                    : -7.082794            -3.160391            -6.496887
| 43>   H                    : -7.014447            -2.195298            -6.513542
| 44>   H                    : -6.792086            -2.873235            -8.448449
| 45>   H                    : -7.207540            -4.645789            -8.009260
| 46>   H                    : -8.493821            -3.377078            -8.052661
| 47> *
| 48>
| 49> #Run DFT-D3 single point of the particle with dimer basis set
| 50> $new_job
| 51> %base "19-136_DFT_B"
| 52> ! wB97X-D3 def2-TZVP TIGHTSCF CHELPG PMODEL
| 53>
| 54> %scf
| 55> MaxIter 1000
| 56> end
| 57>
| 58> * xyz 0 1
| 59>   C                    : -7.106117            -0.711953            -4.295349
| 60>   O                    : -7.987258            -0.969623            -5.345620
| 61>   H                    : -8.785335            -0.606331            -5.012032
| 62>   H                    : -6.036073            -1.036936            -4.411769
| 63>   H                    : -7.037151            0.351110             -4.185939
| 64>   H                    : -7.469075            -1.155235            -3.374603
| 65>   C                      -7.374341            -3.510027            -7.790926
| 66>   O                      -7.082794            -3.160391            -6.496887
| 67>   H                      -7.014447            -2.195298            -6.513542
| 68>   H                      -6.792086            -2.873235            -8.448449
| 69>   H                      -7.207540            -4.645789            -8.009260
| 70>   H                      -8.493821            -3.377078            -8.052661
| 71> *
| 72>
| 73>                          ****END OF INPUT****
 Total Charge           Charge          ....    0
 Multiplicity           Mult            ....    1
 Number of Electrons    NEL             ....   36
Dispersion correction           -0.001665529
FINAL SINGLE POINT ENERGY      -231.460054777046
Dispersion correction           -0.000209132
FINAL SINGLE POINT ENERGY      -115.730451814074

CARTESIAN COORDINATES (ANGSTROEM)
---------------------------------
  C     -7.106117   -0.711953   -4.295349
  O     -7.987258   -0.969623   -5.345620
  H     -8.785335   -0.606331   -5.012032
  H     -6.036073   -1.036936   -4.411769
  H     -7.037151    0.351110   -4.185939
  H     -7.469075   -1.155235   -3.374603
  C     -7.374341   -3.510027   -7.790926
  O     -7.082794   -3.160391   -6.496887
  H     -7.014447   -2.195298   -6.513542
  H     -6.792086   -2.873235   -8.448449
  H     -7.207540   -4.645789   -8.009260
  H     -8.493821   -3.377078   -8.052661

 Multiplicity           Mult            ....    1
 Number of Electrons    NEL             ....   18
 Basis Dimension        Dim             ....  172

ORBITAL ENERGIES
----------------

  NO   OCC          E(Eh)            E(eV)
   0   2.0000     -19.236142      -523.4420
   1   2.0000     -10.324002      -280.9304
   2   2.0000      -1.154858       -31.4253
   3   2.0000      -0.782382       -21.2897
   4   2.0000      -0.620320       -16.8798
   5   2.0000      -0.545858       -14.8536
   6   2.0000      -0.527134       -14.3440
   7   2.0000      -0.432426       -11.7669
   8   2.0000      -0.369088       -10.0434
   9   0.0000       0.077454         2.1076
  10   0.0000       0.125745         3.4217
  11   0.0000       0.154765         4.2114
  12   0.0000       0.165469         4.5027
  13   0.0000       0.194698         5.2980

MULLIKEN ATOMIC CHARGES
-----------------------
   0 C :   -0.003122
   1 O :   -0.005699
   2 H :   -0.000775
   3 H :   -0.001250
   4 H :    0.000144
   5 H :    0.000185
   6 C :   -0.171953
   7 O :   -0.434844
   8 H :    0.318693
   9 H :    0.098835
  10 H :    0.113399
  11 H :    0.086388
Sum of atomic charges:   -0.0000000

LOEWDIN ATOMIC CHARGES
----------------------
   0 C :   -0.009001
   1 O :   -0.025899
   2 H :   -0.001277
   3 H :   -0.001376
   4 H :   -0.000120
   5 H :   -0.000203
   6 C :   -0.435172
   7 O :   -0.027203
   8 H :    0.193128
   9 H :    0.090243
  10 H :    0.118867
  11 H :    0.098014

  Mayer bond orders larger than 0.1
B(  6-C ,  7-O ) :   1.0198 B(  6-C ,  9-H ) :   0.9898 B(  6-C , 10-H ) :   0.9686
B(  6-C , 11-H ) :   0.9658 B(  7-O ,  8-H ) :   0.8925

Dispersion correction           -0.000233636
FINAL SINGLE POINT ENERGY      -115.728544564166

DIPOLE MOMENT
-------------
                                X             Y             Z
Electronic contribution:      0.52305       0.35077       1.83245
Nuclear contribution   :     -0.55277       0.12506      -2.30058
                        -----------------------------------------
Total Dipole Moment    :     -0.02972       0.47584      -0.46813
                        -----------------------------------------
Magnitude (a.u.)       :      0.66817
Magnitude (Debye)      :      1.69834

Rotational constants in cm-1:     4.045552     0.868006     0.828929
Rotational constants in MHz : 121282.588477 26022.160381 24850.672506

                             ****ORCA TERMINATED NORMALLY****
TOTAL RUN TIME: 0 days 0 hours 0 minutes 50 seconds 508 msec
