                         Program Version 4.1.2  - RELEASE  -
|  1> #Run DFT-D3 single point of the dimer
|  2> ! wB97X-D3 def2-TZVP TIGHTSCF CHELPG PMODEL PAL8
|  3>
|  4> %base "5-123_DFT_AB"
|  5>
|  6> %scf
|  7> MaxIter 1000
|  8> end
|  9>
| 10> * xyz 0 1
| 11>   C                      -9.545944            -1.925808            -2.997380
| 12>   O                      -9.264013            -3.170088            -3.475293
| 13>   H                      -8.769437            -3.667740            -2.835042
| 14>   H                      -8.792932            -1.236500            -3.249073
| 15>   H                      -10.372462           -1.460632            -3.328128
| 16>   H                      -9.761016            -1.989993            -1.908970
| 17>   C                      -8.660031            0.832005             -5.170987
| 18>   O                      -7.815908            1.267888             -4.130286
| 19>   H                      -7.078228            0.643491             -4.137287
| 20>   H                      -8.506348            -0.184692            -5.355212
| 21>   H                      -9.735334            1.045192             -4.910549
| 22>   H                      -8.432150            1.275156             -6.182352
| 23> *
| 24>
| 25> #Run DFT-D3 single point of the molecule with dimer basis set
| 26> $new_job
| 27> %base "5-123_DFT_A"
| 28> ! wB97X-D3 def2-TZVP TIGHTSCF CHELPG PMODEL
| 29>
| 30> %scf
| 31> MaxIter 1000
| 32> end
| 33>
| 34> * xyz 0 1
| 35>   C                      -9.545944            -1.925808            -2.997380
| 36>   O                      -9.264013            -3.170088            -3.475293
| 37>   H                      -8.769437            -3.667740            -2.835042
| 38>   H                      -8.792932            -1.236500            -3.249073
| 39>   H                      -10.372462           -1.460632            -3.328128
| 40>   H                      -9.761016            -1.989993            -1.908970
| 41>   C                    : -8.660031            0.832005             -5.170987
| 42>   O                    : -7.815908            1.267888             -4.130286
| 43>   H                    : -7.078228            0.643491             -4.137287
| 44>   H                    : -8.506348            -0.184692            -5.355212
| 45>   H                    : -9.735334            1.045192             -4.910549
| 46>   H                    : -8.432150            1.275156             -6.182352
| 47> *
| 48>
| 49> #Run DFT-D3 single point of the particle with dimer basis set
| 50> $new_job
| 51> %base "5-123_DFT_B"
| 52> ! wB97X-D3 def2-TZVP TIGHTSCF CHELPG PMODEL
| 53>
| 54> %scf
| 55> MaxIter 1000
| 56> end
| 57>
| 58> * xyz 0 1
| 59>   C                    : -9.545944            -1.925808            -2.997380
| 60>   O                    : -9.264013            -3.170088            -3.475293
| 61>   H                    : -8.769437            -3.667740            -2.835042
| 62>   H                    : -8.792932            -1.236500            -3.249073
| 63>   H                    : -10.372462           -1.460632            -3.328128
| 64>   H                    : -9.761016            -1.989993            -1.908970
| 65>   C                      -8.660031            0.832005             -5.170987
| 66>   O                      -7.815908            1.267888             -4.130286
| 67>   H                      -7.078228            0.643491             -4.137287
| 68>   H                      -8.506348            -0.184692            -5.355212
| 69>   H                      -9.735334            1.045192             -4.910549
| 70>   H                      -8.432150            1.275156             -6.182352
| 71> *
| 72>
| 73>                          ****END OF INPUT****
 Total Charge           Charge          ....    0
 Multiplicity           Mult            ....    1
 Number of Electrons    NEL             ....   36
Dispersion correction           -0.001848950
FINAL SINGLE POINT ENERGY      -231.455228586624
Dispersion correction           -0.000216202
FINAL SINGLE POINT ENERGY      -115.722271869870

CARTESIAN COORDINATES (ANGSTROEM)
---------------------------------
  C     -9.545944   -1.925808   -2.997380
  O     -9.264013   -3.170088   -3.475293
  H     -8.769437   -3.667740   -2.835042
  H     -8.792932   -1.236500   -3.249073
  H    -10.372462   -1.460632   -3.328128
  H     -9.761016   -1.989993   -1.908970
  C     -8.660031    0.832005   -5.170987
  O     -7.815908    1.267888   -4.130286
  H     -7.078228    0.643491   -4.137287
  H     -8.506348   -0.184692   -5.355212
  H     -9.735334    1.045192   -4.910549
  H     -8.432150    1.275156   -6.182352

 Multiplicity           Mult            ....    1
 Number of Electrons    NEL             ....   18
 Basis Dimension        Dim             ....  172

ORBITAL ENERGIES
----------------

  NO   OCC          E(Eh)            E(eV)
   0   2.0000     -19.234119      -523.3870
   1   2.0000     -10.314873      -280.6820
   2   2.0000      -1.140735       -31.0410
   3   2.0000      -0.792961       -21.5776
   4   2.0000      -0.619506       -16.8576
   5   2.0000      -0.532496       -14.4899
   6   2.0000      -0.527975       -14.3669
   7   2.0000      -0.441817       -12.0224
   8   2.0000      -0.372224       -10.1287
   9   0.0000       0.084493         2.2992
  10   0.0000       0.121653         3.3103
  11   0.0000       0.147663         4.0181
  12   0.0000       0.168917         4.5965
  13   0.0000       0.194484         5.2922

MULLIKEN ATOMIC CHARGES
-----------------------
   0 C :    0.008318
   1 O :    0.000091
   2 H :   -0.000001
   3 H :   -0.015161
   4 H :   -0.001768
   5 H :   -0.000214
   6 C :   -0.174798
   7 O :   -0.460329
   8 H :    0.314643
   9 H :    0.112907
  10 H :    0.116163
  11 H :    0.100149
Sum of atomic charges:   -0.0000000

LOEWDIN ATOMIC CHARGES
----------------------
   0 C :   -0.005965
   1 O :   -0.000055
   2 H :   -0.000005
   3 H :   -0.007383
   4 H :   -0.001029
   5 H :   -0.000031
   6 C :   -0.391348
   7 O :   -0.070530
   8 H :    0.175901
   9 H :    0.086171
  10 H :    0.114469
  11 H :    0.099803

  Mayer bond orders larger than 0.1
B(  6-C ,  7-O ) :   0.9924 B(  6-C ,  9-H ) :   0.9870 B(  6-C , 10-H ) :   0.9788
B(  6-C , 11-H ) :   0.9686 B(  7-O ,  8-H ) :   0.9013

Dispersion correction           -0.000240644
FINAL SINGLE POINT ENERGY      -115.731538665501

DIPOLE MOMENT
-------------
                                X             Y             Z
Electronic contribution:      0.99988       0.67272       1.46208
Nuclear contribution   :     -0.84754      -1.26341      -1.86156
                        -----------------------------------------
Total Dipole Moment    :      0.15234      -0.59069      -0.39948
                        -----------------------------------------
Magnitude (a.u.)       :      0.72918
Magnitude (Debye)      :      1.85343

Rotational constants in cm-1:     4.258612     0.838530     0.801326
Rotational constants in MHz : 127669.979389 25138.485431 24023.138530

                             ****ORCA TERMINATED NORMALLY****
TOTAL RUN TIME: 0 days 0 hours 1 minutes 3 seconds 893 msec
