                         Program Version 4.1.2  - RELEASE  -
|  1> #Run DFT-D3 single point of the dimer
|  2> ! wB97X-D3 def2-TZVP TIGHTSCF CHELPG PMODEL PAL8
|  3>
|  4> %base "8-206_DFT_AB"
|  5>
|  6> %scf
|  7> MaxIter 1000
|  8> end
|  9>
| 10> * xyz 0 1
| 11>   C                      -3.435710            10.324235            1.939552
| 12>   O                      -3.963342            9.668011             0.767450
| 13>   H                      -3.207545            9.471691             0.170943
| 14>   H                      -3.833382            9.944569             2.858912
| 15>   H                      -2.375822            10.071224            2.080466
| 16>   H                      -3.681451            11.376608            2.054490
| 17>   C                      -3.138727            8.217239             -2.120672
| 18>   O                      -2.282853            9.113877             -1.452980
| 19>   H                      -1.562106            9.383899             -2.066874
| 20>   H                      -4.233444            8.302739             -1.951435
| 21>   H                      -3.002167            8.357074             -3.218072
| 22>   H                      -2.872180            7.127421             -1.853362
| 23> *
| 24>
| 25> #Run DFT-D3 single point of the molecule with dimer basis set
| 26> $new_job
| 27> %base "8-206_DFT_A"
| 28> ! wB97X-D3 def2-TZVP TIGHTSCF CHELPG PMODEL
| 29>
| 30> %scf
| 31> MaxIter 1000
| 32> end
| 33>
| 34> * xyz 0 1
| 35>   C                      -3.435710            10.324235            1.939552
| 36>   O                      -3.963342            9.668011             0.767450
| 37>   H                      -3.207545            9.471691             0.170943
| 38>   H                      -3.833382            9.944569             2.858912
| 39>   H                      -2.375822            10.071224            2.080466
| 40>   H                      -3.681451            11.376608            2.054490
| 41>   C                    : -3.138727            8.217239             -2.120672
| 42>   O                    : -2.282853            9.113877             -1.452980
| 43>   H                    : -1.562106            9.383899             -2.066874
| 44>   H                    : -4.233444            8.302739             -1.951435
| 45>   H                    : -3.002167            8.357074             -3.218072
| 46>   H                    : -2.872180            7.127421             -1.853362
| 47> *
| 48>
| 49> #Run DFT-D3 single point of the particle with dimer basis set
| 50> $new_job
| 51> %base "8-206_DFT_B"
| 52> ! wB97X-D3 def2-TZVP TIGHTSCF CHELPG PMODEL
| 53>
| 54> %scf
| 55> MaxIter 1000
| 56> end
| 57>
| 58> * xyz 0 1
| 59>   C                    : -3.435710            10.324235            1.939552
| 60>   O                    : -3.963342            9.668011             0.767450
| 61>   H                    : -3.207545            9.471691             0.170943
| 62>   H                    : -3.833382            9.944569             2.858912
| 63>   H                    : -2.375822            10.071224            2.080466
| 64>   H                    : -3.681451            11.376608            2.054490
| 65>   C                      -3.138727            8.217239             -2.120672
| 66>   O                      -2.282853            9.113877             -1.452980
| 67>   H                      -1.562106            9.383899             -2.066874
| 68>   H                      -4.233444            8.302739             -1.951435
| 69>   H                      -3.002167            8.357074             -3.218072
| 70>   H                      -2.872180            7.127421             -1.853362
| 71> *
| 72>
| 73>                          ****END OF INPUT****
 Total Charge           Charge          ....    0
 Multiplicity           Mult            ....    1
 Number of Electrons    NEL             ....   36
Dispersion correction           -0.001673561
FINAL SINGLE POINT ENERGY      -231.466820246039
Dispersion correction           -0.000271323
FINAL SINGLE POINT ENERGY      -115.728816995295

CARTESIAN COORDINATES (ANGSTROEM)
---------------------------------
  C     -3.435710   10.324235    1.939552
  O     -3.963342    9.668011    0.767450
  H     -3.207545    9.471691    0.170943
  H     -3.833382    9.944569    2.858912
  H     -2.375822   10.071224    2.080466
  H     -3.681451   11.376608    2.054490
  C     -3.138727    8.217239   -2.120672
  O     -2.282853    9.113877   -1.452980
  H     -1.562106    9.383899   -2.066874
  H     -4.233444    8.302739   -1.951435
  H     -3.002167    8.357074   -3.218072
  H     -2.872180    7.127421   -1.853362

 Multiplicity           Mult            ....    1
 Number of Electrons    NEL             ....   18
 Basis Dimension        Dim             ....  172

ORBITAL ENERGIES
----------------

  NO   OCC          E(Eh)            E(eV)
   0   2.0000     -19.234940      -523.4093
   1   2.0000     -10.324045      -280.9316
   2   2.0000      -1.135307       -30.8933
   3   2.0000      -0.787271       -21.4227
   4   2.0000      -0.610656       -16.6168
   5   2.0000      -0.534041       -14.5320
   6   2.0000      -0.531635       -14.4665
   7   2.0000      -0.426280       -11.5997
   8   2.0000      -0.371893       -10.1197
   9   0.0000       0.098420         2.6782
  10   0.0000       0.116471         3.1693
  11   0.0000       0.145322         3.9544
  12   0.0000       0.188276         5.1233
  13   0.0000       0.196276         5.3409

MULLIKEN ATOMIC CHARGES
-----------------------
   0 C :    0.000131
   1 O :    0.000039
   2 H :   -0.005494
   3 H :   -0.000119
   4 H :   -0.001034
   5 H :    0.000007
   6 C :   -0.179332
   7 O :   -0.464189
   8 H :    0.319184
   9 H :    0.125540
  10 H :    0.106108
  11 H :    0.099158
Sum of atomic charges:    0.0000000

LOEWDIN ATOMIC CHARGES
----------------------
   0 C :   -0.001406
   1 O :   -0.004564
   2 H :   -0.040472
   3 H :   -0.000018
   4 H :   -0.000333
   5 H :   -0.000012
   6 C :   -0.401365
   7 O :   -0.049321
   8 H :    0.186292
   9 H :    0.107270
  10 H :    0.100150
  11 H :    0.103777

  Mayer bond orders larger than 0.1
B(  6-C ,  7-O ) :   0.9977 B(  6-C ,  9-H ) :   0.9698 B(  6-C , 10-H ) :   0.9810
B(  6-C , 11-H ) :   0.9733 B(  7-O ,  8-H ) :   0.8922

Dispersion correction           -0.000262525
FINAL SINGLE POINT ENERGY      -115.730018053154

DIPOLE MOMENT
-------------
                                X             Y             Z
Electronic contribution:      0.99674       1.28131       1.06833
Nuclear contribution   :     -0.87197      -1.42578      -1.74374
                        -----------------------------------------
Total Dipole Moment    :      0.12476      -0.14446      -0.67541
                        -----------------------------------------
Magnitude (a.u.)       :      0.70186
Magnitude (Debye)      :      1.78400

Rotational constants in cm-1:     4.166173     0.819692     0.793341
Rotational constants in MHz : 124898.719119 24573.734749 23783.769846

                             ****ORCA TERMINATED NORMALLY****
TOTAL RUN TIME: 0 days 0 hours 0 minutes 47 seconds 993 msec
