                         Program Version 4.1.2  - RELEASE  -
|  1> #Run DFT-D3 single point of the dimer
|  2> ! wB97X-D3 def2-TZVP TIGHTSCF CHELPG PMODEL PAL8
|  3>
|  4> %base "17-156_DFT_AB"
|  5>
|  6> %scf
|  7> MaxIter 1000
|  8> end
|  9>
| 10> * xyz 0 1
| 11>   C                      -4.029235            9.908186             -7.570120
| 12>   O                      -5.007800            10.875405            -7.276400
| 13>   H                      -4.651881            11.612690            -6.757358
| 14>   H                      -3.444197            9.656401             -6.654471
| 15>   H                      -4.388459            9.014390             -8.010654
| 16>   H                      -3.274616            10.329817            -8.183493
| 17>   C                      -5.090652            10.797053            -10.607571
| 18>   O                      -6.278800            11.079527            -9.839409
| 19>   H                      -5.991345            10.938412            -8.916734
| 20>   H                      -4.179100            11.073219            -10.103943
| 21>   H                      -5.050562            9.757879             -10.921262
| 22>   H                      -5.140320            11.390849            -11.568002
| 23> *
| 24>
| 25> #Run DFT-D3 single point of the molecule with dimer basis set
| 26> $new_job
| 27> %base "17-156_DFT_A"
| 28> ! wB97X-D3 def2-TZVP TIGHTSCF CHELPG PMODEL
| 29>
| 30> %scf
| 31> MaxIter 1000
| 32> end
| 33>
| 34> * xyz 0 1
| 35>   C                      -4.029235            9.908186             -7.570120
| 36>   O                      -5.007800            10.875405            -7.276400
| 37>   H                      -4.651881            11.612690            -6.757358
| 38>   H                      -3.444197            9.656401             -6.654471
| 39>   H                      -4.388459            9.014390             -8.010654
| 40>   H                      -3.274616            10.329817            -8.183493
| 41>   C                    : -5.090652            10.797053            -10.607571
| 42>   O                    : -6.278800            11.079527            -9.839409
| 43>   H                    : -5.991345            10.938412            -8.916734
| 44>   H                    : -4.179100            11.073219            -10.103943
| 45>   H                    : -5.050562            9.757879             -10.921262
| 46>   H                    : -5.140320            11.390849            -11.568002
| 47> *
| 48>
| 49> #Run DFT-D3 single point of the particle with dimer basis set
| 50> $new_job
| 51> %base "17-156_DFT_B"
| 52> ! wB97X-D3 def2-TZVP TIGHTSCF CHELPG PMODEL
| 53>
| 54> %scf
| 55> MaxIter 1000
| 56> end
| 57>
| 58> * xyz 0 1
| 59>   C                    : -4.029235            9.908186             -7.570120
| 60>   O                    : -5.007800            10.875405            -7.276400
| 61>   H                    : -4.651881            11.612690            -6.757358
| 62>   H                    : -3.444197            9.656401             -6.654471
| 63>   H                    : -4.388459            9.014390             -8.010654
| 64>   H                    : -3.274616            10.329817            -8.183493
| 65>   C                      -5.090652            10.797053            -10.607571
| 66>   O                      -6.278800            11.079527            -9.839409
| 67>   H                      -5.991345            10.938412            -8.916734
| 68>   H                      -4.179100            11.073219            -10.103943
| 69>   H                      -5.050562            9.757879             -10.921262
| 70>   H                      -5.140320            11.390849            -11.568002
| 71> *
| 72>
| 73>                          ****END OF INPUT****
 Total Charge           Charge          ....    0
 Multiplicity           Mult            ....    1
 Number of Electrons    NEL             ....   36
Dispersion correction           -0.002360364
FINAL SINGLE POINT ENERGY      -231.473832650612
Dispersion correction           -0.000234234
FINAL SINGLE POINT ENERGY      -115.731959949649

CARTESIAN COORDINATES (ANGSTROEM)
---------------------------------
  C     -4.029235    9.908186   -7.570120
  O     -5.007800   10.875405   -7.276400
  H     -4.651881   11.612690   -6.757358
  H     -3.444197    9.656401   -6.654471
  H     -4.388459    9.014390   -8.010654
  H     -3.274616   10.329817   -8.183493
  C     -5.090652   10.797053  -10.607571
  O     -6.278800   11.079527   -9.839409
  H     -5.991345   10.938412   -8.916734
  H     -4.179100   11.073219  -10.103943
  H     -5.050562    9.757879  -10.921262
  H     -5.140320   11.390849  -11.568002

 Multiplicity           Mult            ....    1
 Number of Electrons    NEL             ....   18
 Basis Dimension        Dim             ....  172

ORBITAL ENERGIES
----------------

  NO   OCC          E(Eh)            E(eV)
   0   2.0000     -19.234442      -523.3958
   1   2.0000     -10.316216      -280.7185
   2   2.0000      -1.127905       -30.6918
   3   2.0000      -0.792920       -21.5764
   4   2.0000      -0.605165       -16.4674
   5   2.0000      -0.540257       -14.7011
   6   2.0000      -0.517989       -14.0952
   7   2.0000      -0.441064       -12.0020
   8   2.0000      -0.375480       -10.2173
   9   0.0000       0.068524         1.8646
  10   0.0000       0.137986         3.7548
  11   0.0000       0.146499         3.9864
  12   0.0000       0.163619         4.4523
  13   0.0000       0.191779         5.2186

MULLIKEN ATOMIC CHARGES
-----------------------
   0 C :   -0.001305
   1 O :   -0.004461
   2 H :   -0.000314
   3 H :   -0.000047
   4 H :   -0.000065
   5 H :   -0.000960
   6 C :   -0.180658
   7 O :   -0.468323
   8 H :    0.316341
   9 H :    0.111085
  10 H :    0.109011
  11 H :    0.119696
Sum of atomic charges:   -0.0000000

LOEWDIN ATOMIC CHARGES
----------------------
   0 C :   -0.016759
   1 O :   -0.020733
   2 H :   -0.001166
   3 H :   -0.000153
   4 H :   -0.001427
   5 H :   -0.004928
   6 C :   -0.362578
   7 O :   -0.089446
   8 H :    0.188899
   9 H :    0.098320
  10 H :    0.095799
  11 H :    0.114171

  Mayer bond orders larger than 0.1
B(  6-C ,  7-O ) :   0.9925 B(  6-C ,  9-H ) :   0.9771 B(  6-C , 10-H ) :   0.9773
B(  6-C , 11-H ) :   0.9759 B(  7-O ,  8-H ) :   0.9079

Dispersion correction           -0.000252451
FINAL SINGLE POINT ENERGY      -115.734451376294

DIPOLE MOMENT
-------------
                                X             Y             Z
Electronic contribution:     -1.55633       0.35767       0.93755
Nuclear contribution   :      2.21858      -0.55003      -0.67931
                        -----------------------------------------
Total Dipole Moment    :      0.66225      -0.19236       0.25824
                        -----------------------------------------
Magnitude (a.u.)       :      0.73638
Magnitude (Debye)      :      1.87174

Rotational constants in cm-1:     4.214386     0.807340     0.775291
Rotational constants in MHz : 126344.105633 24203.451460 23242.637495

                             ****ORCA TERMINATED NORMALLY****
TOTAL RUN TIME: 0 days 0 hours 1 minutes 15 seconds 36 msec
