                         Program Version 4.1.2  - RELEASE  -
|  1> #Run DFT-D3 single point of the dimer
|  2> ! wB97X-D3 def2-TZVP TIGHTSCF CHELPG PMODEL PAL8
|  3>
|  4> %base "12-70_DFT_AB"
|  5>
|  6> %scf
|  7> MaxIter 1000
|  8> end
|  9>
| 10> * xyz 0 1
| 11>   C                      7.095750             3.934989             5.712976
| 12>   O                      8.233398             3.019336             5.783510
| 13>   H                      8.730311             3.165655             4.956165
| 14>   H                      6.340234             3.723684             6.452433
| 15>   H                      7.425371             4.894638             6.015371
| 16>   H                      6.636750             3.988568             4.765022
| 17>   C                      3.937609             6.089715             5.121929
| 18>   O                      4.894966             6.938586             4.500561
| 19>   H                      5.624434             6.969971             5.126123
| 20>   H                      3.038266             5.905496             4.475867
| 21>   H                      4.311928             5.107801             5.271609
| 22>   H                      3.625862             6.468092             6.095905
| 23> *
| 24>
| 25> #Run DFT-D3 single point of the molecule with dimer basis set
| 26> $new_job
| 27> %base "12-70_DFT_A"
| 28> ! wB97X-D3 def2-TZVP TIGHTSCF CHELPG PMODEL
| 29>
| 30> %scf
| 31> MaxIter 1000
| 32> end
| 33>
| 34> * xyz 0 1
| 35>   C                      7.095750             3.934989             5.712976
| 36>   O                      8.233398             3.019336             5.783510
| 37>   H                      8.730311             3.165655             4.956165
| 38>   H                      6.340234             3.723684             6.452433
| 39>   H                      7.425371             4.894638             6.015371
| 40>   H                      6.636750             3.988568             4.765022
| 41>   C                    : 3.937609             6.089715             5.121929
| 42>   O                    : 4.894966             6.938586             4.500561
| 43>   H                    : 5.624434             6.969971             5.126123
| 44>   H                    : 3.038266             5.905496             4.475867
| 45>   H                    : 4.311928             5.107801             5.271609
| 46>   H                    : 3.625862             6.468092             6.095905
| 47> *
| 48>
| 49> #Run DFT-D3 single point of the particle with dimer basis set
| 50> $new_job
| 51> %base "12-70_DFT_B"
| 52> ! wB97X-D3 def2-TZVP TIGHTSCF CHELPG PMODEL
| 53>
| 54> %scf
| 55> MaxIter 1000
| 56> end
| 57>
| 58> * xyz 0 1
| 59>   C                    : 7.095750             3.934989             5.712976
| 60>   O                    : 8.233398             3.019336             5.783510
| 61>   H                    : 8.730311             3.165655             4.956165
| 62>   H                    : 6.340234             3.723684             6.452433
| 63>   H                    : 7.425371             4.894638             6.015371
| 64>   H                    : 6.636750             3.988568             4.765022
| 65>   C                      3.937609             6.089715             5.121929
| 66>   O                      4.894966             6.938586             4.500561
| 67>   H                      5.624434             6.969971             5.126123
| 68>   H                      3.038266             5.905496             4.475867
| 69>   H                      4.311928             5.107801             5.271609
| 70>   H                      3.625862             6.468092             6.095905
| 71> *
| 72>
| 73>                          ****END OF INPUT****
 Total Charge           Charge          ....    0
 Multiplicity           Mult            ....    1
 Number of Electrons    NEL             ....   36
Dispersion correction           -0.001751218
FINAL SINGLE POINT ENERGY      -231.466207848750
Dispersion correction           -0.000247378
FINAL SINGLE POINT ENERGY      -115.730967725878

CARTESIAN COORDINATES (ANGSTROEM)
---------------------------------
  C      7.095750    3.934989    5.712976
  O      8.233398    3.019336    5.783510
  H      8.730311    3.165655    4.956165
  H      6.340234    3.723684    6.452433
  H      7.425371    4.894638    6.015371
  H      6.636750    3.988568    4.765022
  C      3.937609    6.089715    5.121929
  O      4.894966    6.938586    4.500561
  H      5.624434    6.969971    5.126123
  H      3.038266    5.905496    4.475867
  H      4.311928    5.107801    5.271609
  H      3.625862    6.468092    6.095905

 Multiplicity           Mult            ....    1
 Number of Electrons    NEL             ....   18
 Basis Dimension        Dim             ....  172

ORBITAL ENERGIES
----------------

  NO   OCC          E(Eh)            E(eV)
   0   2.0000     -19.233106      -523.3594
   1   2.0000     -10.312955      -280.6298
   2   2.0000      -1.136668       -30.9303
   3   2.0000      -0.795979       -21.6597
   4   2.0000      -0.610303       -16.6072
   5   2.0000      -0.544928       -14.8282
   6   2.0000      -0.523297       -14.2396
   7   2.0000      -0.437220       -11.8974
   8   2.0000      -0.375774       -10.2253
   9   0.0000       0.075027         2.0416
  10   0.0000       0.127221         3.4619
  11   0.0000       0.147356         4.0098
  12   0.0000       0.172402         4.6913
  13   0.0000       0.188647         5.1333

MULLIKEN ATOMIC CHARGES
-----------------------
   0 C :    0.000115
   1 O :    0.000078
   2 H :   -0.000005
   3 H :   -0.000900
   4 H :   -0.000894
   5 H :    0.000654
   6 C :   -0.170508
   7 O :   -0.466112
   8 H :    0.313924
   9 H :    0.118792
  10 H :    0.103428
  11 H :    0.101427
Sum of atomic charges:    0.0000000

LOEWDIN ATOMIC CHARGES
----------------------
   0 C :   -0.005424
   1 O :   -0.000028
   2 H :   -0.000005
   3 H :   -0.001469
   4 H :   -0.000874
   5 H :   -0.001529
   6 C :   -0.380423
   7 O :   -0.078703
   8 H :    0.170964
   9 H :    0.115543
  10 H :    0.088073
  11 H :    0.093874

  Mayer bond orders larger than 0.1
B(  6-C ,  7-O ) :   1.0043 B(  6-C ,  9-H ) :   0.9737 B(  6-C , 10-H ) :   0.9736
B(  6-C , 11-H ) :   0.9819 B(  7-O ,  8-H ) :   0.9020

Dispersion correction           -0.000234757
FINAL SINGLE POINT ENERGY      -115.734220221435

DIPOLE MOMENT
-------------
                                X             Y             Z
Electronic contribution:      1.17093       1.17369      -0.92237
Nuclear contribution   :     -1.09003      -1.50849       1.55460
                        -----------------------------------------
Total Dipole Moment    :      0.08090      -0.33480       0.63224
                        -----------------------------------------
Magnitude (a.u.)       :      0.71997
Magnitude (Debye)      :      1.83002

Rotational constants in cm-1:     4.344871     0.824270     0.790151
Rotational constants in MHz : 130255.962475 24710.988577 23688.124423

                             ****ORCA TERMINATED NORMALLY****
TOTAL RUN TIME: 0 days 0 hours 0 minutes 57 seconds 705 msec
