                         Program Version 4.1.2  - RELEASE  -
|  1> #Run DFT geometry optimization
|  2> ! wB97X-D3 def2-TZVP TIGHTSCF Grid5 FinalGrid6 Opt CHELPG PAL4
|  3>
|  4> %base "3_geo_opt"
|  5> %geom MaxIter 500
|  6> end
|  7>
|  8> %geom
|  9>   Constraints
| 10>     { A 2 1 0 C }
| 11>   end
| 12> end
| 13>
| 14>
| 15> * xyz 0 1
| 16>   C                    3.011103             -1.182901            0.599910
| 17>   O                    4.394673             -1.128050            0.874308
| 18>   H                    4.773701             -0.379401            0.413112
| 19>   H                    2.806434             -1.318965            -0.469350
| 20>   H                    2.611632             -2.040265            1.135898
| 21>   H                    2.484757             -0.284491            0.945659
| 22> *
| 23>
| 24>                          ****END OF INPUT****
 Total Charge           Charge          ....    0
 Multiplicity           Mult            ....    1
 Number of Electrons    NEL             ....   18
Dispersion correction           -0.000239562
FINAL SINGLE POINT ENERGY      -115.738043909567
Dispersion correction            ... done
Dispersion correction           -0.000239559
FINAL SINGLE POINT ENERGY      -115.738049735225
Dispersion correction            ... done
                    ***********************HURRAY********************

CARTESIAN COORDINATES (ANGSTROEM)
---------------------------------
  C      3.011236   -1.181400    0.598834
  O      4.394362   -1.128011    0.874172
  H      4.774424   -0.379661    0.413513
  H      2.805981   -1.319156   -0.468969
  H      2.611866   -2.040856    1.136397
  H      2.484432   -0.284990    0.945590

 Multiplicity           Mult            ....    1
 Number of Electrons    NEL             ....   18
 Basis Dimension        Dim             ....   86

ORBITAL ENERGIES
----------------

  NO   OCC          E(Eh)            E(eV)
   0   2.0000     -19.228001      -523.2205
   1   2.0000     -10.315099      -280.6881
   2   2.0000      -1.136767       -30.9330
   3   2.0000      -0.795428       -21.6447
   4   2.0000      -0.611703       -16.6453
   5   2.0000      -0.541700       -14.7404
   6   2.0000      -0.526436       -14.3251
   7   2.0000      -0.433570       -11.7980
   8   2.0000      -0.373546       -10.1647
   9   0.0000       0.116685         3.1752
  10   0.0000       0.156658         4.2629
  11   0.0000       0.202601         5.5130
  12   0.0000       0.205158         5.5826
  13   0.0000       0.226444         6.1619

MULLIKEN ATOMIC CHARGES
-----------------------
   0 C :   -0.150393
   1 O :   -0.478015
   2 H :    0.313082
   3 H :    0.098531
   4 H :    0.118261
   5 H :    0.098535
Sum of atomic charges:   -0.0000000

LOEWDIN ATOMIC CHARGES
----------------------
   0 C :   -0.385243
   1 O :   -0.075907
   2 H :    0.165679
   3 H :    0.093373
   4 H :    0.108727
   5 H :    0.093371

  Mayer bond orders larger than 0.1
B(  0-C ,  1-O ) :   0.9986 B(  0-C ,  3-H ) :   0.9756 B(  0-C ,  4-H ) :   0.9749
B(  0-C ,  5-H ) :   0.9755 B(  1-O ,  2-H ) :   0.9000

Dispersion correction           -0.000239664
FINAL SINGLE POINT ENERGY      -115.738050206558

DIPOLE MOMENT
-------------
                                X             Y             Z
Electronic contribution:      1.75548      -0.02742       0.41905
Nuclear contribution   :     -2.06360       0.47488      -0.81618
                        -----------------------------------------
Total Dipole Moment    :     -0.30812       0.44747      -0.39712
                        -----------------------------------------
Magnitude (a.u.)       :      0.67296
Magnitude (Debye)      :      1.71052

Rotational constants in cm-1:     4.295438     0.833848     0.804969
Rotational constants in MHz : 128773.990709 24998.130944 24132.369935

                             ****ORCA TERMINATED NORMALLY****
TOTAL RUN TIME: 0 days 0 hours 0 minutes 40 seconds 510 msec
