                         Program Version 4.1.2  - RELEASE  -
|  1> #Run DFT-D3 single point of the dimer
|  2> ! wB97X-D3 def2-TZVP TIGHTSCF CHELPG PMODEL PAL8
|  3>
|  4> %base "17-155_DFT_AB"
|  5>
|  6> %scf
|  7> MaxIter 1000
|  8> end
|  9>
| 10> * xyz 0 1
| 11>   C                      -4.029235            9.908186             -7.570120
| 12>   O                      -5.007800            10.875405            -7.276400
| 13>   H                      -4.651881            11.612690            -6.757358
| 14>   H                      -3.444197            9.656401             -6.654471
| 15>   H                      -4.388459            9.014390             -8.010654
| 16>   H                      -3.274616            10.329817            -8.183493
| 17>   C                      -7.600050            8.867066             -7.756654
| 18>   O                      -7.220988            9.200179             -6.413304
| 19>   H                      -6.302554            9.504974             -6.519398
| 20>   H                      -8.265899            9.559176             -8.202592
| 21>   H                      -6.671656            8.797403             -8.354159
| 22>   H                      -8.063249            7.830179             -7.673534
| 23> *
| 24>
| 25> #Run DFT-D3 single point of the molecule with dimer basis set
| 26> $new_job
| 27> %base "17-155_DFT_A"
| 28> ! wB97X-D3 def2-TZVP TIGHTSCF CHELPG PMODEL
| 29>
| 30> %scf
| 31> MaxIter 1000
| 32> end
| 33>
| 34> * xyz 0 1
| 35>   C                      -4.029235            9.908186             -7.570120
| 36>   O                      -5.007800            10.875405            -7.276400
| 37>   H                      -4.651881            11.612690            -6.757358
| 38>   H                      -3.444197            9.656401             -6.654471
| 39>   H                      -4.388459            9.014390             -8.010654
| 40>   H                      -3.274616            10.329817            -8.183493
| 41>   C                    : -7.600050            8.867066             -7.756654
| 42>   O                    : -7.220988            9.200179             -6.413304
| 43>   H                    : -6.302554            9.504974             -6.519398
| 44>   H                    : -8.265899            9.559176             -8.202592
| 45>   H                    : -6.671656            8.797403             -8.354159
| 46>   H                    : -8.063249            7.830179             -7.673534
| 47> *
| 48>
| 49> #Run DFT-D3 single point of the particle with dimer basis set
| 50> $new_job
| 51> %base "17-155_DFT_B"
| 52> ! wB97X-D3 def2-TZVP TIGHTSCF CHELPG PMODEL
| 53>
| 54> %scf
| 55> MaxIter 1000
| 56> end
| 57>
| 58> * xyz 0 1
| 59>   C                    : -4.029235            9.908186             -7.570120
| 60>   O                    : -5.007800            10.875405            -7.276400
| 61>   H                    : -4.651881            11.612690            -6.757358
| 62>   H                    : -3.444197            9.656401             -6.654471
| 63>   H                    : -4.388459            9.014390             -8.010654
| 64>   H                    : -3.274616            10.329817            -8.183493
| 65>   C                      -7.600050            8.867066             -7.756654
| 66>   O                      -7.220988            9.200179             -6.413304
| 67>   H                      -6.302554            9.504974             -6.519398
| 68>   H                      -8.265899            9.559176             -8.202592
| 69>   H                      -6.671656            8.797403             -8.354159
| 70>   H                      -8.063249            7.830179             -7.673534
| 71> *
| 72>
| 73>                          ****END OF INPUT****
 Total Charge           Charge          ....    0
 Multiplicity           Mult            ....    1
 Number of Electrons    NEL             ....   36
Dispersion correction           -0.002128983
FINAL SINGLE POINT ENERGY      -231.468700180401
Dispersion correction           -0.000234234
FINAL SINGLE POINT ENERGY      -115.731927184109

CARTESIAN COORDINATES (ANGSTROEM)
---------------------------------
  C     -4.029235    9.908186   -7.570120
  O     -5.007800   10.875405   -7.276400
  H     -4.651881   11.612690   -6.757358
  H     -3.444197    9.656401   -6.654471
  H     -4.388459    9.014390   -8.010654
  H     -3.274616   10.329817   -8.183493
  C     -7.600050    8.867066   -7.756654
  O     -7.220988    9.200179   -6.413304
  H     -6.302554    9.504974   -6.519398
  H     -8.265899    9.559176   -8.202592
  H     -6.671656    8.797403   -8.354159
  H     -8.063249    7.830179   -7.673534

 Multiplicity           Mult            ....    1
 Number of Electrons    NEL             ....   18
 Basis Dimension        Dim             ....  172

ORBITAL ENERGIES
----------------

  NO   OCC          E(Eh)            E(eV)
   0   2.0000     -19.231204      -523.3077
   1   2.0000     -10.317057      -280.7414
   2   2.0000      -1.130808       -30.7708
   3   2.0000      -0.789971       -21.4962
   4   2.0000      -0.605888       -16.4870
   5   2.0000      -0.547473       -14.8975
   6   2.0000      -0.517931       -14.0936
   7   2.0000      -0.436431       -11.8759
   8   2.0000      -0.374956       -10.2031
   9   0.0000       0.065811         1.7908
  10   0.0000       0.140189         3.8147
  11   0.0000       0.147473         4.0129
  12   0.0000       0.162003         4.4083
  13   0.0000       0.186173         5.0660

MULLIKEN ATOMIC CHARGES
-----------------------
   0 C :   -0.004970
   1 O :   -0.005332
   2 H :   -0.000806
   3 H :    0.000346
   4 H :    0.000837
   5 H :   -0.000083
   6 C :   -0.175226
   7 O :   -0.464109
   8 H :    0.314897
   9 H :    0.117514
  10 H :    0.101867
  11 H :    0.115065
Sum of atomic charges:   -0.0000000

LOEWDIN ATOMIC CHARGES
----------------------
   0 C :   -0.012870
   1 O :   -0.015906
   2 H :   -0.001183
   3 H :   -0.000324
   4 H :   -0.003922
   5 H :   -0.000172
   6 C :   -0.366678
   7 O :   -0.087981
   8 H :    0.183585
   9 H :    0.089297
  10 H :    0.101999
  11 H :    0.114155

  Mayer bond orders larger than 0.1
B(  6-C ,  7-O ) :   0.9861 B(  6-C ,  9-H ) :   0.9676 B(  6-C , 10-H ) :   0.9867
B(  6-C , 11-H ) :   0.9787 B(  7-O ,  8-H ) :   0.9137

Dispersion correction           -0.000236320
FINAL SINGLE POINT ENERGY      -115.731419940475

DIPOLE MOMENT
-------------
                                X             Y             Z
Electronic contribution:      0.23239       0.49801       1.68035
Nuclear contribution   :      0.19156      -0.43855      -2.28020
                        -----------------------------------------
Total Dipole Moment    :      0.42396       0.05946      -0.59985
                        -----------------------------------------
Magnitude (a.u.)       :      0.73695
Magnitude (Debye)      :      1.87317

Rotational constants in cm-1:     4.088250     0.825612     0.792521
Rotational constants in MHz : 122562.654818 24751.212738 23759.182235

                             ****ORCA TERMINATED NORMALLY****
TOTAL RUN TIME: 0 days 0 hours 1 minutes 13 seconds 750 msec
