                         Program Version 4.1.2  - RELEASE  -
|  1> #Run DFT-D3 single point of the dimer
|  2> ! wB97X-D3 def2-TZVP TIGHTSCF CHELPG PMODEL PAL8
|  3>
|  4> %base "11-56_DFT_AB"
|  5>
|  6> %scf
|  7> MaxIter 1000
|  8> end
|  9>
| 10> * xyz 0 1
| 11>   C                      -2.287004            -7.105774            -7.763036
| 12>   O                      -0.949285            -7.170664            -8.203545
| 13>   H                      -0.939735            -7.506460            -9.050222
| 14>   H                      -2.333886            -6.430946            -6.937260
| 15>   H                      -2.922818            -6.617067            -8.546304
| 16>   H                      -2.776979            -8.069040            -7.408969
| 17>   C                      2.827780             -7.022669            -7.405427
| 18>   O                      3.547528             -5.852811            -7.864302
| 19>   H                      3.736038             -5.860717            -8.785669
| 20>   H                      2.401471             -6.926405            -6.404362
| 21>   H                      1.979401             -7.219500            -8.093612
| 22>   H                      3.487339             -7.958022            -7.457453
| 23> *
| 24>
| 25> #Run DFT-D3 single point of the molecule with dimer basis set
| 26> $new_job
| 27> %base "11-56_DFT_A"
| 28> ! wB97X-D3 def2-TZVP TIGHTSCF CHELPG PMODEL
| 29>
| 30> %scf
| 31> MaxIter 1000
| 32> end
| 33>
| 34> * xyz 0 1
| 35>   C                      -2.287004            -7.105774            -7.763036
| 36>   O                      -0.949285            -7.170664            -8.203545
| 37>   H                      -0.939735            -7.506460            -9.050222
| 38>   H                      -2.333886            -6.430946            -6.937260
| 39>   H                      -2.922818            -6.617067            -8.546304
| 40>   H                      -2.776979            -8.069040            -7.408969
| 41>   C                    : 2.827780             -7.022669            -7.405427
| 42>   O                    : 3.547528             -5.852811            -7.864302
| 43>   H                    : 3.736038             -5.860717            -8.785669
| 44>   H                    : 2.401471             -6.926405            -6.404362
| 45>   H                    : 1.979401             -7.219500            -8.093612
| 46>   H                    : 3.487339             -7.958022            -7.457453
| 47> *
| 48>
| 49> #Run DFT-D3 single point of the particle with dimer basis set
| 50> $new_job
| 51> %base "11-56_DFT_B"
| 52> ! wB97X-D3 def2-TZVP TIGHTSCF CHELPG PMODEL
| 53>
| 54> %scf
| 55> MaxIter 1000
| 56> end
| 57>
| 58> * xyz 0 1
| 59>   C                    : -2.287004            -7.105774            -7.763036
| 60>   O                    : -0.949285            -7.170664            -8.203545
| 61>   H                    : -0.939735            -7.506460            -9.050222
| 62>   H                    : -2.333886            -6.430946            -6.937260
| 63>   H                    : -2.922818            -6.617067            -8.546304
| 64>   H                    : -2.776979            -8.069040            -7.408969
| 65>   C                      2.827780             -7.022669            -7.405427
| 66>   O                      3.547528             -5.852811            -7.864302
| 67>   H                      3.736038             -5.860717            -8.785669
| 68>   H                      2.401471             -6.926405            -6.404362
| 69>   H                      1.979401             -7.219500            -8.093612
| 70>   H                      3.487339             -7.958022            -7.457453
| 71> *
| 72>
| 73>                          ****END OF INPUT****
 Total Charge           Charge          ....    0
 Multiplicity           Mult            ....    1
 Number of Electrons    NEL             ....   36
Dispersion correction           -0.001136672
FINAL SINGLE POINT ENERGY      -231.464037279759
Dispersion correction           -0.000256816
FINAL SINGLE POINT ENERGY      -115.731842806445

CARTESIAN COORDINATES (ANGSTROEM)
---------------------------------
  C     -2.287004   -7.105774   -7.763036
  O     -0.949285   -7.170664   -8.203545
  H     -0.939735   -7.506460   -9.050222
  H     -2.333886   -6.430946   -6.937260
  H     -2.922818   -6.617067   -8.546304
  H     -2.776979   -8.069040   -7.408969
  C      2.827780   -7.022669   -7.405427
  O      3.547528   -5.852811   -7.864302
  H      3.736038   -5.860717   -8.785669
  H      2.401471   -6.926405   -6.404362
  H      1.979401   -7.219500   -8.093612
  H      3.487339   -7.958022   -7.457453

 Multiplicity           Mult            ....    1
 Number of Electrons    NEL             ....   18
 Basis Dimension        Dim             ....  172

ORBITAL ENERGIES
----------------

  NO   OCC          E(Eh)            E(eV)
   0   2.0000     -19.226527      -523.1804
   1   2.0000     -10.325180      -280.9624
   2   2.0000      -1.126483       -30.6532
   3   2.0000      -0.796683       -21.6788
   4   2.0000      -0.606895       -16.5144
   5   2.0000      -0.532536       -14.4910
   6   2.0000      -0.527514       -14.3544
   7   2.0000      -0.428121       -11.6498
   8   2.0000      -0.372406       -10.1337
   9   0.0000       0.083052         2.2600
  10   0.0000       0.117427         3.1953
  11   0.0000       0.142995         3.8911
  12   0.0000       0.164879         4.4866
  13   0.0000       0.194796         5.3007

MULLIKEN ATOMIC CHARGES
-----------------------
   0 C :   -0.000144
   1 O :   -0.000003
   2 H :   -0.000286
   3 H :    0.000011
   4 H :    0.000000
   5 H :   -0.000004
   6 C :   -0.162284
   7 O :   -0.490072
   8 H :    0.315277
   9 H :    0.130033
  10 H :    0.105313
  11 H :    0.102159
Sum of atomic charges:    0.0000000

LOEWDIN ATOMIC CHARGES
----------------------
   0 C :   -0.000149
   1 O :   -0.001939
   2 H :   -0.000818
   3 H :   -0.000008
   4 H :   -0.000004
   5 H :   -0.000003
   6 C :   -0.363264
   7 O :   -0.095834
   8 H :    0.151934
   9 H :    0.108567
  10 H :    0.098312
  11 H :    0.103207

  Mayer bond orders larger than 0.1
B(  6-C ,  7-O ) :   0.9864 B(  6-C ,  9-H ) :   0.9688 B(  6-C , 10-H ) :   0.9794
B(  6-C , 11-H ) :   0.9707 B(  7-O ,  8-H ) :   0.8986

Dispersion correction           -0.000275433
FINAL SINGLE POINT ENERGY      -115.731410071572

DIPOLE MOMENT
-------------
                                X             Y             Z
Electronic contribution:      0.89672       1.58939      -0.34746
Nuclear contribution   :     -1.10305      -2.08009      -0.06108
                        -----------------------------------------
Total Dipole Moment    :     -0.20633      -0.49070      -0.40855
                        -----------------------------------------
Magnitude (a.u.)       :      0.67102
Magnitude (Debye)      :      1.70560

Rotational constants in cm-1:     4.286833     0.785127     0.762290
Rotational constants in MHz : 128516.022589 23537.517360 22852.891219

                             ****ORCA TERMINATED NORMALLY****
TOTAL RUN TIME: 0 days 0 hours 1 minutes 9 seconds 974 msec
