                         Program Version 4.1.2  - RELEASE  -
|  1> #Run DFT-D3 single point of the dimer
|  2> ! wB97X-D3 def2-TZVP TIGHTSCF CHELPG PMODEL PAL8
|  3>
|  4> %base "22-56_DFT_AB"
|  5>
|  6> %scf
|  7> MaxIter 1000
|  8> end
|  9>
| 10> * xyz 0 1
| 11>   C                      5.509219             -5.286384            -2.629828
| 12>   O                      6.356411             -4.322206            -3.312786
| 13>   H                      5.806492             -3.659072            -3.753185
| 14>   H                      4.710320             -5.785805            -3.279945
| 15>   H                      6.199272             -6.152955            -2.356879
| 16>   H                      4.910016             -4.863904            -1.771712
| 17>   C                      3.680089             -2.891072            -5.754529
| 18>   O                      4.708801             -2.510868            -4.915442
| 19>   H                      4.904022             -1.557423            -4.987716
| 20>   H                      3.258538             -2.075596            -6.336842
| 21>   H                      3.851655             -3.787714            -6.399860
| 22>   H                      2.863482             -3.084857            -5.079649
| 23> *
| 24>
| 25> #Run DFT-D3 single point of the molecule with dimer basis set
| 26> $new_job
| 27> %base "22-56_DFT_A"
| 28> ! wB97X-D3 def2-TZVP TIGHTSCF CHELPG PMODEL
| 29>
| 30> %scf
| 31> MaxIter 1000
| 32> end
| 33>
| 34> * xyz 0 1
| 35>   C                      5.509219             -5.286384            -2.629828
| 36>   O                      6.356411             -4.322206            -3.312786
| 37>   H                      5.806492             -3.659072            -3.753185
| 38>   H                      4.710320             -5.785805            -3.279945
| 39>   H                      6.199272             -6.152955            -2.356879
| 40>   H                      4.910016             -4.863904            -1.771712
| 41>   C                    : 3.680089             -2.891072            -5.754529
| 42>   O                    : 4.708801             -2.510868            -4.915442
| 43>   H                    : 4.904022             -1.557423            -4.987716
| 44>   H                    : 3.258538             -2.075596            -6.336842
| 45>   H                    : 3.851655             -3.787714            -6.399860
| 46>   H                    : 2.863482             -3.084857            -5.079649
| 47> *
| 48>
| 49> #Run DFT-D3 single point of the particle with dimer basis set
| 50> $new_job
| 51> %base "22-56_DFT_B"
| 52> ! wB97X-D3 def2-TZVP TIGHTSCF CHELPG PMODEL
| 53>
| 54> %scf
| 55> MaxIter 1000
| 56> end
| 57>
| 58> * xyz 0 1
| 59>   C                    : 5.509219             -5.286384            -2.629828
| 60>   O                    : 6.356411             -4.322206            -3.312786
| 61>   H                    : 5.806492             -3.659072            -3.753185
| 62>   H                    : 4.710320             -5.785805            -3.279945
| 63>   H                    : 6.199272             -6.152955            -2.356879
| 64>   H                    : 4.910016             -4.863904            -1.771712
| 65>   C                      3.680089             -2.891072            -5.754529
| 66>   O                      4.708801             -2.510868            -4.915442
| 67>   H                      4.904022             -1.557423            -4.987716
| 68>   H                      3.258538             -2.075596            -6.336842
| 69>   H                      3.851655             -3.787714            -6.399860
| 70>   H                      2.863482             -3.084857            -5.079649
| 71> *
| 72>
| 73>                          ****END OF INPUT****
 Total Charge           Charge          ....    0
 Multiplicity           Mult            ....    1
 Number of Electrons    NEL             ....   36
Dispersion correction           -0.001731941
FINAL SINGLE POINT ENERGY      -231.467386581022
Dispersion correction           -0.000300120
FINAL SINGLE POINT ENERGY      -115.730303120121

CARTESIAN COORDINATES (ANGSTROEM)
---------------------------------
  C      5.509219   -5.286384   -2.629828
  O      6.356411   -4.322206   -3.312786
  H      5.806492   -3.659072   -3.753185
  H      4.710320   -5.785805   -3.279945
  H      6.199272   -6.152955   -2.356879
  H      4.910016   -4.863904   -1.771712
  C      3.680089   -2.891072   -5.754529
  O      4.708801   -2.510868   -4.915442
  H      4.904022   -1.557423   -4.987716
  H      3.258538   -2.075596   -6.336842
  H      3.851655   -3.787714   -6.399860
  H      2.863482   -3.084857   -5.079649

 Multiplicity           Mult            ....    1
 Number of Electrons    NEL             ....   18
 Basis Dimension        Dim             ....  172

ORBITAL ENERGIES
----------------

  NO   OCC          E(Eh)            E(eV)
   0   2.0000     -19.230238      -523.2814
   1   2.0000     -10.309302      -280.5304
   2   2.0000      -1.142140       -31.0792
   3   2.0000      -0.794963       -21.6320
   4   2.0000      -0.619688       -16.8626
   5   2.0000      -0.545515       -14.8442
   6   2.0000      -0.527268       -14.3477
   7   2.0000      -0.427538       -11.6339
   8   2.0000      -0.367854       -10.0098
   9   0.0000       0.096686         2.6310
  10   0.0000       0.120600         3.2817
  11   0.0000       0.150999         4.1089
  12   0.0000       0.189200         5.1484
  13   0.0000       0.196970         5.3598

MULLIKEN ATOMIC CHARGES
-----------------------
   0 C :    0.000057
   1 O :   -0.000631
   2 H :   -0.008602
   3 H :    0.000059
   4 H :   -0.000068
   5 H :   -0.000263
   6 C :   -0.161797
   7 O :   -0.474842
   8 H :    0.321278
   9 H :    0.105180
  10 H :    0.111314
  11 H :    0.108315
Sum of atomic charges:    0.0000000

LOEWDIN ATOMIC CHARGES
----------------------
   0 C :   -0.001697
   1 O :   -0.004573
   2 H :   -0.041100
   3 H :   -0.000092
   4 H :   -0.000030
   5 H :   -0.000103
   6 C :   -0.413125
   7 O :   -0.023246
   8 H :    0.181928
   9 H :    0.096913
  10 H :    0.106796
  11 H :    0.098329

  Mayer bond orders larger than 0.1
B(  6-C ,  7-O ) :   0.9911 B(  6-C ,  9-H ) :   0.9751 B(  6-C , 10-H ) :   0.9692
B(  6-C , 11-H ) :   0.9862 B(  7-O ,  8-H ) :   0.8900

Dispersion correction           -0.000241812
FINAL SINGLE POINT ENERGY      -115.728820572271

DIPOLE MOMENT
-------------
                                X             Y             Z
Electronic contribution:      1.49820       0.35725       1.02160
Nuclear contribution   :     -1.79099       0.15817      -1.39060
                        -----------------------------------------
Total Dipole Moment    :     -0.29280       0.51542      -0.36900
                        -----------------------------------------
Magnitude (a.u.)       :      0.69825
Magnitude (Debye)      :      1.77481

Rotational constants in cm-1:     4.390518     0.856177     0.823162
Rotational constants in MHz : 131624.414616 25667.555492 24677.766495

                             ****ORCA TERMINATED NORMALLY****
TOTAL RUN TIME: 0 days 0 hours 0 minutes 59 seconds 915 msec
