                         Program Version 4.1.2  - RELEASE  -
|  1> #Run DFT-D3 single point of the dimer
|  2> ! wB97X-D3 def2-TZVP TIGHTSCF CHELPG PMODEL PAL8
|  3>
|  4> %base "5-77_DFT_AB"
|  5>
|  6> %scf
|  7> MaxIter 1000
|  8> end
|  9>
| 10> * xyz 0 1
| 11>   C                      -1.179900            -8.638037            -6.948018
| 12>   O                      -1.535437            -7.599694            -7.826611
| 13>   H                      -1.999492            -7.996814            -8.546439
| 14>   H                      -1.140443            -8.346784            -5.893805
| 15>   H                      -1.993029            -9.398908            -7.027883
| 16>   H                      -0.248926            -9.165004            -7.282007
| 17>   C                      -1.049376            -6.741063            -1.692879
| 18>   O                      -1.129249            -7.289579            -2.969097
| 19>   H                      -0.229527            -7.260778            -3.337332
| 20>   H                      -1.107026            -5.652595            -1.728562
| 21>   H                      -1.851212            -7.119840            -1.114587
| 22>   H                      -0.121948            -7.036954            -1.131693
| 23> *
| 24>
| 25> #Run DFT-D3 single point of the molecule with dimer basis set
| 26> $new_job
| 27> %base "5-77_DFT_A"
| 28> ! wB97X-D3 def2-TZVP TIGHTSCF CHELPG PMODEL
| 29>
| 30> %scf
| 31> MaxIter 1000
| 32> end
| 33>
| 34> * xyz 0 1
| 35>   C                      -1.179900            -8.638037            -6.948018
| 36>   O                      -1.535437            -7.599694            -7.826611
| 37>   H                      -1.999492            -7.996814            -8.546439
| 38>   H                      -1.140443            -8.346784            -5.893805
| 39>   H                      -1.993029            -9.398908            -7.027883
| 40>   H                      -0.248926            -9.165004            -7.282007
| 41>   C                    : -1.049376            -6.741063            -1.692879
| 42>   O                    : -1.129249            -7.289579            -2.969097
| 43>   H                    : -0.229527            -7.260778            -3.337332
| 44>   H                    : -1.107026            -5.652595            -1.728562
| 45>   H                    : -1.851212            -7.119840            -1.114587
| 46>   H                    : -0.121948            -7.036954            -1.131693
| 47> *
| 48>
| 49> #Run DFT-D3 single point of the particle with dimer basis set
| 50> $new_job
| 51> %base "5-77_DFT_B"
| 52> ! wB97X-D3 def2-TZVP TIGHTSCF CHELPG PMODEL
| 53>
| 54> %scf
| 55> MaxIter 1000
| 56> end
| 57>
| 58> * xyz 0 1
| 59>   C                    : -1.179900            -8.638037            -6.948018
| 60>   O                    : -1.535437            -7.599694            -7.826611
| 61>   H                    : -1.999492            -7.996814            -8.546439
| 62>   H                    : -1.140443            -8.346784            -5.893805
| 63>   H                    : -1.993029            -9.398908            -7.027883
| 64>   H                    : -0.248926            -9.165004            -7.282007
| 65>   C                      -1.049376            -6.741063            -1.692879
| 66>   O                      -1.129249            -7.289579            -2.969097
| 67>   H                      -0.229527            -7.260778            -3.337332
| 68>   H                      -1.107026            -5.652595            -1.728562
| 69>   H                      -1.851212            -7.119840            -1.114587
| 70>   H                      -0.121948            -7.036954            -1.131693
| 71> *
| 72>
| 73>                          ****END OF INPUT****
 Total Charge           Charge          ....    0
 Multiplicity           Mult            ....    1
 Number of Electrons    NEL             ....   36
Dispersion correction           -0.000929688
FINAL SINGLE POINT ENERGY      -231.468542672300
Dispersion correction           -0.000232871
FINAL SINGLE POINT ENERGY      -115.732627506342

CARTESIAN COORDINATES (ANGSTROEM)
---------------------------------
  C     -1.179900   -8.638037   -6.948018
  O     -1.535437   -7.599694   -7.826611
  H     -1.999492   -7.996814   -8.546439
  H     -1.140443   -8.346784   -5.893805
  H     -1.993029   -9.398908   -7.027883
  H     -0.248926   -9.165004   -7.282007
  C     -1.049376   -6.741063   -1.692879
  O     -1.129249   -7.289579   -2.969097
  H     -0.229527   -7.260778   -3.337332
  H     -1.107026   -5.652595   -1.728562
  H     -1.851212   -7.119840   -1.114587
  H     -0.121948   -7.036954   -1.131693

 Multiplicity           Mult            ....    1
 Number of Electrons    NEL             ....   18
 Basis Dimension        Dim             ....  172

ORBITAL ENERGIES
----------------

  NO   OCC          E(Eh)            E(eV)
   0   2.0000     -19.231884      -523.3262
   1   2.0000     -10.309491      -280.5355
   2   2.0000      -1.142420       -31.0868
   3   2.0000      -0.794030       -21.6067
   4   2.0000      -0.612457       -16.6658
   5   2.0000      -0.547455       -14.8970
   6   2.0000      -0.528850       -14.3907
   7   2.0000      -0.433218       -11.7885
   8   2.0000      -0.373393       -10.1605
   9   0.0000       0.090325         2.4579
  10   0.0000       0.115438         3.1412
  11   0.0000       0.152955         4.1621
  12   0.0000       0.179277         4.8784
  13   0.0000       0.197149         5.3647

MULLIKEN ATOMIC CHARGES
-----------------------
   0 C :    0.001052
   1 O :    0.000042
   2 H :    0.000006
   3 H :   -0.003987
   4 H :   -0.000053
   5 H :   -0.000021
   6 C :   -0.169744
   7 O :   -0.465882
   8 H :    0.319714
   9 H :    0.099893
  10 H :    0.121364
  11 H :    0.097618
Sum of atomic charges:    0.0000000

LOEWDIN ATOMIC CHARGES
----------------------
   0 C :   -0.000617
   1 O :   -0.000011
   2 H :   -0.000001
   3 H :   -0.002216
   4 H :   -0.000005
   5 H :   -0.000003
   6 C :   -0.404139
   7 O :   -0.065176
   8 H :    0.180079
   9 H :    0.092931
  10 H :    0.099591
  11 H :    0.099566

  Mayer bond orders larger than 0.1
B(  6-C ,  7-O ) :   1.0014 B(  6-C ,  9-H ) :   0.9745 B(  6-C , 10-H ) :   0.9763
B(  6-C , 11-H ) :   0.9788 B(  7-O ,  8-H ) :   0.8947

Dispersion correction           -0.000231423
FINAL SINGLE POINT ENERGY      -115.735157574497

DIPOLE MOMENT
-------------
                                X             Y             Z
Electronic contribution:     -0.29140      -0.72967      -1.67457
Nuclear contribution   :      0.87676       0.93692       1.93874
                        -----------------------------------------
Total Dipole Moment    :      0.58536       0.20725       0.26417
                        -----------------------------------------
Magnitude (a.u.)       :      0.67482
Magnitude (Debye)      :      1.71525

Rotational constants in cm-1:     4.283413     0.852948     0.824808
Rotational constants in MHz : 128413.500021 25570.734384 24727.117719

                             ****ORCA TERMINATED NORMALLY****
TOTAL RUN TIME: 0 days 0 hours 1 minutes 2 seconds 326 msec
