                         Program Version 4.1.2  - RELEASE  -
|  1> #Run DFT-D3 single point of the dimer
|  2> ! wB97X-D3 def2-TZVP TIGHTSCF CHELPG PMODEL PAL8
|  3>
|  4> %base "20-180_DFT_AB"
|  5>
|  6> %scf
|  7> MaxIter 1000
|  8> end
|  9>
| 10> * xyz 0 1
| 11>   C                      9.233327             -0.528763            -4.361532
| 12>   O                      9.761373             -0.754829            -3.092881
| 13>   H                      10.513552            -0.142675            -2.990355
| 14>   H                      8.569565             -1.431907            -4.631356
| 15>   H                      8.690811             0.403372             -4.442943
| 16>   H                      10.105521            -0.462022            -5.026567
| 17>   C                      10.465747            2.642601             -3.006390
| 18>   O                      11.365031            1.578863             -3.139401
| 19>   H                      12.139437            1.915457             -3.631726
| 20>   H                      9.537111             2.306168             -2.554527
| 21>   H                      10.851904            3.486465             -2.475135
| 22>   H                      10.167365            2.986200             -4.020478
| 23> *
| 24>
| 25> #Run DFT-D3 single point of the molecule with dimer basis set
| 26> $new_job
| 27> %base "20-180_DFT_A"
| 28> ! wB97X-D3 def2-TZVP TIGHTSCF CHELPG PMODEL
| 29>
| 30> %scf
| 31> MaxIter 1000
| 32> end
| 33>
| 34> * xyz 0 1
| 35>   C                      9.233327             -0.528763            -4.361532
| 36>   O                      9.761373             -0.754829            -3.092881
| 37>   H                      10.513552            -0.142675            -2.990355
| 38>   H                      8.569565             -1.431907            -4.631356
| 39>   H                      8.690811             0.403372             -4.442943
| 40>   H                      10.105521            -0.462022            -5.026567
| 41>   C                    : 10.465747            2.642601             -3.006390
| 42>   O                    : 11.365031            1.578863             -3.139401
| 43>   H                    : 12.139437            1.915457             -3.631726
| 44>   H                    : 9.537111             2.306168             -2.554527
| 45>   H                    : 10.851904            3.486465             -2.475135
| 46>   H                    : 10.167365            2.986200             -4.020478
| 47> *
| 48>
| 49> #Run DFT-D3 single point of the particle with dimer basis set
| 50> $new_job
| 51> %base "20-180_DFT_B"
| 52> ! wB97X-D3 def2-TZVP TIGHTSCF CHELPG PMODEL
| 53>
| 54> %scf
| 55> MaxIter 1000
| 56> end
| 57>
| 58> * xyz 0 1
| 59>   C                    : 9.233327             -0.528763            -4.361532
| 60>   O                    : 9.761373             -0.754829            -3.092881
| 61>   H                    : 10.513552            -0.142675            -2.990355
| 62>   H                    : 8.569565             -1.431907            -4.631356
| 63>   H                    : 8.690811             0.403372             -4.442943
| 64>   H                    : 10.105521            -0.462022            -5.026567
| 65>   C                      10.465747            2.642601             -3.006390
| 66>   O                      11.365031            1.578863             -3.139401
| 67>   H                      12.139437            1.915457             -3.631726
| 68>   H                      9.537111             2.306168             -2.554527
| 69>   H                      10.851904            3.486465             -2.475135
| 70>   H                      10.167365            2.986200             -4.020478
| 71> *
| 72>
| 73>                          ****END OF INPUT****
 Total Charge           Charge          ....    0
 Multiplicity           Mult            ....    1
 Number of Electrons    NEL             ....   36
Dispersion correction           -0.002319312
FINAL SINGLE POINT ENERGY      -231.477033456971
Dispersion correction           -0.000218712
FINAL SINGLE POINT ENERGY      -115.732315201181

CARTESIAN COORDINATES (ANGSTROEM)
---------------------------------
  C      9.233327   -0.528763   -4.361532
  O      9.761373   -0.754829   -3.092881
  H     10.513552   -0.142675   -2.990355
  H      8.569565   -1.431907   -4.631356
  H      8.690811    0.403372   -4.442943
  H     10.105521   -0.462022   -5.026567
  C     10.465747    2.642601   -3.006390
  O     11.365031    1.578863   -3.139401
  H     12.139437    1.915457   -3.631726
  H      9.537111    2.306168   -2.554527
  H     10.851904    3.486465   -2.475135
  H     10.167365    2.986200   -4.020478

 Multiplicity           Mult            ....    1
 Number of Electrons    NEL             ....   18
 Basis Dimension        Dim             ....  172

ORBITAL ENERGIES
----------------

  NO   OCC          E(Eh)            E(eV)
   0   2.0000     -19.232780      -523.3505
   1   2.0000     -10.309960      -280.5483
   2   2.0000      -1.138728       -30.9864
   3   2.0000      -0.794644       -21.6234
   4   2.0000      -0.612508       -16.6672
   5   2.0000      -0.544761       -14.8237
   6   2.0000      -0.530152       -14.4262
   7   2.0000      -0.433548       -11.7974
   8   2.0000      -0.372470       -10.1354
   9   0.0000       0.095715         2.6045
  10   0.0000       0.128472         3.4959
  11   0.0000       0.153363         4.1732
  12   0.0000       0.182369         4.9625
  13   0.0000       0.199198         5.4205

MULLIKEN ATOMIC CHARGES
-----------------------
   0 C :    0.009831
   1 O :   -0.001306
   2 H :   -0.007647
   3 H :   -0.000118
   4 H :   -0.001440
   5 H :   -0.007713
   6 C :   -0.158515
   7 O :   -0.466398
   8 H :    0.313892
   9 H :    0.117486
  10 H :    0.109459
  11 H :    0.092467
Sum of atomic charges:    0.0000000

LOEWDIN ATOMIC CHARGES
----------------------
   0 C :   -0.008916
   1 O :   -0.004742
   2 H :   -0.039626
   3 H :   -0.000090
   4 H :   -0.001362
   5 H :   -0.002907
   6 C :   -0.391185
   7 O :   -0.028845
   8 H :    0.181139
   9 H :    0.108988
  10 H :    0.089984
  11 H :    0.097563

  Mayer bond orders larger than 0.1
B(  6-C ,  7-O ) :   0.9870 B(  6-C ,  9-H ) :   0.9774 B(  6-C , 10-H ) :   0.9675
B(  6-C , 11-H ) :   0.9839 B(  7-O ,  8-H ) :   0.8944

Dispersion correction           -0.000228043
FINAL SINGLE POINT ENERGY      -115.735737211092

DIPOLE MOMENT
-------------
                                X             Y             Z
Electronic contribution:      1.12635      -1.45614       0.04390
Nuclear contribution   :     -0.99576       2.08687      -0.28970
                        -----------------------------------------
Total Dipole Moment    :      0.13059       0.63074      -0.24579
                        -----------------------------------------
Magnitude (a.u.)       :      0.68942
Magnitude (Debye)      :      1.75236

Rotational constants in cm-1:     4.311414     0.845512     0.814158
Rotational constants in MHz : 129252.934780 25347.797531 24407.840024

                             ****ORCA TERMINATED NORMALLY****
TOTAL RUN TIME: 0 days 0 hours 1 minutes 10 seconds 665 msec
