                         Program Version 4.1.2  - RELEASE  -
|  1> #Run DFT-D3 single point of the dimer
|  2> ! wB97X-D3 def2-TZVP TIGHTSCF CHELPG PMODEL PAL8
|  3>
|  4> %base "2-93_DFT_AB"
|  5>
|  6> %scf
|  7> MaxIter 1000
|  8> end
|  9>
| 10> * xyz 0 1
| 11>   C                      10.131559            -0.929883            -3.069840
| 12>   O                      8.749478             -0.835584            -3.413896
| 13>   H                      8.295501             -1.609561            -3.197512
| 14>   H                      10.881002            -1.133662            -3.916814
| 15>   H                      10.518113            -0.027949            -2.527007
| 16>   H                      10.152257            -1.698416            -2.209900
| 17>   C                      8.088401             1.207706             0.125048
| 18>   O                      6.880566             0.723944             0.725348
| 19>   H                      6.327736             0.306026             0.042389
| 20>   H                      7.969318             1.287649             -1.015837
| 21>   H                      8.502525             2.181685             0.544458
| 22>   H                      8.970427             0.581518             0.385500
| 23> *
| 24>
| 25> #Run DFT-D3 single point of the molecule with dimer basis set
| 26> $new_job
| 27> %base "2-93_DFT_A"
| 28> ! wB97X-D3 def2-TZVP TIGHTSCF CHELPG PMODEL
| 29>
| 30> %scf
| 31> MaxIter 1000
| 32> end
| 33>
| 34> * xyz 0 1
| 35>   C                      10.131559            -0.929883            -3.069840
| 36>   O                      8.749478             -0.835584            -3.413896
| 37>   H                      8.295501             -1.609561            -3.197512
| 38>   H                      10.881002            -1.133662            -3.916814
| 39>   H                      10.518113            -0.027949            -2.527007
| 40>   H                      10.152257            -1.698416            -2.209900
| 41>   C                    : 8.088401             1.207706             0.125048
| 42>   O                    : 6.880566             0.723944             0.725348
| 43>   H                    : 6.327736             0.306026             0.042389
| 44>   H                    : 7.969318             1.287649             -1.015837
| 45>   H                    : 8.502525             2.181685             0.544458
| 46>   H                    : 8.970427             0.581518             0.385500
| 47> *
| 48>
| 49> #Run DFT-D3 single point of the particle with dimer basis set
| 50> $new_job
| 51> %base "2-93_DFT_B"
| 52> ! wB97X-D3 def2-TZVP TIGHTSCF CHELPG PMODEL
| 53>
| 54> %scf
| 55> MaxIter 1000
| 56> end
| 57>
| 58> * xyz 0 1
| 59>   C                    : 10.131559            -0.929883            -3.069840
| 60>   O                    : 8.749478             -0.835584            -3.413896
| 61>   H                    : 8.295501             -1.609561            -3.197512
| 62>   H                    : 10.881002            -1.133662            -3.916814
| 63>   H                    : 10.518113            -0.027949            -2.527007
| 64>   H                    : 10.152257            -1.698416            -2.209900
| 65>   C                      8.088401             1.207706             0.125048
| 66>   O                      6.880566             0.723944             0.725348
| 67>   H                      6.327736             0.306026             0.042389
| 68>   H                      7.969318             1.287649             -1.015837
| 69>   H                      8.502525             2.181685             0.544458
| 70>   H                      8.970427             0.581518             0.385500
| 71> *
| 72>
| 73>                          ****END OF INPUT****
 Total Charge           Charge          ....    0
 Multiplicity           Mult            ....    1
 Number of Electrons    NEL             ....   36
Dispersion correction           -0.001447830
FINAL SINGLE POINT ENERGY      -231.453419297435
Dispersion correction           -0.000278317
FINAL SINGLE POINT ENERGY      -115.724441544774

CARTESIAN COORDINATES (ANGSTROEM)
---------------------------------
  C     10.131559   -0.929883   -3.069840
  O      8.749478   -0.835584   -3.413896
  H      8.295501   -1.609561   -3.197512
  H     10.881002   -1.133662   -3.916814
  H     10.518113   -0.027949   -2.527007
  H     10.152257   -1.698416   -2.209900
  C      8.088401    1.207706    0.125048
  O      6.880566    0.723944    0.725348
  H      6.327736    0.306026    0.042389
  H      7.969318    1.287649   -1.015837
  H      8.502525    2.181685    0.544458
  H      8.970427    0.581518    0.385500

 Multiplicity           Mult            ....    1
 Number of Electrons    NEL             ....   18
 Basis Dimension        Dim             ....  172

ORBITAL ENERGIES
----------------

  NO   OCC          E(Eh)            E(eV)
   0   2.0000     -19.234977      -523.4103
   1   2.0000     -10.328469      -281.0519
   2   2.0000      -1.129420       -30.7331
   3   2.0000      -0.789177       -21.4746
   4   2.0000      -0.605098       -16.4656
   5   2.0000      -0.539229       -14.6732
   6   2.0000      -0.517892       -14.0926
   7   2.0000      -0.431639       -11.7455
   8   2.0000      -0.370380       -10.0786
   9   0.0000       0.077147         2.0993
  10   0.0000       0.112538         3.0623
  11   0.0000       0.143033         3.8921
  12   0.0000       0.163974         4.4620
  13   0.0000       0.175585         4.7779

MULLIKEN ATOMIC CHARGES
-----------------------
   0 C :   -0.000506
   1 O :    0.000216
   2 H :    0.000023
   3 H :   -0.000042
   4 H :   -0.000759
   5 H :    0.000083
   6 C :   -0.179024
   7 O :   -0.470964
   8 H :    0.322072
   9 H :    0.107467
  10 H :    0.111960
  11 H :    0.109474
Sum of atomic charges:    0.0000000

LOEWDIN ATOMIC CHARGES
----------------------
   0 C :   -0.001333
   1 O :   -0.000378
   2 H :   -0.000091
   3 H :   -0.000009
   4 H :   -0.000771
   5 H :   -0.000163
   6 C :   -0.394188
   7 O :   -0.096430
   8 H :    0.177541
   9 H :    0.106686
  10 H :    0.110156
  11 H :    0.098982

  Mayer bond orders larger than 0.1
B(  6-C ,  7-O ) :   1.0129 B(  6-C ,  9-H ) :   0.9806 B(  6-C , 10-H ) :   0.9702
B(  6-C , 11-H ) :   0.9721 B(  7-O ,  8-H ) :   0.8940

Dispersion correction           -0.000284983
FINAL SINGLE POINT ENERGY      -115.727268365323

DIPOLE MOMENT
-------------
                                X             Y             Z
Electronic contribution:     -1.64973      -0.58914       0.90119
Nuclear contribution   :      1.77592       0.51441      -1.56601
                        -----------------------------------------
Total Dipole Moment    :      0.12619      -0.07474      -0.66482
                        -----------------------------------------
Magnitude (a.u.)       :      0.68081
Magnitude (Debye)      :      1.73048

Rotational constants in cm-1:     4.173905     0.801094     0.758975
Rotational constants in MHz : 125130.535735 24016.208247 22753.493453

                             ****ORCA TERMINATED NORMALLY****
TOTAL RUN TIME: 0 days 0 hours 6 minutes 13 seconds 648 msec
