                         Program Version 4.1.2  - RELEASE  -
|  1> #Run DFT-D3 single point of the dimer
|  2> ! wB97X-D3 def2-TZVP TIGHTSCF CHELPG PMODEL PAL8
|  3>
|  4> %base "7-100_DFT_AB"
|  5>
|  6> %scf
|  7> MaxIter 1000
|  8> end
|  9>
| 10> * xyz 0 1
| 11>   C                      9.977652             -2.198286            -7.359169
| 12>   O                      11.412398            -2.219645            -7.354476
| 13>   H                      11.773627            -1.911416            -6.524812
| 14>   H                      9.486885             -2.938841            -6.747138
| 15>   H                      9.553607             -1.262547            -7.091710
| 16>   H                      9.519030             -2.212074            -8.322583
| 17>   C                      8.034891             -1.920897            -4.227708
| 18>   O                      7.002799             -2.793899            -3.753995
| 19>   H                      6.599531             -2.342380            -3.017579
| 20>   H                      9.101493             -2.307830            -4.128020
| 21>   H                      7.804135             -1.642100            -5.314984
| 22>   H                      8.083088             -0.956332            -3.709270
| 23> *
| 24>
| 25> #Run DFT-D3 single point of the molecule with dimer basis set
| 26> $new_job
| 27> %base "7-100_DFT_A"
| 28> ! wB97X-D3 def2-TZVP TIGHTSCF CHELPG PMODEL
| 29>
| 30> %scf
| 31> MaxIter 1000
| 32> end
| 33>
| 34> * xyz 0 1
| 35>   C                      9.977652             -2.198286            -7.359169
| 36>   O                      11.412398            -2.219645            -7.354476
| 37>   H                      11.773627            -1.911416            -6.524812
| 38>   H                      9.486885             -2.938841            -6.747138
| 39>   H                      9.553607             -1.262547            -7.091710
| 40>   H                      9.519030             -2.212074            -8.322583
| 41>   C                    : 8.034891             -1.920897            -4.227708
| 42>   O                    : 7.002799             -2.793899            -3.753995
| 43>   H                    : 6.599531             -2.342380            -3.017579
| 44>   H                    : 9.101493             -2.307830            -4.128020
| 45>   H                    : 7.804135             -1.642100            -5.314984
| 46>   H                    : 8.083088             -0.956332            -3.709270
| 47> *
| 48>
| 49> #Run DFT-D3 single point of the particle with dimer basis set
| 50> $new_job
| 51> %base "7-100_DFT_B"
| 52> ! wB97X-D3 def2-TZVP TIGHTSCF CHELPG PMODEL
| 53>
| 54> %scf
| 55> MaxIter 1000
| 56> end
| 57>
| 58> * xyz 0 1
| 59>   C                    : 9.977652             -2.198286            -7.359169
| 60>   O                    : 11.412398            -2.219645            -7.354476
| 61>   H                    : 11.773627            -1.911416            -6.524812
| 62>   H                    : 9.486885             -2.938841            -6.747138
| 63>   H                    : 9.553607             -1.262547            -7.091710
| 64>   H                    : 9.519030             -2.212074            -8.322583
| 65>   C                      8.034891             -1.920897            -4.227708
| 66>   O                      7.002799             -2.793899            -3.753995
| 67>   H                      6.599531             -2.342380            -3.017579
| 68>   H                      9.101493             -2.307830            -4.128020
| 69>   H                      7.804135             -1.642100            -5.314984
| 70>   H                      8.083088             -0.956332            -3.709270
| 71> *
| 72>
| 73>                          ****END OF INPUT****
 Total Charge           Charge          ....    0
 Multiplicity           Mult            ....    1
 Number of Electrons    NEL             ....   36
Dispersion correction           -0.001693023
FINAL SINGLE POINT ENERGY      -231.458347586823
Dispersion correction           -0.000275830
FINAL SINGLE POINT ENERGY      -115.727540314557

CARTESIAN COORDINATES (ANGSTROEM)
---------------------------------
  C      9.977652   -2.198286   -7.359169
  O     11.412398   -2.219645   -7.354476
  H     11.773627   -1.911416   -6.524812
  H      9.486885   -2.938841   -6.747138
  H      9.553607   -1.262547   -7.091710
  H      9.519030   -2.212074   -8.322583
  C      8.034891   -1.920897   -4.227708
  O      7.002799   -2.793899   -3.753995
  H      6.599531   -2.342380   -3.017579
  H      9.101493   -2.307830   -4.128020
  H      7.804135   -1.642100   -5.314984
  H      8.083088   -0.956332   -3.709270

 Multiplicity           Mult            ....    1
 Number of Electrons    NEL             ....   18
 Basis Dimension        Dim             ....  172

ORBITAL ENERGIES
----------------

  NO   OCC          E(Eh)            E(eV)
   0   2.0000     -19.234438      -523.3957
   1   2.0000     -10.325565      -280.9729
   2   2.0000      -1.135810       -30.9070
   3   2.0000      -0.789672       -21.4881
   4   2.0000      -0.613228       -16.6868
   5   2.0000      -0.533315       -14.5122
   6   2.0000      -0.517379       -14.0786
   7   2.0000      -0.435760       -11.8576
   8   2.0000      -0.376449       -10.2437
   9   0.0000       0.085645         2.3305
  10   0.0000       0.114912         3.1269
  11   0.0000       0.154820         4.2129
  12   0.0000       0.158053         4.3008
  13   0.0000       0.186537         5.0759

MULLIKEN ATOMIC CHARGES
-----------------------
   0 C :   -0.001901
   1 O :    0.000064
   2 H :   -0.000016
   3 H :    0.001782
   4 H :   -0.000444
   5 H :   -0.000222
   6 C :   -0.194841
   7 O :   -0.460636
   8 H :    0.316567
   9 H :    0.111448
  10 H :    0.114538
  11 H :    0.113660
Sum of atomic charges:   -0.0000000

LOEWDIN ATOMIC CHARGES
----------------------
   0 C :   -0.007611
   1 O :   -0.000030
   2 H :   -0.000116
   3 H :   -0.003541
   4 H :   -0.003048
   5 H :   -0.000080
   6 C :   -0.386612
   7 O :   -0.083907
   8 H :    0.165854
   9 H :    0.108754
  10 H :    0.114754
  11 H :    0.095583

  Mayer bond orders larger than 0.1
B(  6-C ,  7-O ) :   1.0098 B(  6-C ,  9-H ) :   0.9653 B(  6-C , 10-H ) :   0.9733
B(  6-C , 11-H ) :   0.9752 B(  7-O ,  8-H ) :   0.9015

Dispersion correction           -0.000277999
FINAL SINGLE POINT ENERGY      -115.730478797006

DIPOLE MOMENT
-------------
                                X             Y             Z
Electronic contribution:     -1.34525      -1.32292       0.59870
Nuclear contribution   :      1.47438       1.98585      -0.27678
                        -----------------------------------------
Total Dipole Moment    :      0.12913       0.66293       0.32192
                        -----------------------------------------
Magnitude (a.u.)       :      0.74819
Magnitude (Debye)      :      1.90175

Rotational constants in cm-1:     4.181162     0.796299     0.778138
Rotational constants in MHz : 125348.074568 23872.450638 23327.989133

                             ****ORCA TERMINATED NORMALLY****
TOTAL RUN TIME: 0 days 0 hours 1 minutes 10 seconds 742 msec
