                         Program Version 4.1.2  - RELEASE  -
|  1> #Run DFT-D3 single point of the dimer
|  2> ! wB97X-D3 def2-TZVP TIGHTSCF CHELPG PMODEL PAL8
|  3>
|  4> %base "12-152_DFT_AB"
|  5>
|  6> %scf
|  7> MaxIter 1000
|  8> end
|  9>
| 10> * xyz 0 1
| 11>   C                      -7.007349            -1.144649            3.500469
| 12>   O                      -8.062539            -2.026212            3.825962
| 13>   H                      -8.047566            -2.332672            4.734233
| 14>   H                      -7.376395            -0.294412            2.890347
| 15>   H                      -6.574996            -0.687482            4.454638
| 16>   H                      -6.225119            -1.631320            2.828627
| 17>   C                      -11.080017           -0.871185            3.257404
| 18>   O                      -10.361286           -1.402677            2.164674
| 19>   H                      -9.749079            -2.027279            2.644126
| 20>   H                      -10.470056           -0.077454            3.599917
| 21>   H                      -12.139159           -0.623412            2.937376
| 22>   H                      -11.228174           -1.632528            4.075493
| 23> *
| 24>
| 25> #Run DFT-D3 single point of the molecule with dimer basis set
| 26> $new_job
| 27> %base "12-152_DFT_A"
| 28> ! wB97X-D3 def2-TZVP TIGHTSCF CHELPG PMODEL
| 29>
| 30> %scf
| 31> MaxIter 1000
| 32> end
| 33>
| 34> * xyz 0 1
| 35>   C                      -7.007349            -1.144649            3.500469
| 36>   O                      -8.062539            -2.026212            3.825962
| 37>   H                      -8.047566            -2.332672            4.734233
| 38>   H                      -7.376395            -0.294412            2.890347
| 39>   H                      -6.574996            -0.687482            4.454638
| 40>   H                      -6.225119            -1.631320            2.828627
| 41>   C                    : -11.080017           -0.871185            3.257404
| 42>   O                    : -10.361286           -1.402677            2.164674
| 43>   H                    : -9.749079            -2.027279            2.644126
| 44>   H                    : -10.470056           -0.077454            3.599917
| 45>   H                    : -12.139159           -0.623412            2.937376
| 46>   H                    : -11.228174           -1.632528            4.075493
| 47> *
| 48>
| 49> #Run DFT-D3 single point of the particle with dimer basis set
| 50> $new_job
| 51> %base "12-152_DFT_B"
| 52> ! wB97X-D3 def2-TZVP TIGHTSCF CHELPG PMODEL
| 53>
| 54> %scf
| 55> MaxIter 1000
| 56> end
| 57>
| 58> * xyz 0 1
| 59>   C                    : -7.007349            -1.144649            3.500469
| 60>   O                    : -8.062539            -2.026212            3.825962
| 61>   H                    : -8.047566            -2.332672            4.734233
| 62>   H                    : -7.376395            -0.294412            2.890347
| 63>   H                    : -6.574996            -0.687482            4.454638
| 64>   H                    : -6.225119            -1.631320            2.828627
| 65>   C                      -11.080017           -0.871185            3.257404
| 66>   O                      -10.361286           -1.402677            2.164674
| 67>   H                      -9.749079            -2.027279            2.644126
| 68>   H                      -10.470056           -0.077454            3.599917
| 69>   H                      -12.139159           -0.623412            2.937376
| 70>   H                      -11.228174           -1.632528            4.075493
| 71> *
| 72>
| 73>                          ****END OF INPUT****
 Total Charge           Charge          ....    0
 Multiplicity           Mult            ....    1
 Number of Electrons    NEL             ....   36
Dispersion correction           -0.002123859
FINAL SINGLE POINT ENERGY      -231.467330601219
Dispersion correction           -0.000273794
FINAL SINGLE POINT ENERGY      -115.731773905822

CARTESIAN COORDINATES (ANGSTROEM)
---------------------------------
  C     -7.007349   -1.144649    3.500469
  O     -8.062539   -2.026212    3.825962
  H     -8.047566   -2.332672    4.734233
  H     -7.376395   -0.294412    2.890347
  H     -6.574996   -0.687482    4.454638
  H     -6.225119   -1.631320    2.828627
  C    -11.080017   -0.871185    3.257404
  O    -10.361286   -1.402677    2.164674
  H     -9.749079   -2.027279    2.644126
  H    -10.470056   -0.077454    3.599917
  H    -12.139159   -0.623412    2.937376
  H    -11.228174   -1.632528    4.075493

 Multiplicity           Mult            ....    1
 Number of Electrons    NEL             ....   18
 Basis Dimension        Dim             ....  172

ORBITAL ENERGIES
----------------

  NO   OCC          E(Eh)            E(eV)
   0   2.0000     -19.233330      -523.3655
   1   2.0000     -10.316787      -280.7340
   2   2.0000      -1.135813       -30.9070
   3   2.0000      -0.784196       -21.3391
   4   2.0000      -0.604068       -16.4375
   5   2.0000      -0.559105       -15.2140
   6   2.0000      -0.514160       -13.9910
   7   2.0000      -0.433448       -11.7947
   8   2.0000      -0.373237       -10.1563
   9   0.0000       0.070425         1.9164
  10   0.0000       0.127652         3.4736
  11   0.0000       0.151600         4.1253
  12   0.0000       0.162563         4.4236
  13   0.0000       0.184569         5.0224

MULLIKEN ATOMIC CHARGES
-----------------------
   0 C :   -0.003106
   1 O :   -0.004100
   2 H :   -0.000205
   3 H :   -0.002496
   4 H :   -0.000042
   5 H :    0.000313
   6 C :   -0.182255
   7 O :   -0.459474
   8 H :    0.316810
   9 H :    0.116223
  10 H :    0.118505
  11 H :    0.099826
Sum of atomic charges:   -0.0000000

LOEWDIN ATOMIC CHARGES
----------------------
   0 C :   -0.005431
   1 O :   -0.016427
   2 H :   -0.000936
   3 H :   -0.001845
   4 H :   -0.000071
   5 H :   -0.000081
   6 C :   -0.396685
   7 O :   -0.083364
   8 H :    0.199906
   9 H :    0.091057
  10 H :    0.114088
  11 H :    0.099789

  Mayer bond orders larger than 0.1
B(  6-C ,  7-O ) :   0.9930 B(  6-C ,  9-H ) :   0.9793 B(  6-C , 10-H ) :   0.9704
B(  6-C , 11-H ) :   0.9836 B(  7-O ,  8-H ) :   0.9008

Dispersion correction           -0.000212839
FINAL SINGLE POINT ENERGY      -115.727467719397

DIPOLE MOMENT
-------------
                                X             Y             Z
Electronic contribution:      0.82420      -0.45659      -1.52383
Nuclear contribution   :     -0.74012       0.27400       2.22574
                        -----------------------------------------
Total Dipole Moment    :      0.08408      -0.18259       0.70191
                        -----------------------------------------
Magnitude (a.u.)       :      0.73013
Magnitude (Debye)      :      1.85585

Rotational constants in cm-1:     4.009214     0.847513     0.814939
Rotational constants in MHz : 120193.223114 25407.810335 24431.265078

                             ****ORCA TERMINATED NORMALLY****
TOTAL RUN TIME: 0 days 0 hours 1 minutes 16 seconds 359 msec
