                         Program Version 4.1.2  - RELEASE  -
|  1> #Run DFT-D3 single point of the dimer
|  2> ! wB97X-D3 def2-TZVP TIGHTSCF CHELPG PMODEL PAL8
|  3>
|  4> %base "17-26_DFT_AB"
|  5>
|  6> %scf
|  7> MaxIter 1000
|  8> end
|  9>
| 10> * xyz 0 1
| 11>   C                      -1.552654            -0.347999            4.263472
| 12>   O                      -0.675985            -0.786314            3.238730
| 13>   H                      -1.311521            -0.903148            2.507645
| 14>   H                      -1.893925            0.644904             3.934240
| 15>   H                      -2.420135            -0.936720            4.503697
| 16>   H                      -1.047543            -0.169033            5.200596
| 17>   C                      -5.627778            -3.957055            4.148896
| 18>   O                      -6.325654            -5.194564            4.234933
| 19>   H                      -5.814133            -5.921400            3.824445
| 20>   H                      -6.307646            -3.150269            3.922174
| 21>   H                      -5.121940            -3.690074            5.074566
| 22>   H                      -4.861529            -3.989166            3.367635
| 23> *
| 24>
| 25> #Run DFT-D3 single point of the molecule with dimer basis set
| 26> $new_job
| 27> %base "17-26_DFT_A"
| 28> ! wB97X-D3 def2-TZVP TIGHTSCF CHELPG PMODEL
| 29>
| 30> %scf
| 31> MaxIter 1000
| 32> end
| 33>
| 34> * xyz 0 1
| 35>   C                      -1.552654            -0.347999            4.263472
| 36>   O                      -0.675985            -0.786314            3.238730
| 37>   H                      -1.311521            -0.903148            2.507645
| 38>   H                      -1.893925            0.644904             3.934240
| 39>   H                      -2.420135            -0.936720            4.503697
| 40>   H                      -1.047543            -0.169033            5.200596
| 41>   C                    : -5.627778            -3.957055            4.148896
| 42>   O                    : -6.325654            -5.194564            4.234933
| 43>   H                    : -5.814133            -5.921400            3.824445
| 44>   H                    : -6.307646            -3.150269            3.922174
| 45>   H                    : -5.121940            -3.690074            5.074566
| 46>   H                    : -4.861529            -3.989166            3.367635
| 47> *
| 48>
| 49> #Run DFT-D3 single point of the particle with dimer basis set
| 50> $new_job
| 51> %base "17-26_DFT_B"
| 52> ! wB97X-D3 def2-TZVP TIGHTSCF CHELPG PMODEL
| 53>
| 54> %scf
| 55> MaxIter 1000
| 56> end
| 57>
| 58> * xyz 0 1
| 59>   C                    : -1.552654            -0.347999            4.263472
| 60>   O                    : -0.675985            -0.786314            3.238730
| 61>   H                    : -1.311521            -0.903148            2.507645
| 62>   H                    : -1.893925            0.644904             3.934240
| 63>   H                    : -2.420135            -0.936720            4.503697
| 64>   H                    : -1.047543            -0.169033            5.200596
| 65>   C                      -5.627778            -3.957055            4.148896
| 66>   O                      -6.325654            -5.194564            4.234933
| 67>   H                      -5.814133            -5.921400            3.824445
| 68>   H                      -6.307646            -3.150269            3.922174
| 69>   H                      -5.121940            -3.690074            5.074566
| 70>   H                      -4.861529            -3.989166            3.367635
| 71> *
| 72>
| 73>                          ****END OF INPUT****
 Total Charge           Charge          ....    0
 Multiplicity           Mult            ....    1
 Number of Electrons    NEL             ....   36
Dispersion correction           -0.000688799
FINAL SINGLE POINT ENERGY      -231.465954795305
Dispersion correction           -0.000224197
FINAL SINGLE POINT ENERGY      -115.730802078926

CARTESIAN COORDINATES (ANGSTROEM)
---------------------------------
  C     -1.552654   -0.347999    4.263472
  O     -0.675985   -0.786314    3.238730
  H     -1.311521   -0.903148    2.507645
  H     -1.893925    0.644904    3.934240
  H     -2.420135   -0.936720    4.503697
  H     -1.047543   -0.169033    5.200596
  C     -5.627778   -3.957055    4.148896
  O     -6.325654   -5.194564    4.234933
  H     -5.814133   -5.921400    3.824445
  H     -6.307646   -3.150269    3.922174
  H     -5.121940   -3.690074    5.074566
  H     -4.861529   -3.989166    3.367635

 Multiplicity           Mult            ....    1
 Number of Electrons    NEL             ....   18
 Basis Dimension        Dim             ....  172

ORBITAL ENERGIES
----------------

  NO   OCC          E(Eh)            E(eV)
   0   2.0000     -19.230040      -523.2760
   1   2.0000     -10.312024      -280.6044
   2   2.0000      -1.127025       -30.6679
   3   2.0000      -0.797370       -21.6975
   4   2.0000      -0.608678       -16.5630
   5   2.0000      -0.536912       -14.6101
   6   2.0000      -0.530403       -14.4330
   7   2.0000      -0.429803       -11.6955
   8   2.0000      -0.372746       -10.1429
   9   0.0000       0.082164         2.2358
  10   0.0000       0.112513         3.0616
  11   0.0000       0.142433         3.8758
  12   0.0000       0.162328         4.4172
  13   0.0000       0.191669         5.2156

MULLIKEN ATOMIC CHARGES
-----------------------
   0 C :    0.000083
   1 O :   -0.000000
   2 H :   -0.000010
   3 H :   -0.000005
   4 H :   -0.000181
   5 H :   -0.000002
   6 C :   -0.154371
   7 O :   -0.487864
   8 H :    0.320385
   9 H :    0.118109
  10 H :    0.103355
  11 H :    0.100502
Sum of atomic charges:   -0.0000000

LOEWDIN ATOMIC CHARGES
----------------------
   0 C :   -0.000025
   1 O :   -0.000002
   2 H :   -0.000005
   3 H :   -0.000000
   4 H :   -0.000121
   5 H :   -0.000000
   6 C :   -0.375755
   7 O :   -0.095596
   8 H :    0.179100
   9 H :    0.101728
  10 H :    0.094804
  11 H :    0.095873

  Mayer bond orders larger than 0.1
B(  6-C ,  7-O ) :   1.0066 B(  6-C ,  9-H ) :   0.9744 B(  6-C , 10-H ) :   0.9736
B(  6-C , 11-H ) :   0.9856 B(  7-O ,  8-H ) :   0.8939

Dispersion correction           -0.000257608
FINAL SINGLE POINT ENERGY      -115.735061803521

DIPOLE MOMENT
-------------
                                X             Y             Z
Electronic contribution:     -1.01627      -1.51320       0.17821
Nuclear contribution   :      1.63516       1.55336      -0.49398
                        -----------------------------------------
Total Dipole Moment    :      0.61890       0.04017      -0.31577
                        -----------------------------------------
Magnitude (a.u.)       :      0.69596
Magnitude (Debye)      :      1.76899

Rotational constants in cm-1:     4.382014     0.816615     0.786084
Rotational constants in MHz : 131369.464976 24481.496286 23566.197413

                             ****ORCA TERMINATED NORMALLY****
TOTAL RUN TIME: 0 days 0 hours 0 minutes 52 seconds 825 msec
