                         Program Version 4.1.2  - RELEASE  -
|  1> #Run DFT-D3 single point of the dimer
|  2> ! wB97X-D3 def2-TZVP TIGHTSCF CHELPG PMODEL PAL8
|  3>
|  4> %base "20-64_DFT_AB"
|  5>
|  6> %scf
|  7> MaxIter 1000
|  8> end
|  9>
| 10> * xyz 0 1
| 11>   C                      0.659082             8.615269             -3.643497
| 12>   O                      0.571755             9.841283             -3.042450
| 13>   H                      0.633439             10.539445            -3.712564
| 14>   H                      1.490287             8.549697             -4.355124
| 15>   H                      0.762765             7.880298             -2.852222
| 16>   H                      -0.254403            8.351689             -4.285406
| 17>   C                      2.302825             5.372533             -7.243400
| 18>   O                      3.642213             4.939602             -6.990858
| 19>   H                      4.230001             5.532004             -7.423894
| 20>   H                      1.829396             4.900507             -8.072251
| 21>   H                      1.624187             5.072687             -6.452229
| 22>   H                      2.318800             6.441176             -7.319937
| 23> *
| 24>
| 25> #Run DFT-D3 single point of the molecule with dimer basis set
| 26> $new_job
| 27> %base "20-64_DFT_A"
| 28> ! wB97X-D3 def2-TZVP TIGHTSCF CHELPG PMODEL
| 29>
| 30> %scf
| 31> MaxIter 1000
| 32> end
| 33>
| 34> * xyz 0 1
| 35>   C                      0.659082             8.615269             -3.643497
| 36>   O                      0.571755             9.841283             -3.042450
| 37>   H                      0.633439             10.539445            -3.712564
| 38>   H                      1.490287             8.549697             -4.355124
| 39>   H                      0.762765             7.880298             -2.852222
| 40>   H                      -0.254403            8.351689             -4.285406
| 41>   C                    : 2.302825             5.372533             -7.243400
| 42>   O                    : 3.642213             4.939602             -6.990858
| 43>   H                    : 4.230001             5.532004             -7.423894
| 44>   H                    : 1.829396             4.900507             -8.072251
| 45>   H                    : 1.624187             5.072687             -6.452229
| 46>   H                    : 2.318800             6.441176             -7.319937
| 47> *
| 48>
| 49> #Run DFT-D3 single point of the particle with dimer basis set
| 50> $new_job
| 51> %base "20-64_DFT_B"
| 52> ! wB97X-D3 def2-TZVP TIGHTSCF CHELPG PMODEL
| 53>
| 54> %scf
| 55> MaxIter 1000
| 56> end
| 57>
| 58> * xyz 0 1
| 59>   C                    : 0.659082             8.615269             -3.643497
| 60>   O                    : 0.571755             9.841283             -3.042450
| 61>   H                    : 0.633439             10.539445            -3.712564
| 62>   H                    : 1.490287             8.549697             -4.355124
| 63>   H                    : 0.762765             7.880298             -2.852222
| 64>   H                    : -0.254403            8.351689             -4.285406
| 65>   C                      2.302825             5.372533             -7.243400
| 66>   O                      3.642213             4.939602             -6.990858
| 67>   H                      4.230001             5.532004             -7.423894
| 68>   H                      1.829396             4.900507             -8.072251
| 69>   H                      1.624187             5.072687             -6.452229
| 70>   H                      2.318800             6.441176             -7.319937
| 71> *
| 72>
| 73>                          ****END OF INPUT****
 Total Charge           Charge          ....    0
 Multiplicity           Mult            ....    1
 Number of Electrons    NEL             ....   36
Dispersion correction           -0.000753835
FINAL SINGLE POINT ENERGY      -231.466404910774
Dispersion correction           -0.000234560
FINAL SINGLE POINT ENERGY      -115.734247302727

CARTESIAN COORDINATES (ANGSTROEM)
---------------------------------
  C      0.659082    8.615269   -3.643497
  O      0.571755    9.841283   -3.042450
  H      0.633439   10.539445   -3.712564
  H      1.490287    8.549697   -4.355124
  H      0.762765    7.880298   -2.852222
  H     -0.254403    8.351689   -4.285406
  C      2.302825    5.372533   -7.243400
  O      3.642213    4.939602   -6.990858
  H      4.230001    5.532004   -7.423894
  H      1.829396    4.900507   -8.072251
  H      1.624187    5.072687   -6.452229
  H      2.318800    6.441176   -7.319937

 Multiplicity           Mult            ....    1
 Number of Electrons    NEL             ....   18
 Basis Dimension        Dim             ....  172

ORBITAL ENERGIES
----------------

  NO   OCC          E(Eh)            E(eV)
   0   2.0000     -19.226819      -523.1883
   1   2.0000     -10.308176      -280.4997
   2   2.0000      -1.134325       -30.8666
   3   2.0000      -0.803592       -21.8668
   4   2.0000      -0.609725       -16.5915
   5   2.0000      -0.551259       -15.0005
   6   2.0000      -0.525516       -14.3000
   7   2.0000      -0.432954       -11.7813
   8   2.0000      -0.374244       -10.1837
   9   0.0000       0.083649         2.2762
  10   0.0000       0.117432         3.1955
  11   0.0000       0.146146         3.9768
  12   0.0000       0.170717         4.6454
  13   0.0000       0.188770         5.1367

MULLIKEN ATOMIC CHARGES
-----------------------
   0 C :   -0.000067
   1 O :   -0.000000
   2 H :   -0.000000
   3 H :    0.000063
   4 H :   -0.000018
   5 H :   -0.000042
   6 C :   -0.167097
   7 O :   -0.474707
   8 H :    0.311703
   9 H :    0.104837
  10 H :    0.117925
  11 H :    0.107402
Sum of atomic charges:    0.0000000

LOEWDIN ATOMIC CHARGES
----------------------
   0 C :   -0.000115
   1 O :   -0.000002
   2 H :   -0.000000
   3 H :   -0.000089
   4 H :   -0.000006
   5 H :   -0.000027
   6 C :   -0.365452
   7 O :   -0.079707
   8 H :    0.154443
   9 H :    0.090457
  10 H :    0.106041
  11 H :    0.094458

  Mayer bond orders larger than 0.1
B(  6-C ,  7-O ) :   1.0068 B(  6-C ,  9-H ) :   0.9716 B(  6-C , 10-H ) :   0.9769
B(  6-C , 11-H ) :   0.9892 B(  7-O ,  8-H ) :   0.9053

Dispersion correction           -0.000242844
FINAL SINGLE POINT ENERGY      -115.732016014319

DIPOLE MOMENT
-------------
                                X             Y             Z
Electronic contribution:      1.66502      -0.62010       0.33610
Nuclear contribution   :     -1.85138       1.18197      -0.71290
                        -----------------------------------------
Total Dipole Moment    :     -0.18636       0.56187      -0.37680
                        -----------------------------------------
Magnitude (a.u.)       :      0.70171
Magnitude (Debye)      :      1.78361

Rotational constants in cm-1:     4.522671     0.820299     0.786999
Rotational constants in MHz : 135586.264990 24591.956897 23593.630624

                             ****ORCA TERMINATED NORMALLY****
TOTAL RUN TIME: 0 days 0 hours 0 minutes 58 seconds 823 msec
