                         Program Version 4.1.2  - RELEASE  -
|  1> #Run DFT-D3 single point of the dimer
|  2> ! wB97X-D3 def2-TZVP TIGHTSCF CHELPG PMODEL PAL8
|  3>
|  4> %base "20-81_DFT_AB"
|  5>
|  6> %scf
|  7> MaxIter 1000
|  8> end
|  9>
| 10> * xyz 0 1
| 11>   C                      -2.839955            -3.953407            -0.078150
| 12>   O                      -2.008247            -2.946951            0.371114
| 13>   H                      -2.187683            -2.219467            -0.178250
| 14>   H                      -3.058394            -3.772306            -1.120352
| 15>   H                      -2.431864            -4.948480            0.016022
| 16>   H                      -3.792097            -3.920621            0.402216
| 17>   C                      1.720387             0.254401             2.862474
| 18>   O                      1.437891             -0.553017            1.745106
| 19>   H                      1.135046             -1.350429            2.138803
| 20>   H                      0.852401             0.675602             3.353505
| 21>   H                      2.415632             -0.354741            3.568618
| 22>   H                      2.207707             1.073727             2.452199
| 23> *
| 24>
| 25> #Run DFT-D3 single point of the molecule with dimer basis set
| 26> $new_job
| 27> %base "20-81_DFT_A"
| 28> ! wB97X-D3 def2-TZVP TIGHTSCF CHELPG PMODEL
| 29>
| 30> %scf
| 31> MaxIter 1000
| 32> end
| 33>
| 34> * xyz 0 1
| 35>   C                      -2.839955            -3.953407            -0.078150
| 36>   O                      -2.008247            -2.946951            0.371114
| 37>   H                      -2.187683            -2.219467            -0.178250
| 38>   H                      -3.058394            -3.772306            -1.120352
| 39>   H                      -2.431864            -4.948480            0.016022
| 40>   H                      -3.792097            -3.920621            0.402216
| 41>   C                    : 1.720387             0.254401             2.862474
| 42>   O                    : 1.437891             -0.553017            1.745106
| 43>   H                    : 1.135046             -1.350429            2.138803
| 44>   H                    : 0.852401             0.675602             3.353505
| 45>   H                    : 2.415632             -0.354741            3.568618
| 46>   H                    : 2.207707             1.073727             2.452199
| 47> *
| 48>
| 49> #Run DFT-D3 single point of the particle with dimer basis set
| 50> $new_job
| 51> %base "20-81_DFT_B"
| 52> ! wB97X-D3 def2-TZVP TIGHTSCF CHELPG PMODEL
| 53>
| 54> %scf
| 55> MaxIter 1000
| 56> end
| 57>
| 58> * xyz 0 1
| 59>   C                    : -2.839955            -3.953407            -0.078150
| 60>   O                    : -2.008247            -2.946951            0.371114
| 61>   H                    : -2.187683            -2.219467            -0.178250
| 62>   H                    : -3.058394            -3.772306            -1.120352
| 63>   H                    : -2.431864            -4.948480            0.016022
| 64>   H                    : -3.792097            -3.920621            0.402216
| 65>   C                      1.720387             0.254401             2.862474
| 66>   O                      1.437891             -0.553017            1.745106
| 67>   H                      1.135046             -1.350429            2.138803
| 68>   H                      0.852401             0.675602             3.353505
| 69>   H                      2.415632             -0.354741            3.568618
| 70>   H                      2.207707             1.073727             2.452199
| 71> *
| 72>
| 73>                          ****END OF INPUT****
 Total Charge           Charge          ....    0
 Multiplicity           Mult            ....    1
 Number of Electrons    NEL             ....   36
Dispersion correction           -0.000621071
FINAL SINGLE POINT ENERGY      -231.461625779567
Dispersion correction           -0.000207890
FINAL SINGLE POINT ENERGY      -115.731771121626

CARTESIAN COORDINATES (ANGSTROEM)
---------------------------------
  C     -2.839955   -3.953407   -0.078150
  O     -2.008247   -2.946951    0.371114
  H     -2.187683   -2.219467   -0.178250
  H     -3.058394   -3.772306   -1.120352
  H     -2.431864   -4.948480    0.016022
  H     -3.792097   -3.920621    0.402216
  C      1.720387    0.254401    2.862474
  O      1.437891   -0.553017    1.745106
  H      1.135046   -1.350429    2.138803
  H      0.852401    0.675602    3.353505
  H      2.415632   -0.354741    3.568618
  H      2.207707    1.073727    2.452199

 Multiplicity           Mult            ....    1
 Number of Electrons    NEL             ....   18
 Basis Dimension        Dim             ....  172

ORBITAL ENERGIES
----------------

  NO   OCC          E(Eh)            E(eV)
   0   2.0000     -19.228411      -523.2317
   1   2.0000     -10.312105      -280.6066
   2   2.0000      -1.146218       -31.1902
   3   2.0000      -0.796049       -21.6616
   4   2.0000      -0.610022       -16.5995
   5   2.0000      -0.547775       -14.9057
   6   2.0000      -0.526218       -14.3191
   7   2.0000      -0.439634       -11.9631
   8   2.0000      -0.374452       -10.1894
   9   0.0000       0.087370         2.3775
  10   0.0000       0.114325         3.1109
  11   0.0000       0.154245         4.1972
  12   0.0000       0.176154         4.7934
  13   0.0000       0.194989         5.3059

MULLIKEN ATOMIC CHARGES
-----------------------
   0 C :   -0.000030
   1 O :   -0.000072
   2 H :   -0.000228
   3 H :    0.000002
   4 H :    0.000002
   5 H :    0.000000
   6 C :   -0.162301
   7 O :   -0.461471
   8 H :    0.309428
   9 H :    0.100051
  10 H :    0.094025
  11 H :    0.120594
Sum of atomic charges:   -0.0000000

LOEWDIN ATOMIC CHARGES
----------------------
   0 C :   -0.000007
   1 O :   -0.000112
   2 H :   -0.000152
   3 H :   -0.000000
   4 H :   -0.000000
   5 H :   -0.000000
   6 C :   -0.388842
   7 O :   -0.062514
   8 H :    0.156233
   9 H :    0.091597
  10 H :    0.107752
  11 H :    0.096047

  Mayer bond orders larger than 0.1
B(  6-C ,  7-O ) :   1.0043 B(  6-C ,  9-H ) :   0.9664 B(  6-C , 10-H ) :   0.9837
B(  6-C , 11-H ) :   0.9798 B(  7-O ,  8-H ) :   0.9086

Dispersion correction           -0.000218285
FINAL SINGLE POINT ENERGY      -115.728710192972

DIPOLE MOMENT
-------------
                                X             Y             Z
Electronic contribution:     -0.39060      -0.86832      -1.49509
Nuclear contribution   :      0.30531       0.70905       2.13725
                        -----------------------------------------
Total Dipole Moment    :     -0.08529      -0.15927       0.64216
                        -----------------------------------------
Magnitude (a.u.)       :      0.66709
Magnitude (Debye)      :      1.69561

Rotational constants in cm-1:     4.190176     0.853183     0.822925
Rotational constants in MHz : 125618.308217 25577.778883 24670.660398

                             ****ORCA TERMINATED NORMALLY****
TOTAL RUN TIME: 0 days 0 hours 0 minutes 52 seconds 329 msec
