                         Program Version 4.1.2  - RELEASE  -
|  1> #Run DFT-D3 single point of the dimer
|  2> ! wB97X-D3 def2-TZVP TIGHTSCF CHELPG PMODEL PAL8
|  3>
|  4> %base "7-82_DFT_AB"
|  5>
|  6> %scf
|  7> MaxIter 1000
|  8> end
|  9>
| 10> * xyz 0 1
| 11>   C                      7.285926             0.821066             2.316241
| 12>   O                      7.532912             0.471736             1.007627
| 13>   H                      8.045949             -0.406475            0.930814
| 14>   H                      7.486048             -0.087081            3.004934
| 15>   H                      7.841240             1.695538             2.765298
| 16>   H                      6.188296             0.937388             2.320612
| 17>   C                      4.449318             -1.634681            -0.912909
| 18>   O                      5.565025             -1.350100            -1.745458
| 19>   H                      5.742992             -0.455629            -1.591832
| 20>   H                      3.972005             -2.526487            -1.180131
| 21>   H                      4.843174             -1.774262            0.042984
| 22>   H                      3.736831             -0.756859            -0.867591
| 23> *
| 24>
| 25> #Run DFT-D3 single point of the molecule with dimer basis set
| 26> $new_job
| 27> %base "7-82_DFT_A"
| 28> ! wB97X-D3 def2-TZVP TIGHTSCF CHELPG PMODEL
| 29>
| 30> %scf
| 31> MaxIter 1000
| 32> end
| 33>
| 34> * xyz 0 1
| 35>   C                      7.285926             0.821066             2.316241
| 36>   O                      7.532912             0.471736             1.007627
| 37>   H                      8.045949             -0.406475            0.930814
| 38>   H                      7.486048             -0.087081            3.004934
| 39>   H                      7.841240             1.695538             2.765298
| 40>   H                      6.188296             0.937388             2.320612
| 41>   C                    : 4.449318             -1.634681            -0.912909
| 42>   O                    : 5.565025             -1.350100            -1.745458
| 43>   H                    : 5.742992             -0.455629            -1.591832
| 44>   H                    : 3.972005             -2.526487            -1.180131
| 45>   H                    : 4.843174             -1.774262            0.042984
| 46>   H                    : 3.736831             -0.756859            -0.867591
| 47> *
| 48>
| 49> #Run DFT-D3 single point of the particle with dimer basis set
| 50> $new_job
| 51> %base "7-82_DFT_B"
| 52> ! wB97X-D3 def2-TZVP TIGHTSCF CHELPG PMODEL
| 53>
| 54> %scf
| 55> MaxIter 1000
| 56> end
| 57>
| 58> * xyz 0 1
| 59>   C                    : 7.285926             0.821066             2.316241
| 60>   O                    : 7.532912             0.471736             1.007627
| 61>   H                    : 8.045949             -0.406475            0.930814
| 62>   H                    : 7.486048             -0.087081            3.004934
| 63>   H                    : 7.841240             1.695538             2.765298
| 64>   H                    : 6.188296             0.937388             2.320612
| 65>   C                      4.449318             -1.634681            -0.912909
| 66>   O                      5.565025             -1.350100            -1.745458
| 67>   H                      5.742992             -0.455629            -1.591832
| 68>   H                      3.972005             -2.526487            -1.180131
| 69>   H                      4.843174             -1.774262            0.042984
| 70>   H                      3.736831             -0.756859            -0.867591
| 71> *
| 72>
| 73>                          ****END OF INPUT****
 Total Charge           Charge          ....    0
 Multiplicity           Mult            ....    1
 Number of Electrons    NEL             ....   36
Dispersion correction           -0.001260018
FINAL SINGLE POINT ENERGY      -231.456026930649
Dispersion correction           -0.000256815
FINAL SINGLE POINT ENERGY      -115.723745475078

CARTESIAN COORDINATES (ANGSTROEM)
---------------------------------
  C      7.285926    0.821066    2.316241
  O      7.532912    0.471736    1.007627
  H      8.045949   -0.406475    0.930814
  H      7.486048   -0.087081    3.004934
  H      7.841240    1.695538    2.765298
  H      6.188296    0.937388    2.320612
  C      4.449318   -1.634681   -0.912909
  O      5.565025   -1.350100   -1.745458
  H      5.742992   -0.455629   -1.591832
  H      3.972005   -2.526487   -1.180131
  H      4.843174   -1.774262    0.042984
  H      3.736831   -0.756859   -0.867591

 Multiplicity           Mult            ....    1
 Number of Electrons    NEL             ....   18
 Basis Dimension        Dim             ....  172

ORBITAL ENERGIES
----------------

  NO   OCC          E(Eh)            E(eV)
   0   2.0000     -19.224417      -523.1230
   1   2.0000     -10.307361      -280.4776
   2   2.0000      -1.142695       -31.0943
   3   2.0000      -0.802458       -21.8360
   4   2.0000      -0.610666       -16.6171
   5   2.0000      -0.545068       -14.8320
   6   2.0000      -0.535446       -14.5702
   7   2.0000      -0.441251       -12.0070
   8   2.0000      -0.371648       -10.1130
   9   0.0000       0.076853         2.0913
  10   0.0000       0.121979         3.3192
  11   0.0000       0.153805         4.1852
  12   0.0000       0.171754         4.6737
  13   0.0000       0.190533         5.1847

MULLIKEN ATOMIC CHARGES
-----------------------
   0 C :   -0.000121
   1 O :   -0.000480
   2 H :   -0.000765
   3 H :   -0.000028
   4 H :    0.000001
   5 H :   -0.000059
   6 C :   -0.166905
   7 O :   -0.466983
   8 H :    0.306494
   9 H :    0.121555
  10 H :    0.108737
  11 H :    0.098555
Sum of atomic charges:   -0.0000000

LOEWDIN ATOMIC CHARGES
----------------------
   0 C :   -0.000196
   1 O :   -0.000772
   2 H :   -0.000673
   3 H :   -0.000013
   4 H :   -0.000003
   5 H :   -0.000055
   6 C :   -0.364638
   7 O :   -0.065951
   8 H :    0.145396
   9 H :    0.096583
  10 H :    0.086456
  11 H :    0.103866

  Mayer bond orders larger than 0.1
B(  6-C ,  7-O ) :   0.9914 B(  6-C ,  9-H ) :   0.9752 B(  6-C , 10-H ) :   0.9828
B(  6-C , 11-H ) :   0.9829 B(  7-O ,  8-H ) :   0.9119

Dispersion correction           -0.000210443
FINAL SINGLE POINT ENERGY      -115.729382519147

DIPOLE MOMENT
-------------
                                X             Y             Z
Electronic contribution:      1.34339       0.12301      -1.15279
Nuclear contribution   :     -1.67436       0.30941       1.59898
                        -----------------------------------------
Total Dipole Moment    :     -0.33096       0.43242       0.44619
                        -----------------------------------------
Magnitude (a.u.)       :      0.70400
Magnitude (Debye)      :      1.78941

Rotational constants in cm-1:     4.403168     0.843512     0.805690
Rotational constants in MHz : 132003.667431 25287.841979 24153.990499

                             ****ORCA TERMINATED NORMALLY****
TOTAL RUN TIME: 0 days 0 hours 1 minutes 0 seconds 803 msec
