                         Program Version 4.1.2  - RELEASE  -
|  1> #Run DFT-D3 single point of the dimer
|  2> ! wB97X-D3 def2-TZVP TIGHTSCF CHELPG PMODEL PAL8
|  3>
|  4> %base "20-128_DFT_AB"
|  5>
|  6> %scf
|  7> MaxIter 1000
|  8> end
|  9>
| 10> * xyz 0 1
| 11>   C                      -10.407727           0.770466             3.631397
| 12>   O                      -9.562463            -0.223850            3.141265
| 13>   H                      -9.421107            -0.852578            3.813185
| 14>   H                      -11.475602           0.633338             3.382502
| 15>   H                      -10.279834           0.901651             4.710946
| 16>   H                      -10.139632           1.661452             3.115065
| 17>   C                      -6.664363            1.798460             3.947455
| 18>   O                      -7.527145            2.065606             2.932803
| 19>   H                      -7.923853            1.266214             2.581502
| 20>   H                      -5.749684            2.409529             3.868021
| 21>   H                      -7.079226            2.109862             4.910229
| 22>   H                      -6.449338            0.714370             3.869005
| 23> *
| 24>
| 25> #Run DFT-D3 single point of the molecule with dimer basis set
| 26> $new_job
| 27> %base "20-128_DFT_A"
| 28> ! wB97X-D3 def2-TZVP TIGHTSCF CHELPG PMODEL
| 29>
| 30> %scf
| 31> MaxIter 1000
| 32> end
| 33>
| 34> * xyz 0 1
| 35>   C                      -10.407727           0.770466             3.631397
| 36>   O                      -9.562463            -0.223850            3.141265
| 37>   H                      -9.421107            -0.852578            3.813185
| 38>   H                      -11.475602           0.633338             3.382502
| 39>   H                      -10.279834           0.901651             4.710946
| 40>   H                      -10.139632           1.661452             3.115065
| 41>   C                    : -6.664363            1.798460             3.947455
| 42>   O                    : -7.527145            2.065606             2.932803
| 43>   H                    : -7.923853            1.266214             2.581502
| 44>   H                    : -5.749684            2.409529             3.868021
| 45>   H                    : -7.079226            2.109862             4.910229
| 46>   H                    : -6.449338            0.714370             3.869005
| 47> *
| 48>
| 49> #Run DFT-D3 single point of the particle with dimer basis set
| 50> $new_job
| 51> %base "20-128_DFT_B"
| 52> ! wB97X-D3 def2-TZVP TIGHTSCF CHELPG PMODEL
| 53>
| 54> %scf
| 55> MaxIter 1000
| 56> end
| 57>
| 58> * xyz 0 1
| 59>   C                    : -10.407727           0.770466             3.631397
| 60>   O                    : -9.562463            -0.223850            3.141265
| 61>   H                    : -9.421107            -0.852578            3.813185
| 62>   H                    : -11.475602           0.633338             3.382502
| 63>   H                    : -10.279834           0.901651             4.710946
| 64>   H                    : -10.139632           1.661452             3.115065
| 65>   C                      -6.664363            1.798460             3.947455
| 66>   O                      -7.527145            2.065606             2.932803
| 67>   H                      -7.923853            1.266214             2.581502
| 68>   H                      -5.749684            2.409529             3.868021
| 69>   H                      -7.079226            2.109862             4.910229
| 70>   H                      -6.449338            0.714370             3.869005
| 71> *
| 72>
| 73>                          ****END OF INPUT****
 Total Charge           Charge          ....    0
 Multiplicity           Mult            ....    1
 Number of Electrons    NEL             ....   36
Dispersion correction           -0.002187365
FINAL SINGLE POINT ENERGY      -231.472043395997
Dispersion correction           -0.000235499
FINAL SINGLE POINT ENERGY      -115.734573377303

CARTESIAN COORDINATES (ANGSTROEM)
---------------------------------
  C    -10.407727    0.770466    3.631397
  O     -9.562463   -0.223850    3.141265
  H     -9.421107   -0.852578    3.813185
  H    -11.475602    0.633338    3.382502
  H    -10.279834    0.901651    4.710946
  H    -10.139632    1.661452    3.115065
  C     -6.664363    1.798460    3.947455
  O     -7.527145    2.065606    2.932803
  H     -7.923853    1.266214    2.581502
  H     -5.749684    2.409529    3.868021
  H     -7.079226    2.109862    4.910229
  H     -6.449338    0.714370    3.869005

 Multiplicity           Mult            ....    1
 Number of Electrons    NEL             ....   18
 Basis Dimension        Dim             ....  172

ORBITAL ENERGIES
----------------

  NO   OCC          E(Eh)            E(eV)
   0   2.0000     -19.227492      -523.2067
   1   2.0000     -10.311468      -280.5893
   2   2.0000      -1.153231       -31.3810
   3   2.0000      -0.793069       -21.5805
   4   2.0000      -0.619300       -16.8520
   5   2.0000      -0.552273       -15.0281
   6   2.0000      -0.538985       -14.6665
   7   2.0000      -0.422522       -11.4974
   8   2.0000      -0.367271        -9.9940
   9   0.0000       0.075367         2.0508
  10   0.0000       0.132189         3.5970
  11   0.0000       0.151071         4.1108
  12   0.0000       0.167416         4.5556
  13   0.0000       0.193314         5.2603

MULLIKEN ATOMIC CHARGES
-----------------------
   0 C :   -0.007149
   1 O :   -0.001777
   2 H :    0.000066
   3 H :   -0.000586
   4 H :    0.000857
   5 H :   -0.006607
   6 C :   -0.144492
   7 O :   -0.459610
   8 H :    0.323417
   9 H :    0.106044
  10 H :    0.095895
  11 H :    0.093942
Sum of atomic charges:    0.0000000

LOEWDIN ATOMIC CHARGES
----------------------
   0 C :   -0.012766
   1 O :   -0.007816
   2 H :   -0.000606
   3 H :   -0.000183
   4 H :   -0.000412
   5 H :   -0.008433
   6 C :   -0.424769
   7 O :   -0.020953
   8 H :    0.176582
   9 H :    0.103832
  10 H :    0.094676
  11 H :    0.100846

  Mayer bond orders larger than 0.1
B(  6-C ,  7-O ) :   1.0104 B(  6-C ,  9-H ) :   0.9729 B(  6-C , 10-H ) :   0.9766
B(  6-C , 11-H ) :   0.9962 B(  7-O ,  8-H ) :   0.8949

Dispersion correction           -0.000223579
FINAL SINGLE POINT ENERGY      -115.730691732853

DIPOLE MOMENT
-------------
                                X             Y             Z
Electronic contribution:     -1.08425       0.45526      -1.30282
Nuclear contribution   :      1.16385      -1.06732       1.43384
                        -----------------------------------------
Total Dipole Moment    :      0.07959      -0.61206       0.13102
                        -----------------------------------------
Magnitude (a.u.)       :      0.63097
Magnitude (Debye)      :      1.60380

Rotational constants in cm-1:     4.255430     0.893530     0.850710
Rotational constants in MHz : 127574.591596 26787.361836 25503.639356

                             ****ORCA TERMINATED NORMALLY****
TOTAL RUN TIME: 0 days 0 hours 0 minutes 58 seconds 553 msec
