                         Program Version 4.1.2  - RELEASE  -
|  1> #Run DFT-D3 single point of the dimer
|  2> ! wB97X-D3 def2-TZVP TIGHTSCF CHELPG PMODEL PAL8
|  3>
|  4> %base "15-17_DFT_AB"
|  5>
|  6> %scf
|  7> MaxIter 1000
|  8> end
|  9>
| 10> * xyz 0 1
| 11>   C                      -9.116109            5.828608             -3.149760
| 12>   O                      -8.666366            7.180685             -3.469790
| 13>   H                      -8.814491            7.394887             -4.363041
| 14>   H                      -9.459913            5.864401             -2.148955
| 15>   H                      -9.944737            5.470337             -3.807818
| 16>   H                      -8.309017            5.140862             -3.188582
| 17>   C                      -7.160869            6.900900             -6.549737
| 18>   O                      -8.420499            6.183059             -6.660789
| 19>   H                      -8.290359            5.342258             -7.200524
| 20>   H                      -7.305110            7.763004             -5.867503
| 21>   H                      -6.288862            6.248800             -6.226160
| 22>   H                      -6.708513            7.246835             -7.504801
| 23> *
| 24>
| 25> #Run DFT-D3 single point of the molecule with dimer basis set
| 26> $new_job
| 27> %base "15-17_DFT_A"
| 28> ! wB97X-D3 def2-TZVP TIGHTSCF CHELPG PMODEL
| 29>
| 30> %scf
| 31> MaxIter 1000
| 32> end
| 33>
| 34> * xyz 0 1
| 35>   C                      -9.116109            5.828608             -3.149760
| 36>   O                      -8.666366            7.180685             -3.469790
| 37>   H                      -8.814491            7.394887             -4.363041
| 38>   H                      -9.459913            5.864401             -2.148955
| 39>   H                      -9.944737            5.470337             -3.807818
| 40>   H                      -8.309017            5.140862             -3.188582
| 41>   C                    : -7.160869            6.900900             -6.549737
| 42>   O                    : -8.420499            6.183059             -6.660789
| 43>   H                    : -8.290359            5.342258             -7.200524
| 44>   H                    : -7.305110            7.763004             -5.867503
| 45>   H                    : -6.288862            6.248800             -6.226160
| 46>   H                    : -6.708513            7.246835             -7.504801
| 47> *
| 48>
| 49> #Run DFT-D3 single point of the particle with dimer basis set
| 50> $new_job
| 51> %base "15-17_DFT_B"
| 52> ! wB97X-D3 def2-TZVP TIGHTSCF CHELPG PMODEL
| 53>
| 54> %scf
| 55> MaxIter 1000
| 56> end
| 57>
| 58> * xyz 0 1
| 59>   C                    : -9.116109            5.828608             -3.149760
| 60>   O                    : -8.666366            7.180685             -3.469790
| 61>   H                    : -8.814491            7.394887             -4.363041
| 62>   H                    : -9.459913            5.864401             -2.148955
| 63>   H                    : -9.944737            5.470337             -3.807818
| 64>   H                    : -8.309017            5.140862             -3.188582
| 65>   C                      -7.160869            6.900900             -6.549737
| 66>   O                      -8.420499            6.183059             -6.660789
| 67>   H                      -8.290359            5.342258             -7.200524
| 68>   H                      -7.305110            7.763004             -5.867503
| 69>   H                      -6.288862            6.248800             -6.226160
| 70>   H                      -6.708513            7.246835             -7.504801
| 71> *
| 72>
| 73>                          ****END OF INPUT****
 Total Charge           Charge          ....    0
 Multiplicity           Mult            ....    1
 Number of Electrons    NEL             ....   36
Dispersion correction           -0.002093835
FINAL SINGLE POINT ENERGY      -231.465448278444
Dispersion correction           -0.000266839
FINAL SINGLE POINT ENERGY      -115.733263633116

CARTESIAN COORDINATES (ANGSTROEM)
---------------------------------
  C     -9.116109    5.828608   -3.149760
  O     -8.666366    7.180685   -3.469790
  H     -8.814491    7.394887   -4.363041
  H     -9.459913    5.864401   -2.148955
  H     -9.944737    5.470337   -3.807818
  H     -8.309017    5.140862   -3.188582
  C     -7.160869    6.900900   -6.549737
  O     -8.420499    6.183059   -6.660789
  H     -8.290359    5.342258   -7.200524
  H     -7.305110    7.763004   -5.867503
  H     -6.288862    6.248800   -6.226160
  H     -6.708513    7.246835   -7.504801

 Multiplicity           Mult            ....    1
 Number of Electrons    NEL             ....   18
 Basis Dimension        Dim             ....  172

ORBITAL ENERGIES
----------------

  NO   OCC          E(Eh)            E(eV)
   0   2.0000     -19.238831      -523.5152
   1   2.0000     -10.325380      -280.9679
   2   2.0000      -1.116942       -30.3935
   3   2.0000      -0.790664       -21.5150
   4   2.0000      -0.606539       -16.5048
   5   2.0000      -0.522683       -14.2229
   6   2.0000      -0.516301       -14.0493
   7   2.0000      -0.441785       -12.0216
   8   2.0000      -0.370931       -10.0936
   9   0.0000       0.093553         2.5457
  10   0.0000       0.121466         3.3052
  11   0.0000       0.142173         3.8687
  12   0.0000       0.171329         4.6621
  13   0.0000       0.197703         5.3798

MULLIKEN ATOMIC CHARGES
-----------------------
   0 C :    0.002638
   1 O :   -0.000477
   2 H :    0.000298
   3 H :   -0.000325
   4 H :   -0.002996
   5 H :   -0.001784
   6 C :   -0.182121
   7 O :   -0.476264
   8 H :    0.316209
   9 H :    0.131085
  10 H :    0.106693
  11 H :    0.107043
Sum of atomic charges:   -0.0000000

LOEWDIN ATOMIC CHARGES
----------------------
   0 C :   -0.005494
   1 O :   -0.001720
   2 H :   -0.008468
   3 H :   -0.000080
   4 H :   -0.001741
   5 H :   -0.000513
   6 C :   -0.374180
   7 O :   -0.113601
   8 H :    0.192471
   9 H :    0.115325
  10 H :    0.101734
  11 H :    0.096268

  Mayer bond orders larger than 0.1
B(  6-C ,  7-O ) :   0.9965 B(  6-C ,  9-H ) :   0.9738 B(  6-C , 10-H ) :   0.9730
B(  6-C , 11-H ) :   0.9649 B(  7-O ,  8-H ) :   0.8902

Dispersion correction           -0.000293532
FINAL SINGLE POINT ENERGY      -115.728727538945

DIPOLE MOMENT
-------------
                                X             Y             Z
Electronic contribution:     -1.79170      -0.74406      -0.02425
Nuclear contribution   :      2.39244       0.51789      -0.28456
                        -----------------------------------------
Total Dipole Moment    :      0.60073      -0.22618      -0.30882
                        -----------------------------------------
Magnitude (a.u.)       :      0.71232
Magnitude (Debye)      :      1.81058

Rotational constants in cm-1:     4.168341     0.784870     0.742466
Rotational constants in MHz : 124963.716749 23529.818820 22258.576196

                             ****ORCA TERMINATED NORMALLY****
TOTAL RUN TIME: 0 days 0 hours 1 minutes 6 seconds 536 msec
