                         Program Version 4.1.2  - RELEASE  -
|  1> #Run DFT-D3 single point of the dimer
|  2> ! wB97X-D3 def2-TZVP TIGHTSCF CHELPG PMODEL PAL8
|  3>
|  4> %base "19-175_DFT_AB"
|  5>
|  6> %scf
|  7> MaxIter 1000
|  8> end
|  9>
| 10> * xyz 0 1
| 11>   C                      -2.789177            8.440960             -8.225550
| 12>   O                      -1.763890            8.439074             -9.141735
| 13>   H                      -1.543561            9.329890             -9.401321
| 14>   H                      -2.963706            9.422349             -7.859195
| 15>   H                      -3.703196            8.171745             -8.654014
| 16>   H                      -2.611282            7.770362             -7.407536
| 17>   C                      0.136170             9.504814             -11.172222
| 18>   O                      -0.221673            10.443600            -10.205158
| 19>   H                      0.495734             11.091693            -10.182154
| 20>   H                      -0.384231            8.584617             -10.908756
| 21>   H                      -0.239080            9.747255             -12.174267
| 22>   H                      1.174461             9.377028             -11.182071
| 23> *
| 24>
| 25> #Run DFT-D3 single point of the molecule with dimer basis set
| 26> $new_job
| 27> %base "19-175_DFT_A"
| 28> ! wB97X-D3 def2-TZVP TIGHTSCF CHELPG PMODEL
| 29>
| 30> %scf
| 31> MaxIter 1000
| 32> end
| 33>
| 34> * xyz 0 1
| 35>   C                      -2.789177            8.440960             -8.225550
| 36>   O                      -1.763890            8.439074             -9.141735
| 37>   H                      -1.543561            9.329890             -9.401321
| 38>   H                      -2.963706            9.422349             -7.859195
| 39>   H                      -3.703196            8.171745             -8.654014
| 40>   H                      -2.611282            7.770362             -7.407536
| 41>   C                    : 0.136170             9.504814             -11.172222
| 42>   O                    : -0.221673            10.443600            -10.205158
| 43>   H                    : 0.495734             11.091693            -10.182154
| 44>   H                    : -0.384231            8.584617             -10.908756
| 45>   H                    : -0.239080            9.747255             -12.174267
| 46>   H                    : 1.174461             9.377028             -11.182071
| 47> *
| 48>
| 49> #Run DFT-D3 single point of the particle with dimer basis set
| 50> $new_job
| 51> %base "19-175_DFT_B"
| 52> ! wB97X-D3 def2-TZVP TIGHTSCF CHELPG PMODEL
| 53>
| 54> %scf
| 55> MaxIter 1000
| 56> end
| 57>
| 58> * xyz 0 1
| 59>   C                    : -2.789177            8.440960             -8.225550
| 60>   O                    : -1.763890            8.439074             -9.141735
| 61>   H                    : -1.543561            9.329890             -9.401321
| 62>   H                    : -2.963706            9.422349             -7.859195
| 63>   H                    : -3.703196            8.171745             -8.654014
| 64>   H                    : -2.611282            7.770362             -7.407536
| 65>   C                      0.136170             9.504814             -11.172222
| 66>   O                      -0.221673            10.443600            -10.205158
| 67>   H                      0.495734             11.091693            -10.182154
| 68>   H                      -0.384231            8.584617             -10.908756
| 69>   H                      -0.239080            9.747255             -12.174267
| 70>   H                      1.174461             9.377028             -11.182071
| 71> *
| 72>
| 73>                          ****END OF INPUT****
 Total Charge           Charge          ....    0
 Multiplicity           Mult            ....    1
 Number of Electrons    NEL             ....   36
Dispersion correction           -0.001599203
FINAL SINGLE POINT ENERGY      -231.471698321612
Dispersion correction           -0.000221357
FINAL SINGLE POINT ENERGY      -115.731840863901

CARTESIAN COORDINATES (ANGSTROEM)
---------------------------------
  C     -2.789177    8.440960   -8.225550
  O     -1.763890    8.439074   -9.141735
  H     -1.543561    9.329890   -9.401321
  H     -2.963706    9.422349   -7.859195
  H     -3.703196    8.171745   -8.654014
  H     -2.611282    7.770362   -7.407536
  C      0.136170    9.504814  -11.172222
  O     -0.221673   10.443600  -10.205158
  H      0.495734   11.091693  -10.182154
  H     -0.384231    8.584617  -10.908756
  H     -0.239080    9.747255  -12.174267
  H      1.174461    9.377028  -11.182071

 Multiplicity           Mult            ....    1
 Number of Electrons    NEL             ....   18
 Basis Dimension        Dim             ....  172

ORBITAL ENERGIES
----------------

  NO   OCC          E(Eh)            E(eV)
   0   2.0000     -19.229954      -523.2736
   1   2.0000     -10.305393      -280.4240
   2   2.0000      -1.142334       -31.0845
   3   2.0000      -0.796090       -21.6627
   4   2.0000      -0.617555       -16.8045
   5   2.0000      -0.546787       -14.8788
   6   2.0000      -0.527791       -14.3619
   7   2.0000      -0.437956       -11.9174
   8   2.0000      -0.371075       -10.0975
   9   0.0000       0.098499         2.6803
  10   0.0000       0.120214         3.2712
  11   0.0000       0.156747         4.2653
  12   0.0000       0.187528         5.1029
  13   0.0000       0.206230         5.6118

MULLIKEN ATOMIC CHARGES
-----------------------
   0 C :   -0.000553
   1 O :    0.002738
   2 H :   -0.005453
   3 H :   -0.000507
   4 H :   -0.000015
   5 H :    0.000003
   6 C :   -0.145617
   7 O :   -0.458742
   8 H :    0.306892
   9 H :    0.104164
  10 H :    0.091141
  11 H :    0.105947
Sum of atomic charges:    0.0000000

LOEWDIN ATOMIC CHARGES
----------------------
   0 C :   -0.001112
   1 O :   -0.014651
   2 H :   -0.037656
   3 H :   -0.000159
   4 H :   -0.000019
   5 H :   -0.000017
   6 C :   -0.382104
   7 O :   -0.033090
   8 H :    0.173538
   9 H :    0.114349
  10 H :    0.094575
  11 H :    0.086347

  Mayer bond orders larger than 0.1
B(  6-C ,  7-O ) :   1.0004 B(  6-C ,  9-H ) :   0.9887 B(  6-C , 10-H ) :   0.9725
B(  6-C , 11-H ) :   0.9831 B(  7-O ,  8-H ) :   0.9021

Dispersion correction           -0.000222149
FINAL SINGLE POINT ENERGY      -115.734031258378

DIPOLE MOMENT
-------------
                                X             Y             Z
Electronic contribution:     -0.47361       1.15335       1.26268
Nuclear contribution   :      1.07950      -1.11170      -1.60684
                        -----------------------------------------
Total Dipole Moment    :      0.60589       0.04165      -0.34416
                        -----------------------------------------
Magnitude (a.u.)       :      0.69806
Magnitude (Debye)      :      1.77433

Rotational constants in cm-1:     4.339249     0.862040     0.825975
Rotational constants in MHz : 130087.403600 25843.313160 24762.095606

                             ****ORCA TERMINATED NORMALLY****
TOTAL RUN TIME: 0 days 0 hours 1 minutes 38 seconds 571 msec
