                         Program Version 4.1.2  - RELEASE  -
|  1> #Run DFT-D3 single point of the dimer
|  2> ! wB97X-D3 def2-TZVP TIGHTSCF CHELPG PMODEL PAL8
|  3>
|  4> %base "15-61_DFT_AB"
|  5>
|  6> %scf
|  7> MaxIter 1000
|  8> end
|  9>
| 10> * xyz 0 1
| 11>   C                      0.395747             0.499302             3.166637
| 12>   O                      -0.741435            1.109411             2.820772
| 13>   H                      -1.443136            0.800324             3.428644
| 14>   H                      0.572906             0.753819             4.234277
| 15>   H                      0.320529             -0.597235            3.056164
| 16>   H                      1.203881             0.845296             2.442496
| 17>   C                      3.793136             -2.119971            5.263232
| 18>   O                      4.220589             -3.495471            5.145390
| 19>   H                      3.619160             -3.900213            4.545235
| 20>   H                      3.588674             -1.651833            4.345481
| 21>   H                      2.919482             -2.042182            5.867256
| 22>   H                      4.566814             -1.552746            5.743861
| 23> *
| 24>
| 25> #Run DFT-D3 single point of the molecule with dimer basis set
| 26> $new_job
| 27> %base "15-61_DFT_A"
| 28> ! wB97X-D3 def2-TZVP TIGHTSCF CHELPG PMODEL
| 29>
| 30> %scf
| 31> MaxIter 1000
| 32> end
| 33>
| 34> * xyz 0 1
| 35>   C                      0.395747             0.499302             3.166637
| 36>   O                      -0.741435            1.109411             2.820772
| 37>   H                      -1.443136            0.800324             3.428644
| 38>   H                      0.572906             0.753819             4.234277
| 39>   H                      0.320529             -0.597235            3.056164
| 40>   H                      1.203881             0.845296             2.442496
| 41>   C                    : 3.793136             -2.119971            5.263232
| 42>   O                    : 4.220589             -3.495471            5.145390
| 43>   H                    : 3.619160             -3.900213            4.545235
| 44>   H                    : 3.588674             -1.651833            4.345481
| 45>   H                    : 2.919482             -2.042182            5.867256
| 46>   H                    : 4.566814             -1.552746            5.743861
| 47> *
| 48>
| 49> #Run DFT-D3 single point of the particle with dimer basis set
| 50> $new_job
| 51> %base "15-61_DFT_B"
| 52> ! wB97X-D3 def2-TZVP TIGHTSCF CHELPG PMODEL
| 53>
| 54> %scf
| 55> MaxIter 1000
| 56> end
| 57>
| 58> * xyz 0 1
| 59>   C                    : 0.395747             0.499302             3.166637
| 60>   O                    : -0.741435            1.109411             2.820772
| 61>   H                    : -1.443136            0.800324             3.428644
| 62>   H                    : 0.572906             0.753819             4.234277
| 63>   H                    : 0.320529             -0.597235            3.056164
| 64>   H                    : 1.203881             0.845296             2.442496
| 65>   C                      3.793136             -2.119971            5.263232
| 66>   O                      4.220589             -3.495471            5.145390
| 67>   H                      3.619160             -3.900213            4.545235
| 68>   H                      3.588674             -1.651833            4.345481
| 69>   H                      2.919482             -2.042182            5.867256
| 70>   H                      4.566814             -1.552746            5.743861
| 71> *
| 72>
| 73>                          ****END OF INPUT****
 Total Charge           Charge          ....    0
 Multiplicity           Mult            ....    1
 Number of Electrons    NEL             ....   36
Dispersion correction           -0.000826783
FINAL SINGLE POINT ENERGY      -231.462470306201
Dispersion correction           -0.000199292
FINAL SINGLE POINT ENERGY      -115.728139404338

CARTESIAN COORDINATES (ANGSTROEM)
---------------------------------
  C      0.395747    0.499302    3.166637
  O     -0.741435    1.109411    2.820772
  H     -1.443136    0.800324    3.428644
  H      0.572906    0.753819    4.234277
  H      0.320529   -0.597235    3.056164
  H      1.203881    0.845296    2.442496
  C      3.793136   -2.119971    5.263232
  O      4.220589   -3.495471    5.145390
  H      3.619160   -3.900213    4.545235
  H      3.588674   -1.651833    4.345481
  H      2.919482   -2.042182    5.867256
  H      4.566814   -1.552746    5.743861

 Multiplicity           Mult            ....    1
 Number of Electrons    NEL             ....   18
 Basis Dimension        Dim             ....  172

ORBITAL ENERGIES
----------------

  NO   OCC          E(Eh)            E(eV)
   0   2.0000     -19.227999      -523.2205
   1   2.0000     -10.305165      -280.4178
   2   2.0000      -1.131063       -30.7778
   3   2.0000      -0.805589       -21.9212
   4   2.0000      -0.609734       -16.5917
   5   2.0000      -0.543320       -14.7845
   6   2.0000      -0.524228       -14.2650
   7   2.0000      -0.442327       -12.0363
   8   2.0000      -0.376440       -10.2435
   9   0.0000       0.077952         2.1212
  10   0.0000       0.118802         3.2328
  11   0.0000       0.143091         3.8937
  12   0.0000       0.168066         4.5733
  13   0.0000       0.192023         5.2252

MULLIKEN ATOMIC CHARGES
-----------------------
   0 C :   -0.000081
   1 O :   -0.000009
   2 H :   -0.000002
   3 H :   -0.000100
   4 H :   -0.000053
   5 H :   -0.000042
   6 C :   -0.167236
   7 O :   -0.475425
   8 H :    0.307968
   9 H :    0.108299
  10 H :    0.105973
  11 H :    0.120707
Sum of atomic charges:    0.0000000

LOEWDIN ATOMIC CHARGES
----------------------
   0 C :   -0.000422
   1 O :   -0.000004
   2 H :   -0.000001
   3 H :   -0.000078
   4 H :   -0.000089
   5 H :   -0.000043
   6 C :   -0.350397
   7 O :   -0.087701
   8 H :    0.153658
   9 H :    0.087241
  10 H :    0.091434
  11 H :    0.106403

  Mayer bond orders larger than 0.1
B(  6-C ,  7-O ) :   0.9981 B(  6-C ,  9-H ) :   0.9773 B(  6-C , 10-H ) :   0.9782
B(  6-C , 11-H ) :   0.9758 B(  7-O ,  8-H ) :   0.9081

Dispersion correction           -0.000236627
FINAL SINGLE POINT ENERGY      -115.734018808767

DIPOLE MOMENT
-------------
                                X             Y             Z
Electronic contribution:      0.63149      -1.68898      -0.10728
Nuclear contribution   :     -1.18992       2.02041      -0.23177
                        -----------------------------------------
Total Dipole Moment    :     -0.55843       0.33143      -0.33906
                        -----------------------------------------
Magnitude (a.u.)       :      0.73256
Magnitude (Debye)      :      1.86202

Rotational constants in cm-1:     4.537600     0.808964     0.780424
Rotational constants in MHz : 136033.824579 24252.118722 23396.521030

                             ****ORCA TERMINATED NORMALLY****
TOTAL RUN TIME: 0 days 0 hours 0 minutes 51 seconds 444 msec
