                         Program Version 4.1.2  - RELEASE  -
|  1> #Run DFT-D3 single point of the dimer
|  2> ! wB97X-D3 def2-TZVP TIGHTSCF CHELPG PMODEL PAL8
|  3>
|  4> %base "8-67_DFT_AB"
|  5>
|  6> %scf
|  7> MaxIter 1000
|  8> end
|  9>
| 10> * xyz 0 1
| 11>   C                      3.247449             0.489047             6.955197
| 12>   O                      3.339960             1.502602             5.982111
| 13>   H                      2.459960             1.640455             5.585835
| 14>   H                      2.534463             0.868375             7.717436
| 15>   H                      2.934831             -0.454493            6.529917
| 16>   H                      4.259433             0.461948             7.314150
| 17>   C                      5.944907             -1.410275            8.821131
| 18>   O                      5.661752             -2.034981            10.047827
| 19>   H                      6.407531             -2.616065            10.283087
| 20>   H                      5.131365             -0.914269            8.387196
| 21>   H                      6.795903             -0.706590            8.955805
| 22>   H                      6.311007             -2.132486            8.079920
| 23> *
| 24>
| 25> #Run DFT-D3 single point of the molecule with dimer basis set
| 26> $new_job
| 27> %base "8-67_DFT_A"
| 28> ! wB97X-D3 def2-TZVP TIGHTSCF CHELPG PMODEL
| 29>
| 30> %scf
| 31> MaxIter 1000
| 32> end
| 33>
| 34> * xyz 0 1
| 35>   C                      3.247449             0.489047             6.955197
| 36>   O                      3.339960             1.502602             5.982111
| 37>   H                      2.459960             1.640455             5.585835
| 38>   H                      2.534463             0.868375             7.717436
| 39>   H                      2.934831             -0.454493            6.529917
| 40>   H                      4.259433             0.461948             7.314150
| 41>   C                    : 5.944907             -1.410275            8.821131
| 42>   O                    : 5.661752             -2.034981            10.047827
| 43>   H                    : 6.407531             -2.616065            10.283087
| 44>   H                    : 5.131365             -0.914269            8.387196
| 45>   H                    : 6.795903             -0.706590            8.955805
| 46>   H                    : 6.311007             -2.132486            8.079920
| 47> *
| 48>
| 49> #Run DFT-D3 single point of the particle with dimer basis set
| 50> $new_job
| 51> %base "8-67_DFT_B"
| 52> ! wB97X-D3 def2-TZVP TIGHTSCF CHELPG PMODEL
| 53>
| 54> %scf
| 55> MaxIter 1000
| 56> end
| 57>
| 58> * xyz 0 1
| 59>   C                    : 3.247449             0.489047             6.955197
| 60>   O                    : 3.339960             1.502602             5.982111
| 61>   H                    : 2.459960             1.640455             5.585835
| 62>   H                    : 2.534463             0.868375             7.717436
| 63>   H                    : 2.934831             -0.454493            6.529917
| 64>   H                    : 4.259433             0.461948             7.314150
| 65>   C                      5.944907             -1.410275            8.821131
| 66>   O                      5.661752             -2.034981            10.047827
| 67>   H                      6.407531             -2.616065            10.283087
| 68>   H                      5.131365             -0.914269            8.387196
| 69>   H                      6.795903             -0.706590            8.955805
| 70>   H                      6.311007             -2.132486            8.079920
| 71> *
| 72>
| 73>                          ****END OF INPUT****
 Total Charge           Charge          ....    0
 Multiplicity           Mult            ....    1
 Number of Electrons    NEL             ....   36
Dispersion correction           -0.001316429
FINAL SINGLE POINT ENERGY      -231.466285125582
Dispersion correction           -0.000215506
FINAL SINGLE POINT ENERGY      -115.733496727314

CARTESIAN COORDINATES (ANGSTROEM)
---------------------------------
  C      3.247449    0.489047    6.955197
  O      3.339960    1.502602    5.982111
  H      2.459960    1.640455    5.585835
  H      2.534463    0.868375    7.717436
  H      2.934831   -0.454493    6.529917
  H      4.259433    0.461948    7.314150
  C      5.944907   -1.410275    8.821131
  O      5.661752   -2.034981   10.047827
  H      6.407531   -2.616065   10.283087
  H      5.131365   -0.914269    8.387196
  H      6.795903   -0.706590    8.955805
  H      6.311007   -2.132486    8.079920

 Multiplicity           Mult            ....    1
 Number of Electrons    NEL             ....   18
 Basis Dimension        Dim             ....  172

ORBITAL ENERGIES
----------------

  NO   OCC          E(Eh)            E(eV)
   0   2.0000     -19.230340      -523.2841
   1   2.0000     -10.309796      -280.5438
   2   2.0000      -1.135338       -30.8941
   3   2.0000      -0.797006       -21.6876
   4   2.0000      -0.611438       -16.6381
   5   2.0000      -0.542490       -14.7619
   6   2.0000      -0.532261       -14.4836
   7   2.0000      -0.433987       -11.8094
   8   2.0000      -0.369063       -10.0427
   9   0.0000       0.087947         2.3932
  10   0.0000       0.113456         3.0873
  11   0.0000       0.151893         4.1332
  12   0.0000       0.176151         4.7933
  13   0.0000       0.196566         5.3488

MULLIKEN ATOMIC CHARGES
-----------------------
   0 C :    0.002005
   1 O :    0.000045
   2 H :    0.000009
   3 H :   -0.000306
   4 H :   -0.000550
   5 H :   -0.000646
   6 C :   -0.167361
   7 O :   -0.474031
   8 H :    0.319121
   9 H :    0.126119
  10 H :    0.095604
  11 H :    0.099991
Sum of atomic charges:   -0.0000000

LOEWDIN ATOMIC CHARGES
----------------------
   0 C :   -0.007835
   1 O :   -0.000019
   2 H :   -0.000010
   3 H :   -0.000135
   4 H :   -0.000432
   5 H :   -0.009159
   6 C :   -0.382157
   7 O :   -0.077804
   8 H :    0.179346
   9 H :    0.103602
  10 H :    0.098409
  11 H :    0.096195

  Mayer bond orders larger than 0.1
B(  6-C ,  7-O ) :   1.0196 B(  6-C ,  9-H ) :   0.9704 B(  6-C , 10-H ) :   0.9829
B(  6-C , 11-H ) :   0.9796 B(  7-O ,  8-H ) :   0.8944

Dispersion correction           -0.000230733
FINAL SINGLE POINT ENERGY      -115.733545701339

DIPOLE MOMENT
-------------
                                X             Y             Z
Electronic contribution:     -0.66997      -0.69887       1.59635
Nuclear contribution   :      1.23844       0.56897      -1.94400
                        -----------------------------------------
Total Dipole Moment    :      0.56847      -0.12990      -0.34765
                        -----------------------------------------
Magnitude (a.u.)       :      0.67889
Magnitude (Debye)      :      1.72559

Rotational constants in cm-1:     4.365904     0.837417     0.806471
Rotational constants in MHz : 130886.497869 25105.119344 24177.406659

                             ****ORCA TERMINATED NORMALLY****
TOTAL RUN TIME: 0 days 0 hours 0 minutes 44 seconds 65 msec
