                         Program Version 4.1.2  - RELEASE  -
|  1> #Run DFT-D3 single point of the dimer
|  2> ! wB97X-D3 def2-TZVP TIGHTSCF CHELPG PMODEL PAL8
|  3>
|  4> %base "16-27_DFT_AB"
|  5>
|  6> %scf
|  7> MaxIter 1000
|  8> end
|  9>
| 10> * xyz 0 1
| 11>   C                      4.271779             4.712240             5.343485
| 12>   O                      4.861457             5.690898             4.454410
| 13>   H                      4.587557             5.662843             3.570705
| 14>   H                      4.713760             3.664029             5.121006
| 15>   H                      4.705710             4.923602             6.335144
| 16>   H                      3.190266             4.808637             5.377588
| 17>   C                      5.110090             6.030878             9.552916
| 18>   O                      4.462541             4.833311             9.976876
| 19>   H                      5.022148             4.085320             9.689814
| 20>   H                      6.186430             6.054454             9.802716
| 21>   H                      4.988280             6.220196             8.565189
| 22>   H                      4.597550             6.913125             9.944467
| 23> *
| 24>
| 25> #Run DFT-D3 single point of the molecule with dimer basis set
| 26> $new_job
| 27> %base "16-27_DFT_A"
| 28> ! wB97X-D3 def2-TZVP TIGHTSCF CHELPG PMODEL
| 29>
| 30> %scf
| 31> MaxIter 1000
| 32> end
| 33>
| 34> * xyz 0 1
| 35>   C                      4.271779             4.712240             5.343485
| 36>   O                      4.861457             5.690898             4.454410
| 37>   H                      4.587557             5.662843             3.570705
| 38>   H                      4.713760             3.664029             5.121006
| 39>   H                      4.705710             4.923602             6.335144
| 40>   H                      3.190266             4.808637             5.377588
| 41>   C                    : 5.110090             6.030878             9.552916
| 42>   O                    : 4.462541             4.833311             9.976876
| 43>   H                    : 5.022148             4.085320             9.689814
| 44>   H                    : 6.186430             6.054454             9.802716
| 45>   H                    : 4.988280             6.220196             8.565189
| 46>   H                    : 4.597550             6.913125             9.944467
| 47> *
| 48>
| 49> #Run DFT-D3 single point of the particle with dimer basis set
| 50> $new_job
| 51> %base "16-27_DFT_B"
| 52> ! wB97X-D3 def2-TZVP TIGHTSCF CHELPG PMODEL
| 53>
| 54> %scf
| 55> MaxIter 1000
| 56> end
| 57>
| 58> * xyz 0 1
| 59>   C                    : 4.271779             4.712240             5.343485
| 60>   O                    : 4.861457             5.690898             4.454410
| 61>   H                    : 4.587557             5.662843             3.570705
| 62>   H                    : 4.713760             3.664029             5.121006
| 63>   H                    : 4.705710             4.923602             6.335144
| 64>   H                    : 3.190266             4.808637             5.377588
| 65>   C                      5.110090             6.030878             9.552916
| 66>   O                      4.462541             4.833311             9.976876
| 67>   H                      5.022148             4.085320             9.689814
| 68>   H                      6.186430             6.054454             9.802716
| 69>   H                      4.988280             6.220196             8.565189
| 70>   H                      4.597550             6.913125             9.944467
| 71> *
| 72>
| 73>                          ****END OF INPUT****
 Total Charge           Charge          ....    0
 Multiplicity           Mult            ....    1
 Number of Electrons    NEL             ....   36
Dispersion correction           -0.001200844
FINAL SINGLE POINT ENERGY      -231.458918169623
Dispersion correction           -0.000280228
FINAL SINGLE POINT ENERGY      -115.729133498397

CARTESIAN COORDINATES (ANGSTROEM)
---------------------------------
  C      4.271779    4.712240    5.343485
  O      4.861457    5.690898    4.454410
  H      4.587557    5.662843    3.570705
  H      4.713760    3.664029    5.121006
  H      4.705710    4.923602    6.335144
  H      3.190266    4.808637    5.377588
  C      5.110090    6.030878    9.552916
  O      4.462541    4.833311    9.976876
  H      5.022148    4.085320    9.689814
  H      6.186430    6.054454    9.802716
  H      4.988280    6.220196    8.565189
  H      4.597550    6.913125    9.944467

 Multiplicity           Mult            ....    1
 Number of Electrons    NEL             ....   18
 Basis Dimension        Dim             ....  172

ORBITAL ENERGIES
----------------

  NO   OCC          E(Eh)            E(eV)
   0   2.0000     -19.232697      -523.3483
   1   2.0000     -10.305174      -280.4180
   2   2.0000      -1.129507       -30.7354
   3   2.0000      -0.803114       -21.8539
   4   2.0000      -0.607222       -16.5234
   5   2.0000      -0.549195       -14.9444
   6   2.0000      -0.522522       -14.2185
   7   2.0000      -0.434476       -11.8227
   8   2.0000      -0.375141       -10.2081
   9   0.0000       0.083485         2.2717
  10   0.0000       0.117041         3.1848
  11   0.0000       0.151269         4.1162
  12   0.0000       0.168614         4.5882
  13   0.0000       0.189174         5.1477

MULLIKEN ATOMIC CHARGES
-----------------------
   0 C :   -0.002238
   1 O :    0.000108
   2 H :    0.000005
   3 H :    0.000027
   4 H :    0.004055
   5 H :   -0.000052
   6 C :   -0.169691
   7 O :   -0.476591
   8 H :    0.315597
   9 H :    0.104038
  10 H :    0.108952
  11 H :    0.115789
Sum of atomic charges:   -0.0000000

LOEWDIN ATOMIC CHARGES
----------------------
   0 C :   -0.000915
   1 O :   -0.000017
   2 H :   -0.000001
   3 H :   -0.000004
   4 H :   -0.001822
   5 H :   -0.000013
   6 C :   -0.373122
   7 O :   -0.090643
   8 H :    0.178867
   9 H :    0.099898
  10 H :    0.076287
  11 H :    0.111484

  Mayer bond orders larger than 0.1
B(  6-C ,  7-O ) :   1.0128 B(  6-C ,  9-H ) :   0.9839 B(  6-C , 10-H ) :   0.9699
B(  6-C , 11-H ) :   0.9785 B(  7-O ,  8-H ) :   0.8977

Dispersion correction           -0.000243486
FINAL SINGLE POINT ENERGY      -115.728947563339

DIPOLE MOMENT
-------------
                                X             Y             Z
Electronic contribution:     -0.90497      -1.50703       0.58209
Nuclear contribution   :      1.49876       1.53806      -0.96297
                        -----------------------------------------
Total Dipole Moment    :      0.59380       0.03102      -0.38088
                        -----------------------------------------
Magnitude (a.u.)       :      0.70613
Magnitude (Debye)      :      1.79485

Rotational constants in cm-1:     4.485194     0.823147     0.784319
Rotational constants in MHz : 134462.733762 24677.338217 23513.306575

                             ****ORCA TERMINATED NORMALLY****
TOTAL RUN TIME: 0 days 0 hours 1 minutes 4 seconds 113 msec
