                         Program Version 4.1.2  - RELEASE  -
|  1> #Run DFT-D3 single point of the dimer
|  2> ! wB97X-D3 def2-TZVP TIGHTSCF CHELPG PMODEL PAL8
|  3>
|  4> %base "14-112_DFT_AB"
|  5>
|  6> %scf
|  7> MaxIter 1000
|  8> end
|  9>
| 10> * xyz 0 1
| 11>   C                      10.107105            -5.583094            0.898709
| 12>   O                      9.277626             -4.510390            1.399296
| 13>   H                      9.836118             -3.927165            1.959038
| 14>   H                      11.109694            -5.474125            1.303897
| 15>   H                      9.825191             -6.604012            1.214564
| 16>   H                      10.273370            -5.608392            -0.218637
| 17>   C                      7.567911             -2.952551            3.860034
| 18>   O                      7.887991             -1.907704            4.845676
| 19>   H                      8.703618             -1.618722            4.524083
| 20>   H                      6.585277             -3.464839            4.150207
| 21>   H                      7.441919             -2.533425            2.861552
| 22>   H                      8.382683             -3.666362            3.810914
| 23> *
| 24>
| 25> #Run DFT-D3 single point of the molecule with dimer basis set
| 26> $new_job
| 27> %base "14-112_DFT_A"
| 28> ! wB97X-D3 def2-TZVP TIGHTSCF CHELPG PMODEL
| 29>
| 30> %scf
| 31> MaxIter 1000
| 32> end
| 33>
| 34> * xyz 0 1
| 35>   C                      10.107105            -5.583094            0.898709
| 36>   O                      9.277626             -4.510390            1.399296
| 37>   H                      9.836118             -3.927165            1.959038
| 38>   H                      11.109694            -5.474125            1.303897
| 39>   H                      9.825191             -6.604012            1.214564
| 40>   H                      10.273370            -5.608392            -0.218637
| 41>   C                    : 7.567911             -2.952551            3.860034
| 42>   O                    : 7.887991             -1.907704            4.845676
| 43>   H                    : 8.703618             -1.618722            4.524083
| 44>   H                    : 6.585277             -3.464839            4.150207
| 45>   H                    : 7.441919             -2.533425            2.861552
| 46>   H                    : 8.382683             -3.666362            3.810914
| 47> *
| 48>
| 49> #Run DFT-D3 single point of the particle with dimer basis set
| 50> $new_job
| 51> %base "14-112_DFT_B"
| 52> ! wB97X-D3 def2-TZVP TIGHTSCF CHELPG PMODEL
| 53>
| 54> %scf
| 55> MaxIter 1000
| 56> end
| 57>
| 58> * xyz 0 1
| 59>   C                    : 10.107105            -5.583094            0.898709
| 60>   O                    : 9.277626             -4.510390            1.399296
| 61>   H                    : 9.836118             -3.927165            1.959038
| 62>   H                    : 11.109694            -5.474125            1.303897
| 63>   H                    : 9.825191             -6.604012            1.214564
| 64>   H                    : 10.273370            -5.608392            -0.218637
| 65>   C                      7.567911             -2.952551            3.860034
| 66>   O                      7.887991             -1.907704            4.845676
| 67>   H                      8.703618             -1.618722            4.524083
| 68>   H                      6.585277             -3.464839            4.150207
| 69>   H                      7.441919             -2.533425            2.861552
| 70>   H                      8.382683             -3.666362            3.810914
| 71> *
| 72>
| 73>                          ****END OF INPUT****
 Total Charge           Charge          ....    0
 Multiplicity           Mult            ....    1
 Number of Electrons    NEL             ....   36
Dispersion correction           -0.001509406
FINAL SINGLE POINT ENERGY      -231.461168953137
Dispersion correction           -0.000280399
FINAL SINGLE POINT ENERGY      -115.730065812775

CARTESIAN COORDINATES (ANGSTROEM)
---------------------------------
  C     10.107105   -5.583094    0.898709
  O      9.277626   -4.510390    1.399296
  H      9.836118   -3.927165    1.959038
  H     11.109694   -5.474125    1.303897
  H      9.825191   -6.604012    1.214564
  H     10.273370   -5.608392   -0.218637
  C      7.567911   -2.952551    3.860034
  O      7.887991   -1.907704    4.845676
  H      8.703618   -1.618722    4.524083
  H      6.585277   -3.464839    4.150207
  H      7.441919   -2.533425    2.861552
  H      8.382683   -3.666362    3.810914

 Multiplicity           Mult            ....    1
 Number of Electrons    NEL             ....   18
 Basis Dimension        Dim             ....  172

ORBITAL ENERGIES
----------------

  NO   OCC          E(Eh)            E(eV)
   0   2.0000     -19.228666      -523.2386
   1   2.0000     -10.323014      -280.9035
   2   2.0000      -1.132777       -30.8244
   3   2.0000      -0.794555       -21.6210
   4   2.0000      -0.604332       -16.4447
   5   2.0000      -0.539337       -14.6761
   6   2.0000      -0.514757       -14.0072
   7   2.0000      -0.447386       -12.1740
   8   2.0000      -0.377610       -10.2753
   9   0.0000       0.079431         2.1614
  10   0.0000       0.115822         3.1517
  11   0.0000       0.145615         3.9624
  12   0.0000       0.180066         4.8998
  13   0.0000       0.185742         5.0543

MULLIKEN ATOMIC CHARGES
-----------------------
   0 C :   -0.000626
   1 O :   -0.001371
   2 H :   -0.000172
   3 H :    0.000007
   4 H :    0.000002
   5 H :    0.000008
   6 C :   -0.181493
   7 O :   -0.461310
   8 H :    0.302388
   9 H :    0.121673
  10 H :    0.108213
  11 H :    0.112680
Sum of atomic charges:    0.0000000

LOEWDIN ATOMIC CHARGES
----------------------
   0 C :   -0.000349
   1 O :   -0.003625
   2 H :   -0.004381
   3 H :   -0.000007
   4 H :   -0.000013
   5 H :   -0.000007
   6 C :   -0.347017
   7 O :   -0.096338
   8 H :    0.140924
   9 H :    0.119996
  10 H :    0.095248
  11 H :    0.095567

  Mayer bond orders larger than 0.1
B(  6-C ,  7-O ) :   0.9911 B(  6-C ,  9-H ) :   0.9709 B(  6-C , 10-H ) :   0.9722
B(  6-C , 11-H ) :   0.9767 B(  7-O ,  8-H ) :   0.9148

Dispersion correction           -0.000241524
FINAL SINGLE POINT ENERGY      -115.730726145442

DIPOLE MOMENT
-------------
                                X             Y             Z
Electronic contribution:      0.28777       1.26715       1.30055
Nuclear contribution   :      0.09264      -1.51823      -1.91611
                        -----------------------------------------
Total Dipole Moment    :      0.38041      -0.25108      -0.61556
                        -----------------------------------------
Magnitude (a.u.)       :      0.76594
Magnitude (Debye)      :      1.94687

Rotational constants in cm-1:     4.184268     0.789937     0.756434
Rotational constants in MHz : 125441.191082 23681.712825 22677.316057

                             ****ORCA TERMINATED NORMALLY****
TOTAL RUN TIME: 0 days 0 hours 1 minutes 8 seconds 137 msec
