                         Program Version 4.1.2  - RELEASE  -
|  1> #Run DFT-D3 single point of the dimer
|  2> ! wB97X-D3 def2-TZVP TIGHTSCF CHELPG PMODEL PAL8
|  3>
|  4> %base "1-32_DFT_AB"
|  5>
|  6> %scf
|  7> MaxIter 1000
|  8> end
|  9>
| 10> * xyz 0 1
| 11>   C                      -2.354992            4.220558             -11.114118
| 12>   O                      -3.266662            5.290288             -11.142796
| 13>   H                      -4.137291            4.981376             -11.457363
| 14>   H                      -1.583191            4.453698             -10.358504
| 15>   H                      -2.862234            3.277000             -10.825924
| 16>   H                      -1.849931            4.156217             -12.122973
| 17>   C                      -6.250027            5.490923             -6.870125
| 18>   O                      -6.514176            6.198940             -8.058985
| 19>   H                      -5.771897            6.008404             -8.612052
| 20>   H                      -5.895497            4.502236             -7.087653
| 21>   H                      -5.617030            6.053611             -6.177705
| 22>   H                      -7.127906            5.313482             -6.313587
| 23> *
| 24>
| 25> #Run DFT-D3 single point of the molecule with dimer basis set
| 26> $new_job
| 27> %base "1-32_DFT_A"
| 28> ! wB97X-D3 def2-TZVP TIGHTSCF CHELPG PMODEL
| 29>
| 30> %scf
| 31> MaxIter 1000
| 32> end
| 33>
| 34> * xyz 0 1
| 35>   C                      -2.354992            4.220558             -11.114118
| 36>   O                      -3.266662            5.290288             -11.142796
| 37>   H                      -4.137291            4.981376             -11.457363
| 38>   H                      -1.583191            4.453698             -10.358504
| 39>   H                      -2.862234            3.277000             -10.825924
| 40>   H                      -1.849931            4.156217             -12.122973
| 41>   C                    : -6.250027            5.490923             -6.870125
| 42>   O                    : -6.514176            6.198940             -8.058985
| 43>   H                    : -5.771897            6.008404             -8.612052
| 44>   H                    : -5.895497            4.502236             -7.087653
| 45>   H                    : -5.617030            6.053611             -6.177705
| 46>   H                    : -7.127906            5.313482             -6.313587
| 47> *
| 48>
| 49> #Run DFT-D3 single point of the particle with dimer basis set
| 50> $new_job
| 51> %base "1-32_DFT_B"
| 52> ! wB97X-D3 def2-TZVP TIGHTSCF CHELPG PMODEL
| 53>
| 54> %scf
| 55> MaxIter 1000
| 56> end
| 57>
| 58> * xyz 0 1
| 59>   C                    : -2.354992            4.220558             -11.114118
| 60>   O                    : -3.266662            5.290288             -11.142796
| 61>   H                    : -4.137291            4.981376             -11.457363
| 62>   H                    : -1.583191            4.453698             -10.358504
| 63>   H                    : -2.862234            3.277000             -10.825924
| 64>   H                    : -1.849931            4.156217             -12.122973
| 65>   C                      -6.250027            5.490923             -6.870125
| 66>   O                      -6.514176            6.198940             -8.058985
| 67>   H                      -5.771897            6.008404             -8.612052
| 68>   H                      -5.895497            4.502236             -7.087653
| 69>   H                      -5.617030            6.053611             -6.177705
| 70>   H                      -7.127906            5.313482             -6.313587
| 71> *
| 72>
| 73>                          ****END OF INPUT****
 Total Charge           Charge          ....    0
 Multiplicity           Mult            ....    1
 Number of Electrons    NEL             ....   36
Dispersion correction           -0.000801467
FINAL SINGLE POINT ENERGY      -231.469391717087
Dispersion correction           -0.000244943
FINAL SINGLE POINT ENERGY      -115.735079815877

CARTESIAN COORDINATES (ANGSTROEM)
---------------------------------
  C     -2.354992    4.220558  -11.114118
  O     -3.266662    5.290288  -11.142796
  H     -4.137291    4.981376  -11.457363
  H     -1.583191    4.453698  -10.358504
  H     -2.862234    3.277000  -10.825924
  H     -1.849931    4.156217  -12.122973
  C     -6.250027    5.490923   -6.870125
  O     -6.514176    6.198940   -8.058985
  H     -5.771897    6.008404   -8.612052
  H     -5.895497    4.502236   -7.087653
  H     -5.617030    6.053611   -6.177705
  H     -7.127906    5.313482   -6.313587

 Multiplicity           Mult            ....    1
 Number of Electrons    NEL             ....   18
 Basis Dimension        Dim             ....  172

ORBITAL ENERGIES
----------------

  NO   OCC          E(Eh)            E(eV)
   0   2.0000     -19.229294      -523.2557
   1   2.0000     -10.305774      -280.4344
   2   2.0000      -1.142806       -31.0973
   3   2.0000      -0.801298       -21.8044
   4   2.0000      -0.610959       -16.6250
   5   2.0000      -0.549654       -14.9569
   6   2.0000      -0.531977       -14.4758
   7   2.0000      -0.433961       -11.8087
   8   2.0000      -0.376259       -10.2385
   9   0.0000       0.074642         2.0311
  10   0.0000       0.117452         3.1960
  11   0.0000       0.150695         4.1006
  12   0.0000       0.176186         4.7943
  13   0.0000       0.190854         5.1934

MULLIKEN ATOMIC CHARGES
-----------------------
   0 C :   -0.000027
   1 O :   -0.000023
   2 H :   -0.000118
   3 H :    0.000005
   4 H :   -0.000003
   5 H :   -0.000001
   6 C :   -0.162335
   7 O :   -0.467761
   8 H :    0.313675
   9 H :    0.101940
  10 H :    0.097869
  11 H :    0.116780
Sum of atomic charges:   -0.0000000

LOEWDIN ATOMIC CHARGES
----------------------
   0 C :   -0.000032
   1 O :   -0.000121
   2 H :   -0.000217
   3 H :   -0.000001
   4 H :   -0.000002
   5 H :   -0.000001
   6 C :   -0.385150
   7 O :   -0.064648
   8 H :    0.161936
   9 H :    0.093346
  10 H :    0.095832
  11 H :    0.099057

  Mayer bond orders larger than 0.1
B(  6-C ,  7-O ) :   1.0064 B(  6-C ,  9-H ) :   0.9843 B(  6-C , 10-H ) :   0.9762
B(  6-C , 11-H ) :   0.9761 B(  7-O ,  8-H ) :   0.9052

Dispersion correction           -0.000226795
FINAL SINGLE POINT ENERGY      -115.733110796244

DIPOLE MOMENT
-------------
                                X             Y             Z
Electronic contribution:     -0.43392       0.97112      -1.51470
Nuclear contribution   :      0.97478      -1.39188       1.63649
                        -----------------------------------------
Total Dipole Moment    :      0.54086      -0.42076       0.12179
                        -----------------------------------------
Magnitude (a.u.)       :      0.69599
Magnitude (Debye)      :      1.76906

Rotational constants in cm-1:     4.467793     0.837323     0.816010
Rotational constants in MHz : 133941.064380 25102.314465 24463.378050

                             ****ORCA TERMINATED NORMALLY****
TOTAL RUN TIME: 0 days 0 hours 4 minutes 20 seconds 787 msec
