                         Program Version 4.1.2  - RELEASE  -
|  1> #Run DFT-D3 single point of the dimer
|  2> ! wB97X-D3 def2-TZVP TIGHTSCF CHELPG PMODEL PAL8
|  3>
|  4> %base "12-211_DFT_AB"
|  5>
|  6> %scf
|  7> MaxIter 1000
|  8> end
|  9>
| 10> * xyz 0 1
| 11>   C                      10.311949            -0.204251            -2.808328
| 12>   O                      10.231334            1.100341             -2.321599
| 13>   H                      10.876962            1.230900             -1.592367
| 14>   H                      9.962635             -0.245599            -3.763337
| 15>   H                      11.283199            -0.694497            -2.911589
| 16>   H                      9.708854             -0.907636            -2.254651
| 17>   C                      10.052280            5.452050             -1.503370
| 18>   O                      10.973635            4.329790             -1.606083
| 19>   H                      10.599673            3.696722             -2.185244
| 20>   H                      9.397262             5.643016             -2.412208
| 21>   H                      9.391628             5.350623             -0.707857
| 22>   H                      10.655890            6.370214             -1.350950
| 23> *
| 24>
| 25> #Run DFT-D3 single point of the molecule with dimer basis set
| 26> $new_job
| 27> %base "12-211_DFT_A"
| 28> ! wB97X-D3 def2-TZVP TIGHTSCF CHELPG PMODEL
| 29>
| 30> %scf
| 31> MaxIter 1000
| 32> end
| 33>
| 34> * xyz 0 1
| 35>   C                      10.311949            -0.204251            -2.808328
| 36>   O                      10.231334            1.100341             -2.321599
| 37>   H                      10.876962            1.230900             -1.592367
| 38>   H                      9.962635             -0.245599            -3.763337
| 39>   H                      11.283199            -0.694497            -2.911589
| 40>   H                      9.708854             -0.907636            -2.254651
| 41>   C                    : 10.052280            5.452050             -1.503370
| 42>   O                    : 10.973635            4.329790             -1.606083
| 43>   H                    : 10.599673            3.696722             -2.185244
| 44>   H                    : 9.397262             5.643016             -2.412208
| 45>   H                    : 9.391628             5.350623             -0.707857
| 46>   H                    : 10.655890            6.370214             -1.350950
| 47> *
| 48>
| 49> #Run DFT-D3 single point of the particle with dimer basis set
| 50> $new_job
| 51> %base "12-211_DFT_B"
| 52> ! wB97X-D3 def2-TZVP TIGHTSCF CHELPG PMODEL
| 53>
| 54> %scf
| 55> MaxIter 1000
| 56> end
| 57>
| 58> * xyz 0 1
| 59>   C                    : 10.311949            -0.204251            -2.808328
| 60>   O                    : 10.231334            1.100341             -2.321599
| 61>   H                    : 10.876962            1.230900             -1.592367
| 62>   H                    : 9.962635             -0.245599            -3.763337
| 63>   H                    : 11.283199            -0.694497            -2.911589
| 64>   H                    : 9.708854             -0.907636            -2.254651
| 65>   C                      10.052280            5.452050             -1.503370
| 66>   O                      10.973635            4.329790             -1.606083
| 67>   H                      10.599673            3.696722             -2.185244
| 68>   H                      9.397262             5.643016             -2.412208
| 69>   H                      9.391628             5.350623             -0.707857
| 70>   H                      10.655890            6.370214             -1.350950
| 71> *
| 72>
| 73>                          ****END OF INPUT****
 Total Charge           Charge          ....    0
 Multiplicity           Mult            ....    1
 Number of Electrons    NEL             ....   36
Dispersion correction           -0.001239471
FINAL SINGLE POINT ENERGY      -231.465398282254
Dispersion correction           -0.000258789
FINAL SINGLE POINT ENERGY      -115.729350089210

CARTESIAN COORDINATES (ANGSTROEM)
---------------------------------
  C     10.311949   -0.204251   -2.808328
  O     10.231334    1.100341   -2.321599
  H     10.876962    1.230900   -1.592367
  H      9.962635   -0.245599   -3.763337
  H     11.283199   -0.694497   -2.911589
  H      9.708854   -0.907636   -2.254651
  C     10.052280    5.452050   -1.503370
  O     10.973635    4.329790   -1.606083
  H     10.599673    3.696722   -2.185244
  H      9.397262    5.643016   -2.412208
  H      9.391628    5.350623   -0.707857
  H     10.655890    6.370214   -1.350950

 Multiplicity           Mult            ....    1
 Number of Electrons    NEL             ....   18
 Basis Dimension        Dim             ....  172

ORBITAL ENERGIES
----------------

  NO   OCC          E(Eh)            E(eV)
   0   2.0000     -19.230021      -523.2755
   1   2.0000     -10.317197      -280.7452
   2   2.0000      -1.129632       -30.7389
   3   2.0000      -0.801122       -21.7996
   4   2.0000      -0.608557       -16.5597
   5   2.0000      -0.540140       -14.6980
   6   2.0000      -0.517472       -14.0811
   7   2.0000      -0.438161       -11.9230
   8   2.0000      -0.378558       -10.3011
   9   0.0000       0.081299         2.2123
  10   0.0000       0.120113         3.2685
  11   0.0000       0.145510         3.9595
  12   0.0000       0.186420         5.0727
  13   0.0000       0.189872         5.1667

MULLIKEN ATOMIC CHARGES
-----------------------
   0 C :   -0.000223
   1 O :   -0.000825
   2 H :   -0.002537
   3 H :    0.000011
   4 H :   -0.000003
   5 H :   -0.000003
   6 C :   -0.179591
   7 O :   -0.471650
   8 H :    0.310086
   9 H :    0.106300
  10 H :    0.116997
  11 H :    0.121437
Sum of atomic charges:   -0.0000000

LOEWDIN ATOMIC CHARGES
----------------------
   0 C :   -0.000199
   1 O :   -0.003241
   2 H :   -0.002926
   3 H :   -0.000009
   4 H :   -0.000003
   5 H :   -0.000006
   6 C :   -0.354000
   7 O :   -0.088227
   8 H :    0.149397
   9 H :    0.104910
  10 H :    0.082837
  11 H :    0.111467

  Mayer bond orders larger than 0.1
B(  6-C ,  7-O ) :   1.0019 B(  6-C ,  9-H ) :   0.9772 B(  6-C , 10-H ) :   0.9701
B(  6-C , 11-H ) :   0.9769 B(  7-O ,  8-H ) :   0.9071

Dispersion correction           -0.000273435
FINAL SINGLE POINT ENERGY      -115.731420112273

DIPOLE MOMENT
-------------
                                X             Y             Z
Electronic contribution:      1.21800      -1.41244       0.01255
Nuclear contribution   :     -1.85456       1.48176      -0.33516
                        -----------------------------------------
Total Dipole Moment    :     -0.63656       0.06932      -0.32260
                        -----------------------------------------
Magnitude (a.u.)       :      0.71700
Magnitude (Debye)      :      1.82246

Rotational constants in cm-1:     4.384596     0.790177     0.759272
Rotational constants in MHz : 131446.893779 23688.924548 22762.414170

                             ****ORCA TERMINATED NORMALLY****
TOTAL RUN TIME: 0 days 0 hours 1 minutes 6 seconds 20 msec
