                         Program Version 4.1.2  - RELEASE  -
|  1> #Run DFT-D3 single point of the dimer
|  2> ! wB97X-D3 def2-TZVP TIGHTSCF CHELPG PMODEL PAL8
|  3>
|  4> %base "2-46_DFT_AB"
|  5>
|  6> %scf
|  7> MaxIter 1000
|  8> end
|  9>
| 10> * xyz 0 1
| 11>   C                      10.671055            10.874247            -6.224414
| 12>   O                      10.291536            10.383988            -7.491126
| 13>   H                      9.343227             10.212276            -7.351278
| 14>   H                      10.128935            11.724972            -5.827825
| 15>   H                      10.741809            10.097136            -5.461721
| 16>   H                      11.702338            11.230933            -6.279712
| 17>   C                      9.898224             7.567101             -10.229499
| 18>   O                      11.254401            7.602495             -9.843026
| 19>   H                      11.425502            7.139227             -8.990075
| 20>   H                      9.240758             8.314794             -9.710580
| 21>   H                      9.744774             7.760532             -11.360184
| 22>   H                      9.376713             6.682654             -10.000421
| 23> *
| 24>
| 25> #Run DFT-D3 single point of the molecule with dimer basis set
| 26> $new_job
| 27> %base "2-46_DFT_A"
| 28> ! wB97X-D3 def2-TZVP TIGHTSCF CHELPG PMODEL
| 29>
| 30> %scf
| 31> MaxIter 1000
| 32> end
| 33>
| 34> * xyz 0 1
| 35>   C                      10.671055            10.874247            -6.224414
| 36>   O                      10.291536            10.383988            -7.491126
| 37>   H                      9.343227             10.212276            -7.351278
| 38>   H                      10.128935            11.724972            -5.827825
| 39>   H                      10.741809            10.097136            -5.461721
| 40>   H                      11.702338            11.230933            -6.279712
| 41>   C                    : 9.898224             7.567101             -10.229499
| 42>   O                    : 11.254401            7.602495             -9.843026
| 43>   H                    : 11.425502            7.139227             -8.990075
| 44>   H                    : 9.240758             8.314794             -9.710580
| 45>   H                    : 9.744774             7.760532             -11.360184
| 46>   H                    : 9.376713             6.682654             -10.000421
| 47> *
| 48>
| 49> #Run DFT-D3 single point of the particle with dimer basis set
| 50> $new_job
| 51> %base "2-46_DFT_B"
| 52> ! wB97X-D3 def2-TZVP TIGHTSCF CHELPG PMODEL
| 53>
| 54> %scf
| 55> MaxIter 1000
| 56> end
| 57>
| 58> * xyz 0 1
| 59>   C                    : 10.671055            10.874247            -6.224414
| 60>   O                    : 10.291536            10.383988            -7.491126
| 61>   H                    : 9.343227             10.212276            -7.351278
| 62>   H                    : 10.128935            11.724972            -5.827825
| 63>   H                    : 10.741809            10.097136            -5.461721
| 64>   H                    : 11.702338            11.230933            -6.279712
| 65>   C                      9.898224             7.567101             -10.229499
| 66>   O                      11.254401            7.602495             -9.843026
| 67>   H                      11.425502            7.139227             -8.990075
| 68>   H                      9.240758             8.314794             -9.710580
| 69>   H                      9.744774             7.760532             -11.360184
| 70>   H                      9.376713             6.682654             -10.000421
| 71> *
| 72>
| 73>                          ****END OF INPUT****
 Total Charge           Charge          ....    0
 Multiplicity           Mult            ....    1
 Number of Electrons    NEL             ....   36
Dispersion correction           -0.001221897
FINAL SINGLE POINT ENERGY      -231.461577172471
Dispersion correction           -0.000240755
FINAL SINGLE POINT ENERGY      -115.733615403689

CARTESIAN COORDINATES (ANGSTROEM)
---------------------------------
  C     10.671055   10.874247   -6.224414
  O     10.291536   10.383988   -7.491126
  H      9.343227   10.212276   -7.351278
  H     10.128935   11.724972   -5.827825
  H     10.741809   10.097136   -5.461721
  H     11.702338   11.230933   -6.279712
  C      9.898224    7.567101  -10.229499
  O     11.254401    7.602495   -9.843026
  H     11.425502    7.139227   -8.990075
  H      9.240758    8.314794   -9.710580
  H      9.744774    7.760532  -11.360184
  H      9.376713    6.682654  -10.000421

 Multiplicity           Mult            ....    1
 Number of Electrons    NEL             ....   18
 Basis Dimension        Dim             ....  172

ORBITAL ENERGIES
----------------

  NO   OCC          E(Eh)            E(eV)
   0   2.0000     -19.235997      -523.4381
   1   2.0000     -10.318609      -280.7836
   2   2.0000      -1.131680       -30.7946
   3   2.0000      -0.794825       -21.6283
   4   2.0000      -0.619276       -16.8513
   5   2.0000      -0.528205       -14.3732
   6   2.0000      -0.523657       -14.2494
   7   2.0000      -0.431080       -11.7303
   8   2.0000      -0.371662       -10.1134
   9   0.0000       0.083807         2.2805
  10   0.0000       0.116344         3.1659
  11   0.0000       0.140703         3.8287
  12   0.0000       0.168534         4.5861
  13   0.0000       0.197532         5.3751

MULLIKEN ATOMIC CHARGES
-----------------------
   0 C :   -0.000375
   1 O :    0.000024
   2 H :   -0.000074
   3 H :   -0.000005
   4 H :    0.000024
   5 H :    0.000054
   6 C :   -0.165413
   7 O :   -0.481652
   8 H :    0.322017
   9 H :    0.093252
  10 H :    0.119080
  11 H :    0.113069
Sum of atomic charges:    0.0000000

LOEWDIN ATOMIC CHARGES
----------------------
   0 C :   -0.000184
   1 O :   -0.000870
   2 H :   -0.000804
   3 H :   -0.000008
   4 H :   -0.000006
   5 H :   -0.000004
   6 C :   -0.401073
   7 O :   -0.083302
   8 H :    0.185178
   9 H :    0.096531
  10 H :    0.120322
  11 H :    0.084219

  Mayer bond orders larger than 0.1
B(  6-C ,  7-O ) :   1.0054 B(  6-C ,  9-H ) :   0.9709 B(  6-C , 10-H ) :   0.9723
B(  6-C , 11-H ) :   0.9756 B(  7-O ,  8-H ) :   0.8876

Dispersion correction           -0.000279640
FINAL SINGLE POINT ENERGY      -115.728573744962

DIPOLE MOMENT
-------------
                                X             Y             Z
Electronic contribution:      1.93872       0.01740       0.42977
Nuclear contribution   :     -2.37142      -0.37031      -0.01907
                        -----------------------------------------
Total Dipole Moment    :     -0.43270      -0.35291       0.41070
                        -----------------------------------------
Magnitude (a.u.)       :      0.69314
Magnitude (Debye)      :      1.76183

Rotational constants in cm-1:     4.397848     0.812237     0.776757
Rotational constants in MHz : 131844.162309 24350.242234 23286.603408

                             ****ORCA TERMINATED NORMALLY****
TOTAL RUN TIME: 0 days 0 hours 6 minutes 0 seconds 499 msec
