                         Program Version 4.1.2  - RELEASE  -
|  1> #Run DFT-D3 single point of the dimer
|  2> ! wB97X-D3 def2-TZVP TIGHTSCF CHELPG PMODEL PAL8
|  3>
|  4> %base "20-44_DFT_AB"
|  5>
|  6> %scf
|  7> MaxIter 1000
|  8> end
|  9>
| 10> * xyz 0 1
| 11>   C                      -6.460874            11.317236            1.150653
| 12>   O                      -5.386241            11.510456            1.972449
| 13>   H                      -4.744983            10.797700            1.904435
| 14>   H                      -6.718436            10.244920            1.063984
| 15>   H                      -7.330148            11.972840            1.477804
| 16>   H                      -6.265406            11.552220            0.117566
| 17>   C                      -3.434642            10.098755            -2.541995
| 18>   O                      -2.486791            9.020784             -2.459724
| 19>   H                      -1.622324            9.363562             -2.421603
| 20>   H                      -4.241317            9.969688             -1.871554
| 21>   H                      -2.977795            11.011380            -2.118214
| 22>   H                      -3.871249            10.220332            -3.510029
| 23> *
| 24>
| 25> #Run DFT-D3 single point of the molecule with dimer basis set
| 26> $new_job
| 27> %base "20-44_DFT_A"
| 28> ! wB97X-D3 def2-TZVP TIGHTSCF CHELPG PMODEL
| 29>
| 30> %scf
| 31> MaxIter 1000
| 32> end
| 33>
| 34> * xyz 0 1
| 35>   C                      -6.460874            11.317236            1.150653
| 36>   O                      -5.386241            11.510456            1.972449
| 37>   H                      -4.744983            10.797700            1.904435
| 38>   H                      -6.718436            10.244920            1.063984
| 39>   H                      -7.330148            11.972840            1.477804
| 40>   H                      -6.265406            11.552220            0.117566
| 41>   C                    : -3.434642            10.098755            -2.541995
| 42>   O                    : -2.486791            9.020784             -2.459724
| 43>   H                    : -1.622324            9.363562             -2.421603
| 44>   H                    : -4.241317            9.969688             -1.871554
| 45>   H                    : -2.977795            11.011380            -2.118214
| 46>   H                    : -3.871249            10.220332            -3.510029
| 47> *
| 48>
| 49> #Run DFT-D3 single point of the particle with dimer basis set
| 50> $new_job
| 51> %base "20-44_DFT_B"
| 52> ! wB97X-D3 def2-TZVP TIGHTSCF CHELPG PMODEL
| 53>
| 54> %scf
| 55> MaxIter 1000
| 56> end
| 57>
| 58> * xyz 0 1
| 59>   C                    : -6.460874            11.317236            1.150653
| 60>   O                    : -5.386241            11.510456            1.972449
| 61>   H                    : -4.744983            10.797700            1.904435
| 62>   H                    : -6.718436            10.244920            1.063984
| 63>   H                    : -7.330148            11.972840            1.477804
| 64>   H                    : -6.265406            11.552220            0.117566
| 65>   C                      -3.434642            10.098755            -2.541995
| 66>   O                      -2.486791            9.020784             -2.459724
| 67>   H                      -1.622324            9.363562             -2.421603
| 68>   H                      -4.241317            9.969688             -1.871554
| 69>   H                      -2.977795            11.011380            -2.118214
| 70>   H                      -3.871249            10.220332            -3.510029
| 71> *
| 72>
| 73>                          ****END OF INPUT****
 Total Charge           Charge          ....    0
 Multiplicity           Mult            ....    1
 Number of Electrons    NEL             ....   36
Dispersion correction           -0.000932180
FINAL SINGLE POINT ENERGY      -231.462777928376
Dispersion correction           -0.000234421
FINAL SINGLE POINT ENERGY      -115.731553358250

CARTESIAN COORDINATES (ANGSTROEM)
---------------------------------
  C     -6.460874   11.317236    1.150653
  O     -5.386241   11.510456    1.972449
  H     -4.744983   10.797700    1.904435
  H     -6.718436   10.244920    1.063984
  H     -7.330148   11.972840    1.477804
  H     -6.265406   11.552220    0.117566
  C     -3.434642   10.098755   -2.541995
  O     -2.486791    9.020784   -2.459724
  H     -1.622324    9.363562   -2.421603
  H     -4.241317    9.969688   -1.871554
  H     -2.977795   11.011380   -2.118214
  H     -3.871249   10.220332   -3.510029

 Multiplicity           Mult            ....    1
 Number of Electrons    NEL             ....   18
 Basis Dimension        Dim             ....  172

ORBITAL ENERGIES
----------------

  NO   OCC          E(Eh)            E(eV)
   0   2.0000     -19.225641      -523.1563
   1   2.0000     -10.310061      -280.5510
   2   2.0000      -1.132869       -30.8269
   3   2.0000      -0.805451       -21.9174
   4   2.0000      -0.608845       -16.5675
   5   2.0000      -0.547997       -14.9117
   6   2.0000      -0.528267       -14.3749
   7   2.0000      -0.427100       -11.6220
   8   2.0000      -0.377886       -10.2828
   9   0.0000       0.082402         2.2423
  10   0.0000       0.118468         3.2237
  11   0.0000       0.150951         4.1076
  12   0.0000       0.163400         4.4463
  13   0.0000       0.184092         5.0094

MULLIKEN ATOMIC CHARGES
-----------------------
   0 C :    0.000220
   1 O :    0.000002
   2 H :   -0.000002
   3 H :   -0.000078
   4 H :   -0.000004
   5 H :   -0.000402
   6 C :   -0.166671
   7 O :   -0.476968
   8 H :    0.313351
   9 H :    0.118152
  10 H :    0.101224
  11 H :    0.111175
Sum of atomic charges:   -0.0000000

LOEWDIN ATOMIC CHARGES
----------------------
   0 C :   -0.000423
   1 O :   -0.000004
   2 H :   -0.000028
   3 H :   -0.000055
   4 H :   -0.000003
   5 H :   -0.000469
   6 C :   -0.359076
   7 O :   -0.080373
   8 H :    0.147302
   9 H :    0.096226
  10 H :    0.102941
  11 H :    0.093961

  Mayer bond orders larger than 0.1
B(  6-C ,  7-O ) :   1.0106 B(  6-C ,  9-H ) :   0.9751 B(  6-C , 10-H ) :   0.9901
B(  6-C , 11-H ) :   0.9725 B(  7-O ,  8-H ) :   0.9060

Dispersion correction           -0.000253835
FINAL SINGLE POINT ENERGY      -115.730536989063

DIPOLE MOMENT
-------------
                                X             Y             Z
Electronic contribution:      1.08476      -1.46764      -0.02639
Nuclear contribution   :     -0.92817       2.15119       0.04856
                        -----------------------------------------
Total Dipole Moment    :      0.15659       0.68355       0.02217
                        -----------------------------------------
Magnitude (a.u.)       :      0.70160
Magnitude (Debye)      :      1.78334

Rotational constants in cm-1:     4.525831     0.807230     0.781685
Rotational constants in MHz : 135681.003453 24200.154018 23434.321959

                             ****ORCA TERMINATED NORMALLY****
TOTAL RUN TIME: 0 days 0 hours 1 minutes 7 seconds 802 msec
