                         Program Version 4.1.2  - RELEASE  -
|  1> #Run DFT-D3 single point of the dimer
|  2> ! wB97X-D3 def2-TZVP TIGHTSCF CHELPG PMODEL PAL8
|  3>
|  4> %base "13-161_DFT_AB"
|  5>
|  6> %scf
|  7> MaxIter 1000
|  8> end
|  9>
| 10> * xyz 0 1
| 11>   C                      -0.569325            0.547169             11.173100
| 12>   O                      -0.356151            -0.616771            10.400713
| 13>   H                      0.526050             -0.485911            9.977377
| 14>   H                      -0.933703            0.250722             12.240834
| 15>   H                      0.352032             1.046858             11.233762
| 16>   H                      -1.261568            1.216516             10.621655
| 17>   C                      3.154747             -1.537589            10.018817
| 18>   O                      2.002198             -1.825710            9.280145
| 19>   H                      2.051071             -1.419218            8.388134
| 20>   H                      4.096436             -1.740838            9.439830
| 21>   H                      3.159639             -0.485921            10.290562
| 22>   H                      3.143210             -2.149505            10.924553
| 23> *
| 24>
| 25> #Run DFT-D3 single point of the molecule with dimer basis set
| 26> $new_job
| 27> %base "13-161_DFT_A"
| 28> ! wB97X-D3 def2-TZVP TIGHTSCF CHELPG PMODEL
| 29>
| 30> %scf
| 31> MaxIter 1000
| 32> end
| 33>
| 34> * xyz 0 1
| 35>   C                      -0.569325            0.547169             11.173100
| 36>   O                      -0.356151            -0.616771            10.400713
| 37>   H                      0.526050             -0.485911            9.977377
| 38>   H                      -0.933703            0.250722             12.240834
| 39>   H                      0.352032             1.046858             11.233762
| 40>   H                      -1.261568            1.216516             10.621655
| 41>   C                    : 3.154747             -1.537589            10.018817
| 42>   O                    : 2.002198             -1.825710            9.280145
| 43>   H                    : 2.051071             -1.419218            8.388134
| 44>   H                    : 4.096436             -1.740838            9.439830
| 45>   H                    : 3.159639             -0.485921            10.290562
| 46>   H                    : 3.143210             -2.149505            10.924553
| 47> *
| 48>
| 49> #Run DFT-D3 single point of the particle with dimer basis set
| 50> $new_job
| 51> %base "13-161_DFT_B"
| 52> ! wB97X-D3 def2-TZVP TIGHTSCF CHELPG PMODEL
| 53>
| 54> %scf
| 55> MaxIter 1000
| 56> end
| 57>
| 58> * xyz 0 1
| 59>   C                    : -0.569325            0.547169             11.173100
| 60>   O                    : -0.356151            -0.616771            10.400713
| 61>   H                    : 0.526050             -0.485911            9.977377
| 62>   H                    : -0.933703            0.250722             12.240834
| 63>   H                    : 0.352032             1.046858             11.233762
| 64>   H                    : -1.261568            1.216516             10.621655
| 65>   C                      3.154747             -1.537589            10.018817
| 66>   O                      2.002198             -1.825710            9.280145
| 67>   H                      2.051071             -1.419218            8.388134
| 68>   H                      4.096436             -1.740838            9.439830
| 69>   H                      3.159639             -0.485921            10.290562
| 70>   H                      3.143210             -2.149505            10.924553
| 71> *
| 72>
| 73>                          ****END OF INPUT****
 Total Charge           Charge          ....    0
 Multiplicity           Mult            ....    1
 Number of Electrons    NEL             ....   36
Dispersion correction           -0.001703230
FINAL SINGLE POINT ENERGY      -231.467135526084
Dispersion correction           -0.000233398
FINAL SINGLE POINT ENERGY      -115.728651762881

CARTESIAN COORDINATES (ANGSTROEM)
---------------------------------
  C     -0.569325    0.547169   11.173100
  O     -0.356151   -0.616771   10.400713
  H      0.526050   -0.485911    9.977377
  H     -0.933703    0.250722   12.240834
  H      0.352032    1.046858   11.233762
  H     -1.261568    1.216516   10.621655
  C      3.154747   -1.537589   10.018817
  O      2.002198   -1.825710    9.280145
  H      2.051071   -1.419218    8.388134
  H      4.096436   -1.740838    9.439830
  H      3.159639   -0.485921   10.290562
  H      3.143210   -2.149505   10.924553

 Multiplicity           Mult            ....    1
 Number of Electrons    NEL             ....   18
 Basis Dimension        Dim             ....  172

ORBITAL ENERGIES
----------------

  NO   OCC          E(Eh)            E(eV)
   0   2.0000     -19.231198      -523.3075
   1   2.0000     -10.313929      -280.6563
   2   2.0000      -1.135769       -30.9058
   3   2.0000      -0.792057       -21.5530
   4   2.0000      -0.611222       -16.6322
   5   2.0000      -0.541523       -14.7356
   6   2.0000      -0.529617       -14.4116
   7   2.0000      -0.430543       -11.7157
   8   2.0000      -0.370938       -10.0937
   9   0.0000       0.093190         2.5358
  10   0.0000       0.120587         3.2813
  11   0.0000       0.152919         4.1611
  12   0.0000       0.186356         5.0710
  13   0.0000       0.195023         5.3069

MULLIKEN ATOMIC CHARGES
-----------------------
   0 C :    0.002876
   1 O :    0.005876
   2 H :   -0.025432
   3 H :   -0.000002
   4 H :    0.000272
   5 H :   -0.000205
   6 C :   -0.151666
   7 O :   -0.474342
   8 H :    0.320023
   9 H :    0.100335
  10 H :    0.103454
  11 H :    0.118811
Sum of atomic charges:    0.0000000

LOEWDIN ATOMIC CHARGES
----------------------
   0 C :   -0.000712
   1 O :   -0.007847
   2 H :   -0.031309
   3 H :   -0.000014
   4 H :   -0.000164
   5 H :   -0.000022
   6 C :   -0.396603
   7 O :   -0.047902
   8 H :    0.182801
   9 H :    0.099831
  10 H :    0.092592
  11 H :    0.109350

  Mayer bond orders larger than 0.1
B(  6-C ,  7-O ) :   0.9858 B(  6-C ,  9-H ) :   0.9744 B(  6-C , 10-H ) :   0.9791
B(  6-C , 11-H ) :   0.9731 B(  7-O ,  8-H ) :   0.8900

Dispersion correction           -0.000238558
FINAL SINGLE POINT ENERGY      -115.736451959049

DIPOLE MOMENT
-------------
                                X             Y             Z
Electronic contribution:     -1.52812      -0.46844      -0.80396
Nuclear contribution   :      2.01286       0.82862       0.53260
                        -----------------------------------------
Total Dipole Moment    :      0.48474       0.36017      -0.27137
                        -----------------------------------------
Magnitude (a.u.)       :      0.66207
Magnitude (Debye)      :      1.68285

Rotational constants in cm-1:     4.210256     0.844931     0.811271
Rotational constants in MHz : 126220.305148 25330.407466 24321.283147

                             ****ORCA TERMINATED NORMALLY****
TOTAL RUN TIME: 0 days 0 hours 1 minutes 10 seconds 257 msec
