                         Program Version 4.1.2  - RELEASE  -
|  1> #Run DFT-D3 single point of the dimer
|  2> ! wB97X-D3 def2-TZVP TIGHTSCF CHELPG PMODEL PAL8
|  3>
|  4> %base "22-155_DFT_AB"
|  5>
|  6> %scf
|  7> MaxIter 1000
|  8> end
|  9>
| 10> * xyz 0 1
| 11>   C                      3.964316             3.347006             8.560207
| 12>   O                      2.798326             3.703831             7.869844
| 13>   H                      2.181258             4.153824             8.473695
| 14>   H                      4.313658             4.116674             9.230770
| 15>   H                      3.796506             2.467997             9.113621
| 16>   H                      4.797698             3.092619             7.910218
| 17>   C                      2.851664             1.089842             5.929155
| 18>   O                      2.800874             2.422255             5.487146
| 19>   H                      2.805284             3.010479             6.209970
| 20>   H                      3.445435             0.940129             6.837272
| 21>   H                      1.843251             0.715008             6.075384
| 22>   H                      3.338209             0.433450             5.169792
| 23> *
| 24>
| 25> #Run DFT-D3 single point of the molecule with dimer basis set
| 26> $new_job
| 27> %base "22-155_DFT_A"
| 28> ! wB97X-D3 def2-TZVP TIGHTSCF CHELPG PMODEL
| 29>
| 30> %scf
| 31> MaxIter 1000
| 32> end
| 33>
| 34> * xyz 0 1
| 35>   C                      3.964316             3.347006             8.560207
| 36>   O                      2.798326             3.703831             7.869844
| 37>   H                      2.181258             4.153824             8.473695
| 38>   H                      4.313658             4.116674             9.230770
| 39>   H                      3.796506             2.467997             9.113621
| 40>   H                      4.797698             3.092619             7.910218
| 41>   C                    : 2.851664             1.089842             5.929155
| 42>   O                    : 2.800874             2.422255             5.487146
| 43>   H                    : 2.805284             3.010479             6.209970
| 44>   H                    : 3.445435             0.940129             6.837272
| 45>   H                    : 1.843251             0.715008             6.075384
| 46>   H                    : 3.338209             0.433450             5.169792
| 47> *
| 48>
| 49> #Run DFT-D3 single point of the particle with dimer basis set
| 50> $new_job
| 51> %base "22-155_DFT_B"
| 52> ! wB97X-D3 def2-TZVP TIGHTSCF CHELPG PMODEL
| 53>
| 54> %scf
| 55> MaxIter 1000
| 56> end
| 57>
| 58> * xyz 0 1
| 59>   C                    : 3.964316             3.347006             8.560207
| 60>   O                    : 2.798326             3.703831             7.869844
| 61>   H                    : 2.181258             4.153824             8.473695
| 62>   H                    : 4.313658             4.116674             9.230770
| 63>   H                    : 3.796506             2.467997             9.113621
| 64>   H                    : 4.797698             3.092619             7.910218
| 65>   C                      2.851664             1.089842             5.929155
| 66>   O                      2.800874             2.422255             5.487146
| 67>   H                      2.805284             3.010479             6.209970
| 68>   H                      3.445435             0.940129             6.837272
| 69>   H                      1.843251             0.715008             6.075384
| 70>   H                      3.338209             0.433450             5.169792
| 71> *
| 72>
| 73>                          ****END OF INPUT****
 Total Charge           Charge          ....    0
 Multiplicity           Mult            ....    1
 Number of Electrons    NEL             ....   36
Dispersion correction           -0.002222824
FINAL SINGLE POINT ENERGY      -231.476815891502
Dispersion correction           -0.000234032
FINAL SINGLE POINT ENERGY      -115.734095299666

CARTESIAN COORDINATES (ANGSTROEM)
---------------------------------
  C      3.964316    3.347006    8.560207
  O      2.798326    3.703831    7.869844
  H      2.181258    4.153824    8.473695
  H      4.313658    4.116674    9.230770
  H      3.796506    2.467997    9.113621
  H      4.797698    3.092619    7.910218
  C      2.851664    1.089842    5.929155
  O      2.800874    2.422255    5.487146
  H      2.805284    3.010479    6.209970
  H      3.445435    0.940129    6.837272
  H      1.843251    0.715008    6.075384
  H      3.338209    0.433450    5.169792

 Multiplicity           Mult            ....    1
 Number of Electrons    NEL             ....   18
 Basis Dimension        Dim             ....  172

ORBITAL ENERGIES
----------------

  NO   OCC          E(Eh)            E(eV)
   0   2.0000     -19.228106      -523.2234
   1   2.0000     -10.314288      -280.6660
   2   2.0000      -1.143431       -31.1143
   3   2.0000      -0.798592       -21.7308
   4   2.0000      -0.617123       -16.7928
   5   2.0000      -0.545009       -14.8305
   6   2.0000      -0.527095       -14.3430
   7   2.0000      -0.429739       -11.6938
   8   2.0000      -0.375049       -10.2056
   9   0.0000       0.070014         1.9052
  10   0.0000       0.141003         3.8369
  11   0.0000       0.147868         4.0237
  12   0.0000       0.165050         4.4912
  13   0.0000       0.190028         5.1709

MULLIKEN ATOMIC CHARGES
-----------------------
   0 C :   -0.002531
   1 O :   -0.008270
   2 H :   -0.000561
   3 H :   -0.000156
   4 H :   -0.000123
   5 H :   -0.000898
   6 C :   -0.162231
   7 O :   -0.468657
   8 H :    0.318563
   9 H :    0.103217
  10 H :    0.106208
  11 H :    0.115438
Sum of atomic charges:    0.0000000

LOEWDIN ATOMIC CHARGES
----------------------
   0 C :   -0.011085
   1 O :   -0.028172
   2 H :   -0.001251
   3 H :   -0.000116
   4 H :   -0.001116
   5 H :   -0.001853
   6 C :   -0.385790
   7 O :   -0.037634
   8 H :    0.162981
   9 H :    0.098194
  10 H :    0.094589
  11 H :    0.111253

  Mayer bond orders larger than 0.1
B(  6-C ,  7-O ) :   0.9894 B(  6-C ,  9-H ) :   0.9743 B(  6-C , 10-H ) :   0.9823
B(  6-C , 11-H ) :   0.9727 B(  7-O ,  8-H ) :   0.9082

Dispersion correction           -0.000247926
FINAL SINGLE POINT ENERGY      -115.735561111547

DIPOLE MOMENT
-------------
                                X             Y             Z
Electronic contribution:     -0.07880       1.73342      -0.65143
Nuclear contribution   :      0.11571      -1.88048       1.29691
                        -----------------------------------------
Total Dipole Moment    :      0.03691      -0.14706       0.64548
                        -----------------------------------------
Magnitude (a.u.)       :      0.66305
Magnitude (Debye)      :      1.68534

Rotational constants in cm-1:     4.388612     0.831729     0.807256
Rotational constants in MHz : 131567.263722 24934.597784 24200.914954

                             ****ORCA TERMINATED NORMALLY****
TOTAL RUN TIME: 0 days 0 hours 1 minutes 5 seconds 508 msec
