                         Program Version 4.1.2  - RELEASE  -
|  1> #Run DFT-D3 single point of the dimer
|  2> ! wB97X-D3 def2-TZVP TIGHTSCF CHELPG PMODEL PAL8
|  3>
|  4> %base "11-68_DFT_AB"
|  5>
|  6> %scf
|  7> MaxIter 1000
|  8> end
|  9>
| 10> * xyz 0 1
| 11>   C                      0.029205             -3.305085            5.575801
| 12>   O                      -1.152025            -2.596991            5.492510
| 13>   H                      -0.980307            -2.042697            4.669758
| 14>   H                      0.889800             -2.641096            5.935441
| 15>   H                      -0.058726            -4.169142            6.203153
| 16>   H                      0.260555             -3.587206            4.550461
| 17>   C                      2.252523             -6.673013            5.579693
| 18>   O                      2.745078             -6.831900            4.302959
| 19>   H                      3.490369             -7.395111            4.429140
| 20>   H                      2.997324             -6.049581            6.236636
| 21>   H                      1.278632             -6.080374            5.543830
| 22>   H                      2.074676             -7.619239            6.189607
| 23> *
| 24>
| 25> #Run DFT-D3 single point of the molecule with dimer basis set
| 26> $new_job
| 27> %base "11-68_DFT_A"
| 28> ! wB97X-D3 def2-TZVP TIGHTSCF CHELPG PMODEL
| 29>
| 30> %scf
| 31> MaxIter 1000
| 32> end
| 33>
| 34> * xyz 0 1
| 35>   C                      0.029205             -3.305085            5.575801
| 36>   O                      -1.152025            -2.596991            5.492510
| 37>   H                      -0.980307            -2.042697            4.669758
| 38>   H                      0.889800             -2.641096            5.935441
| 39>   H                      -0.058726            -4.169142            6.203153
| 40>   H                      0.260555             -3.587206            4.550461
| 41>   C                    : 2.252523             -6.673013            5.579693
| 42>   O                    : 2.745078             -6.831900            4.302959
| 43>   H                    : 3.490369             -7.395111            4.429140
| 44>   H                    : 2.997324             -6.049581            6.236636
| 45>   H                    : 1.278632             -6.080374            5.543830
| 46>   H                    : 2.074676             -7.619239            6.189607
| 47> *
| 48>
| 49> #Run DFT-D3 single point of the particle with dimer basis set
| 50> $new_job
| 51> %base "11-68_DFT_B"
| 52> ! wB97X-D3 def2-TZVP TIGHTSCF CHELPG PMODEL
| 53>
| 54> %scf
| 55> MaxIter 1000
| 56> end
| 57>
| 58> * xyz 0 1
| 59>   C                    : 0.029205             -3.305085            5.575801
| 60>   O                    : -1.152025            -2.596991            5.492510
| 61>   H                    : -0.980307            -2.042697            4.669758
| 62>   H                    : 0.889800             -2.641096            5.935441
| 63>   H                    : -0.058726            -4.169142            6.203153
| 64>   H                    : 0.260555             -3.587206            4.550461
| 65>   C                      2.252523             -6.673013            5.579693
| 66>   O                      2.745078             -6.831900            4.302959
| 67>   H                      3.490369             -7.395111            4.429140
| 68>   H                      2.997324             -6.049581            6.236636
| 69>   H                      1.278632             -6.080374            5.543830
| 70>   H                      2.074676             -7.619239            6.189607
| 71> *
| 72>
| 73>                          ****END OF INPUT****
 Total Charge           Charge          ....    0
 Multiplicity           Mult            ....    1
 Number of Electrons    NEL             ....   36
Dispersion correction           -0.001271677
FINAL SINGLE POINT ENERGY      -231.457938700959
Dispersion correction           -0.000203093
FINAL SINGLE POINT ENERGY      -115.727907942919

CARTESIAN COORDINATES (ANGSTROEM)
---------------------------------
  C      0.029205   -3.305085    5.575801
  O     -1.152025   -2.596991    5.492510
  H     -0.980307   -2.042697    4.669758
  H      0.889800   -2.641096    5.935441
  H     -0.058726   -4.169142    6.203153
  H      0.260555   -3.587206    4.550461
  C      2.252523   -6.673013    5.579693
  O      2.745078   -6.831900    4.302959
  H      3.490369   -7.395111    4.429140
  H      2.997324   -6.049581    6.236636
  H      1.278632   -6.080374    5.543830
  H      2.074676   -7.619239    6.189607

 Multiplicity           Mult            ....    1
 Number of Electrons    NEL             ....   18
 Basis Dimension        Dim             ....  172

ORBITAL ENERGIES
----------------

  NO   OCC          E(Eh)            E(eV)
   0   2.0000     -19.236590      -523.4542
   1   2.0000     -10.328918      -281.0641
   2   2.0000      -1.159314       -31.5465
   3   2.0000      -0.782524       -21.2936
   4   2.0000      -0.620969       -16.8974
   5   2.0000      -0.534131       -14.5345
   6   2.0000      -0.530058       -14.4236
   7   2.0000      -0.437692       -11.9102
   8   2.0000      -0.371005       -10.0956
   9   0.0000       0.087996         2.3945
  10   0.0000       0.116521         3.1707
  11   0.0000       0.148182         4.0322
  12   0.0000       0.177622         4.8333
  13   0.0000       0.187618         5.1053

MULLIKEN ATOMIC CHARGES
-----------------------
   0 C :    0.000328
   1 O :    0.000038
   2 H :    0.000006
   3 H :   -0.000109
   4 H :   -0.001055
   5 H :    0.000407
   6 C :   -0.184672
   7 O :   -0.440202
   8 H :    0.314427
   9 H :    0.088290
  10 H :    0.121693
  11 H :    0.100850
Sum of atomic charges:    0.0000000

LOEWDIN ATOMIC CHARGES
----------------------
   0 C :   -0.004699
   1 O :   -0.000015
   2 H :   -0.000006
   3 H :   -0.000105
   4 H :   -0.003497
   5 H :   -0.000576
   6 C :   -0.437159
   7 O :   -0.035812
   8 H :    0.165274
   9 H :    0.099913
  10 H :    0.119080
  11 H :    0.097602

  Mayer bond orders larger than 0.1
B(  6-C ,  7-O ) :   1.0140 B(  6-C ,  9-H ) :   0.9745 B(  6-C , 10-H ) :   0.9708
B(  6-C , 11-H ) :   0.9637 B(  7-O ,  8-H ) :   0.9024

Dispersion correction           -0.000245037
FINAL SINGLE POINT ENERGY      -115.729304133037

DIPOLE MOMENT
-------------
                                X             Y             Z
Electronic contribution:      0.52295      -0.23706      -1.95253
Nuclear contribution   :     -0.23823      -0.07415       2.44879
                        -----------------------------------------
Total Dipole Moment    :      0.28472      -0.31121       0.49626
                        -----------------------------------------
Magnitude (a.u.)       :      0.65130
Magnitude (Debye)      :      1.65547

Rotational constants in cm-1:     4.013890     0.856593     0.821125
Rotational constants in MHz : 120333.388577 25680.005050 24616.721491

                             ****ORCA TERMINATED NORMALLY****
TOTAL RUN TIME: 0 days 0 hours 1 minutes 11 seconds 452 msec
