                         Program Version 4.1.2  - RELEASE  -
|  1> #Run DFT-D3 single point of the dimer
|  2> ! wB97X-D3 def2-TZVP TIGHTSCF CHELPG PMODEL PAL8
|  3>
|  4> %base "14-44_DFT_AB"
|  5>
|  6> %scf
|  7> MaxIter 1000
|  8> end
|  9>
| 10> * xyz 0 1
| 11>   C                      10.841088            -7.127061            -6.891285
| 12>   O                      10.495546            -7.092162            -5.484353
| 13>   H                      9.956987             -6.291068            -5.245316
| 14>   H                      9.927392             -6.872766            -7.502368
| 15>   H                      11.640231            -6.359361            -7.120319
| 16>   H                      11.277844            -8.122326            -7.267426
| 17>   C                      10.242377            -10.248014           -3.879707
| 18>   O                      9.187961             -11.052101           -4.037601
| 19>   H                      8.501068             -10.580617           -4.604402
| 20>   H                      10.923181            -10.606605           -3.093706
| 21>   H                      10.822002            -10.008953           -4.765578
| 22>   H                      9.877021             -9.244007            -3.470137
| 23> *
| 24>
| 25> #Run DFT-D3 single point of the molecule with dimer basis set
| 26> $new_job
| 27> %base "14-44_DFT_A"
| 28> ! wB97X-D3 def2-TZVP TIGHTSCF CHELPG PMODEL
| 29>
| 30> %scf
| 31> MaxIter 1000
| 32> end
| 33>
| 34> * xyz 0 1
| 35>   C                      10.841088            -7.127061            -6.891285
| 36>   O                      10.495546            -7.092162            -5.484353
| 37>   H                      9.956987             -6.291068            -5.245316
| 38>   H                      9.927392             -6.872766            -7.502368
| 39>   H                      11.640231            -6.359361            -7.120319
| 40>   H                      11.277844            -8.122326            -7.267426
| 41>   C                    : 10.242377            -10.248014           -3.879707
| 42>   O                    : 9.187961             -11.052101           -4.037601
| 43>   H                    : 8.501068             -10.580617           -4.604402
| 44>   H                    : 10.923181            -10.606605           -3.093706
| 45>   H                    : 10.822002            -10.008953           -4.765578
| 46>   H                    : 9.877021             -9.244007            -3.470137
| 47> *
| 48>
| 49> #Run DFT-D3 single point of the particle with dimer basis set
| 50> $new_job
| 51> %base "14-44_DFT_B"
| 52> ! wB97X-D3 def2-TZVP TIGHTSCF CHELPG PMODEL
| 53>
| 54> %scf
| 55> MaxIter 1000
| 56> end
| 57>
| 58> * xyz 0 1
| 59>   C                    : 10.841088            -7.127061            -6.891285
| 60>   O                    : 10.495546            -7.092162            -5.484353
| 61>   H                    : 9.956987             -6.291068            -5.245316
| 62>   H                    : 9.927392             -6.872766            -7.502368
| 63>   H                    : 11.640231            -6.359361            -7.120319
| 64>   H                    : 11.277844            -8.122326            -7.267426
| 65>   C                      10.242377            -10.248014           -3.879707
| 66>   O                      9.187961             -11.052101           -4.037601
| 67>   H                      8.501068             -10.580617           -4.604402
| 68>   H                      10.923181            -10.606605           -3.093706
| 69>   H                      10.822002            -10.008953           -4.765578
| 70>   H                      9.877021             -9.244007            -3.470137
| 71> *
| 72>
| 73>                          ****END OF INPUT****
 Total Charge           Charge          ....    0
 Multiplicity           Mult            ....    1
 Number of Electrons    NEL             ....   36
Dispersion correction           -0.001514213
FINAL SINGLE POINT ENERGY      -231.457917843530
Dispersion correction           -0.000287305
FINAL SINGLE POINT ENERGY      -115.728400187934

CARTESIAN COORDINATES (ANGSTROEM)
---------------------------------
  C     10.841088   -7.127061   -6.891285
  O     10.495546   -7.092162   -5.484353
  H      9.956987   -6.291068   -5.245316
  H      9.927392   -6.872766   -7.502368
  H     11.640231   -6.359361   -7.120319
  H     11.277844   -8.122326   -7.267426
  C     10.242377  -10.248014   -3.879707
  O      9.187961  -11.052101   -4.037601
  H      8.501068  -10.580617   -4.604402
  H     10.923181  -10.606605   -3.093706
  H     10.822002  -10.008953   -4.765578
  H      9.877021   -9.244007   -3.470137

 Multiplicity           Mult            ....    1
 Number of Electrons    NEL             ....   18
 Basis Dimension        Dim             ....  172

ORBITAL ENERGIES
----------------

  NO   OCC          E(Eh)            E(eV)
   0   2.0000     -19.236020      -523.4387
   1   2.0000     -10.310921      -280.5744
   2   2.0000      -1.156473       -31.4692
   3   2.0000      -0.785641       -21.3784
   4   2.0000      -0.622184       -16.9305
   5   2.0000      -0.547434       -14.8964
   6   2.0000      -0.538543       -14.6545
   7   2.0000      -0.422548       -11.4981
   8   2.0000      -0.366597        -9.9756
   9   0.0000       0.076907         2.0927
  10   0.0000       0.112154         3.0519
  11   0.0000       0.149706         4.0737
  12   0.0000       0.155880         4.2417
  13   0.0000       0.191931         5.2227

MULLIKEN ATOMIC CHARGES
-----------------------
   0 C :    0.000047
   1 O :   -0.000620
   2 H :   -0.000244
   3 H :   -0.000037
   4 H :    0.000034
   5 H :   -0.000409
   6 C :   -0.152708
   7 O :   -0.454116
   8 H :    0.324011
   9 H :    0.114241
  10 H :    0.093471
  11 H :    0.076328
Sum of atomic charges:   -0.0000000

LOEWDIN ATOMIC CHARGES
----------------------
   0 C :   -0.001285
   1 O :   -0.002452
   2 H :   -0.000365
   3 H :   -0.000018
   4 H :   -0.000007
   5 H :   -0.000597
   6 C :   -0.460761
   7 O :   -0.033257
   8 H :    0.205736
   9 H :    0.109105
  10 H :    0.087635
  11 H :    0.096265

  Mayer bond orders larger than 0.1
B(  6-C ,  7-O ) :   1.0203 B(  6-C ,  9-H ) :   0.9677 B(  6-C , 10-H ) :   0.9675
B(  6-C , 11-H ) :   0.9899 B(  7-O ,  8-H ) :   0.8839

Dispersion correction           -0.000222484
FINAL SINGLE POINT ENERGY      -115.728097991154

DIPOLE MOMENT
-------------
                                X             Y             Z
Electronic contribution:     -1.34624      -1.40875      -0.24904
Nuclear contribution   :      1.27431       1.95307      -0.04546
                        -----------------------------------------
Total Dipole Moment    :     -0.07193       0.54432      -0.29451
                        -----------------------------------------
Magnitude (a.u.)       :      0.62305
Magnitude (Debye)      :      1.58368

Rotational constants in cm-1:     4.215851     0.898795     0.862167
Rotational constants in MHz : 126388.040654 26945.189320 25847.107357

                             ****ORCA TERMINATED NORMALLY****
TOTAL RUN TIME: 0 days 0 hours 1 minutes 3 seconds 564 msec
