                         Program Version 4.1.2  - RELEASE  -
|  1> #Run DFT-D3 single point of the dimer
|  2> ! wB97X-D3 def2-TZVP TIGHTSCF CHELPG PMODEL PAL8
|  3>
|  4> %base "6-118_DFT_AB"
|  5>
|  6> %scf
|  7> MaxIter 1000
|  8> end
|  9>
| 10> * xyz 0 1
| 11>   C                      6.494887             -9.319664            0.599304
| 12>   O                      6.530466             -9.264981            2.010500
| 13>   H                      6.957669             -10.100235           2.248466
| 14>   H                      5.656828             -9.905448            0.193507
| 15>   H                      6.395575             -8.342034            0.169458
| 16>   H                      7.472226             -9.620610            0.188917
| 17>   C                      5.586763             -5.731699            3.556566
| 18>   O                      6.439240             -6.855940            3.875305
| 19>   H                      6.470313             -7.460647            3.132939
| 20>   H                      4.635582             -6.021316            3.065610
| 21>   H                      5.302791             -4.989773            4.428867
| 22>   H                      6.078548             -5.071582            2.862421
| 23> *
| 24>
| 25> #Run DFT-D3 single point of the molecule with dimer basis set
| 26> $new_job
| 27> %base "6-118_DFT_A"
| 28> ! wB97X-D3 def2-TZVP TIGHTSCF CHELPG PMODEL
| 29>
| 30> %scf
| 31> MaxIter 1000
| 32> end
| 33>
| 34> * xyz 0 1
| 35>   C                      6.494887             -9.319664            0.599304
| 36>   O                      6.530466             -9.264981            2.010500
| 37>   H                      6.957669             -10.100235           2.248466
| 38>   H                      5.656828             -9.905448            0.193507
| 39>   H                      6.395575             -8.342034            0.169458
| 40>   H                      7.472226             -9.620610            0.188917
| 41>   C                    : 5.586763             -5.731699            3.556566
| 42>   O                    : 6.439240             -6.855940            3.875305
| 43>   H                    : 6.470313             -7.460647            3.132939
| 44>   H                    : 4.635582             -6.021316            3.065610
| 45>   H                    : 5.302791             -4.989773            4.428867
| 46>   H                    : 6.078548             -5.071582            2.862421
| 47> *
| 48>
| 49> #Run DFT-D3 single point of the particle with dimer basis set
| 50> $new_job
| 51> %base "6-118_DFT_B"
| 52> ! wB97X-D3 def2-TZVP TIGHTSCF CHELPG PMODEL
| 53>
| 54> %scf
| 55> MaxIter 1000
| 56> end
| 57>
| 58> * xyz 0 1
| 59>   C                    : 6.494887             -9.319664            0.599304
| 60>   O                    : 6.530466             -9.264981            2.010500
| 61>   H                    : 6.957669             -10.100235           2.248466
| 62>   H                    : 5.656828             -9.905448            0.193507
| 63>   H                    : 6.395575             -8.342034            0.169458
| 64>   H                    : 7.472226             -9.620610            0.188917
| 65>   C                      5.586763             -5.731699            3.556566
| 66>   O                      6.439240             -6.855940            3.875305
| 67>   H                      6.470313             -7.460647            3.132939
| 68>   H                      4.635582             -6.021316            3.065610
| 69>   H                      5.302791             -4.989773            4.428867
| 70>   H                      6.078548             -5.071582            2.862421
| 71> *
| 72>
| 73>                          ****END OF INPUT****
 Total Charge           Charge          ....    0
 Multiplicity           Mult            ....    1
 Number of Electrons    NEL             ....   36
Dispersion correction           -0.001487811
FINAL SINGLE POINT ENERGY      -231.468175252087
Dispersion correction           -0.000238372
FINAL SINGLE POINT ENERGY      -115.734006298933

CARTESIAN COORDINATES (ANGSTROEM)
---------------------------------
  C      6.494887   -9.319664    0.599304
  O      6.530466   -9.264981    2.010500
  H      6.957669  -10.100235    2.248466
  H      5.656828   -9.905448    0.193507
  H      6.395575   -8.342034    0.169458
  H      7.472226   -9.620610    0.188917
  C      5.586763   -5.731699    3.556566
  O      6.439240   -6.855940    3.875305
  H      6.470313   -7.460647    3.132939
  H      4.635582   -6.021316    3.065610
  H      5.302791   -4.989773    4.428867
  H      6.078548   -5.071582    2.862421

 Multiplicity           Mult            ....    1
 Number of Electrons    NEL             ....   18
 Basis Dimension        Dim             ....  172

ORBITAL ENERGIES
----------------

  NO   OCC          E(Eh)            E(eV)
   0   2.0000     -19.233370      -523.3666
   1   2.0000     -10.325918      -280.9825
   2   2.0000      -1.127855       -30.6905
   3   2.0000      -0.793968       -21.6050
   4   2.0000      -0.608244       -16.5512
   5   2.0000      -0.534943       -14.5565
   6   2.0000      -0.519292       -14.1307
   7   2.0000      -0.429975       -11.7002
   8   2.0000      -0.375402       -10.2152
   9   0.0000       0.069445         1.8897
  10   0.0000       0.128056         3.4846
  11   0.0000       0.138450         3.7674
  12   0.0000       0.167740         4.5644
  13   0.0000       0.190388         5.1807

MULLIKEN ATOMIC CHARGES
-----------------------
   0 C :   -0.001488
   1 O :   -0.001000
   2 H :   -0.000142
   3 H :    0.000019
   4 H :    0.000056
   5 H :    0.000047
   6 C :   -0.180954
   7 O :   -0.476018
   8 H :    0.314569
   9 H :    0.108247
  10 H :    0.122679
  11 H :    0.113984
Sum of atomic charges:   -0.0000000

LOEWDIN ATOMIC CHARGES
----------------------
   0 C :   -0.002120
   1 O :   -0.011727
   2 H :   -0.000605
   3 H :   -0.000036
   4 H :   -0.000306
   5 H :   -0.000031
   6 C :   -0.377157
   7 O :   -0.091619
   8 H :    0.171144
   9 H :    0.097222
  10 H :    0.125033
  11 H :    0.090204

  Mayer bond orders larger than 0.1
B(  6-C ,  7-O ) :   0.9848 B(  6-C ,  9-H ) :   0.9725 B(  6-C , 10-H ) :   0.9680
B(  6-C , 11-H ) :   0.9773 B(  7-O ,  8-H ) :   0.9025

Dispersion correction           -0.000283681
FINAL SINGLE POINT ENERGY      -115.727063498676

DIPOLE MOMENT
-------------
                                X             Y             Z
Electronic contribution:      1.14573      -1.50097       0.57274
Nuclear contribution   :     -1.47614       1.59292      -1.19850
                        -----------------------------------------
Total Dipole Moment    :     -0.33041       0.09194      -0.62576
                        -----------------------------------------
Magnitude (a.u.)       :      0.71358
Magnitude (Debye)      :      1.81378

Rotational constants in cm-1:     4.334745     0.782761     0.750699
Rotational constants in MHz : 129952.392606 23466.578391 22505.385274

                             ****ORCA TERMINATED NORMALLY****
TOTAL RUN TIME: 0 days 0 hours 1 minutes 5 seconds 834 msec
