                         Program Version 4.1.2  - RELEASE  -
|  1> #Run DFT-D3 single point of the dimer
|  2> ! wB97X-D3 def2-TZVP TIGHTSCF CHELPG PMODEL PAL8
|  3>
|  4> %base "18-186_DFT_AB"
|  5>
|  6> %scf
|  7> MaxIter 1000
|  8> end
|  9>
| 10> * xyz 0 1
| 11>   C                      0.144533             7.444770             -7.804987
| 12>   O                      0.144891             6.880795             -9.100725
| 13>   H                      -0.650697            7.358207             -9.428754
| 14>   H                      0.821578             8.332764             -7.724410
| 15>   H                      -0.873954            7.853683             -7.633560
| 16>   H                      0.352665             6.719431             -7.040636
| 17>   C                      2.532536             4.250372             -10.407954
| 18>   O                      2.136680             4.887346             -9.218160
| 19>   H                      1.826532             5.753218             -9.459123
| 20>   H                      3.161165             4.848346             -11.093476
| 21>   H                      3.211371             3.370717             -10.306538
| 22>   H                      1.683900             3.943087             -11.048109
| 23> *
| 24>
| 25> #Run DFT-D3 single point of the molecule with dimer basis set
| 26> $new_job
| 27> %base "18-186_DFT_A"
| 28> ! wB97X-D3 def2-TZVP TIGHTSCF CHELPG PMODEL
| 29>
| 30> %scf
| 31> MaxIter 1000
| 32> end
| 33>
| 34> * xyz 0 1
| 35>   C                      0.144533             7.444770             -7.804987
| 36>   O                      0.144891             6.880795             -9.100725
| 37>   H                      -0.650697            7.358207             -9.428754
| 38>   H                      0.821578             8.332764             -7.724410
| 39>   H                      -0.873954            7.853683             -7.633560
| 40>   H                      0.352665             6.719431             -7.040636
| 41>   C                    : 2.532536             4.250372             -10.407954
| 42>   O                    : 2.136680             4.887346             -9.218160
| 43>   H                    : 1.826532             5.753218             -9.459123
| 44>   H                    : 3.161165             4.848346             -11.093476
| 45>   H                    : 3.211371             3.370717             -10.306538
| 46>   H                    : 1.683900             3.943087             -11.048109
| 47> *
| 48>
| 49> #Run DFT-D3 single point of the particle with dimer basis set
| 50> $new_job
| 51> %base "18-186_DFT_B"
| 52> ! wB97X-D3 def2-TZVP TIGHTSCF CHELPG PMODEL
| 53>
| 54> %scf
| 55> MaxIter 1000
| 56> end
| 57>
| 58> * xyz 0 1
| 59>   C                    : 0.144533             7.444770             -7.804987
| 60>   O                    : 0.144891             6.880795             -9.100725
| 61>   H                    : -0.650697            7.358207             -9.428754
| 62>   H                    : 0.821578             8.332764             -7.724410
| 63>   H                    : -0.873954            7.853683             -7.633560
| 64>   H                    : 0.352665             6.719431             -7.040636
| 65>   C                      2.532536             4.250372             -10.407954
| 66>   O                      2.136680             4.887346             -9.218160
| 67>   H                      1.826532             5.753218             -9.459123
| 68>   H                      3.161165             4.848346             -11.093476
| 69>   H                      3.211371             3.370717             -10.306538
| 70>   H                      1.683900             3.943087             -11.048109
| 71> *
| 72>
| 73>                          ****END OF INPUT****
 Total Charge           Charge          ....    0
 Multiplicity           Mult            ....    1
 Number of Electrons    NEL             ....   36
Dispersion correction           -0.001542165
FINAL SINGLE POINT ENERGY      -231.465821888268
Dispersion correction           -0.000219988
FINAL SINGLE POINT ENERGY      -115.728729797685

CARTESIAN COORDINATES (ANGSTROEM)
---------------------------------
  C      0.144533    7.444770   -7.804987
  O      0.144891    6.880795   -9.100725
  H     -0.650697    7.358207   -9.428754
  H      0.821578    8.332764   -7.724410
  H     -0.873954    7.853683   -7.633560
  H      0.352665    6.719431   -7.040636
  C      2.532536    4.250372  -10.407954
  O      2.136680    4.887346   -9.218160
  H      1.826532    5.753218   -9.459123
  H      3.161165    4.848346  -11.093476
  H      3.211371    3.370717  -10.306538
  H      1.683900    3.943087  -11.048109

 Multiplicity           Mult            ....    1
 Number of Electrons    NEL             ....   18
 Basis Dimension        Dim             ....  172

ORBITAL ENERGIES
----------------

  NO   OCC          E(Eh)            E(eV)
   0   2.0000     -19.237379      -523.4757
   1   2.0000     -10.318612      -280.7837
   2   2.0000      -1.144799       -31.1516
   3   2.0000      -0.796282       -21.6679
   4   2.0000      -0.618877       -16.8405
   5   2.0000      -0.541189       -14.7265
   6   2.0000      -0.525049       -14.2873
   7   2.0000      -0.431816       -11.7503
   8   2.0000      -0.377402       -10.2696
   9   0.0000       0.077925         2.1205
  10   0.0000       0.127792         3.4774
  11   0.0000       0.151330         4.1179
  12   0.0000       0.169940         4.6243
  13   0.0000       0.193536         5.2664

MULLIKEN ATOMIC CHARGES
-----------------------
   0 C :   -0.002110
   1 O :   -0.003942
   2 H :   -0.000222
   3 H :   -0.000061
   4 H :    0.000170
   5 H :   -0.000864
   6 C :   -0.185113
   7 O :   -0.453911
   8 H :    0.319538
   9 H :    0.102557
  10 H :    0.121021
  11 H :    0.102937
Sum of atomic charges:   -0.0000000

LOEWDIN ATOMIC CHARGES
----------------------
   0 C :   -0.004564
   1 O :   -0.016886
   2 H :   -0.000602
   3 H :   -0.000115
   4 H :   -0.000047
   5 H :   -0.000755
   6 C :   -0.407264
   7 O :   -0.048648
   8 H :    0.174496
   9 H :    0.095336
  10 H :    0.113015
  11 H :    0.096033

  Mayer bond orders larger than 0.1
B(  6-C ,  7-O ) :   1.0113 B(  6-C ,  9-H ) :   0.9786 B(  6-C , 10-H ) :   0.9708
B(  6-C , 11-H ) :   0.9715 B(  7-O ,  8-H ) :   0.8959

Dispersion correction           -0.000262362
FINAL SINGLE POINT ENERGY      -115.732037915883

DIPOLE MOMENT
-------------
                                X             Y             Z
Electronic contribution:     -0.55050       0.74376       1.82891
Nuclear contribution   :      0.53622      -0.43976      -2.44636
                        -----------------------------------------
Total Dipole Moment    :     -0.01428       0.30400      -0.61745
                        -----------------------------------------
Magnitude (a.u.)       :      0.68838
Magnitude (Debye)      :      1.74972

Rotational constants in cm-1:     4.447542     0.816923     0.791080
Rotational constants in MHz : 133333.965835 24490.748925 23715.985201

                             ****ORCA TERMINATED NORMALLY****
TOTAL RUN TIME: 0 days 0 hours 1 minutes 4 seconds 419 msec
