                         Program Version 4.1.2  - RELEASE  -
|  1> #Run DFT-D3 single point of the dimer
|  2> ! wB97X-D3 def2-TZVP TIGHTSCF CHELPG PMODEL PAL8
|  3>
|  4> %base "1-156_DFT_AB"
|  5>
|  6> %scf
|  7> MaxIter 1000
|  8> end
|  9>
| 10> * xyz 0 1
| 11>   C                      -10.737285           -10.905899           -8.526970
| 12>   O                      -11.491148           -9.799804            -8.017945
| 13>   H                      -11.618391           -9.202291            -8.727251
| 14>   H                      -11.160848           -11.255895           -9.449243
| 15>   H                      -9.693300            -10.777547           -8.716372
| 16>   H                      -10.901061           -11.684010           -7.796133
| 17>   C                      -7.665506            -6.396937            -7.930349
| 18>   O                      -8.961169            -5.979547            -7.596647
| 19>   H                      -9.583311            -6.603687            -7.974383
| 20>   H                      -7.340900            -6.289345            -8.998492
| 21>   H                      -6.951267            -5.729065            -7.459180
| 22>   H                      -7.461937            -7.477222            -7.675546
| 23> *
| 24>
| 25> #Run DFT-D3 single point of the molecule with dimer basis set
| 26> $new_job
| 27> %base "1-156_DFT_A"
| 28> ! wB97X-D3 def2-TZVP TIGHTSCF CHELPG PMODEL
| 29>
| 30> %scf
| 31> MaxIter 1000
| 32> end
| 33>
| 34> * xyz 0 1
| 35>   C                      -10.737285           -10.905899           -8.526970
| 36>   O                      -11.491148           -9.799804            -8.017945
| 37>   H                      -11.618391           -9.202291            -8.727251
| 38>   H                      -11.160848           -11.255895           -9.449243
| 39>   H                      -9.693300            -10.777547           -8.716372
| 40>   H                      -10.901061           -11.684010           -7.796133
| 41>   C                    : -7.665506            -6.396937            -7.930349
| 42>   O                    : -8.961169            -5.979547            -7.596647
| 43>   H                    : -9.583311            -6.603687            -7.974383
| 44>   H                    : -7.340900            -6.289345            -8.998492
| 45>   H                    : -6.951267            -5.729065            -7.459180
| 46>   H                    : -7.461937            -7.477222            -7.675546
| 47> *
| 48>
| 49> #Run DFT-D3 single point of the particle with dimer basis set
| 50> $new_job
| 51> %base "1-156_DFT_B"
| 52> ! wB97X-D3 def2-TZVP TIGHTSCF CHELPG PMODEL
| 53>
| 54> %scf
| 55> MaxIter 1000
| 56> end
| 57>
| 58> * xyz 0 1
| 59>   C                    : -10.737285           -10.905899           -8.526970
| 60>   O                    : -11.491148           -9.799804            -8.017945
| 61>   H                    : -11.618391           -9.202291            -8.727251
| 62>   H                    : -11.160848           -11.255895           -9.449243
| 63>   H                    : -9.693300            -10.777547           -8.716372
| 64>   H                    : -10.901061           -11.684010           -7.796133
| 65>   C                      -7.665506            -6.396937            -7.930349
| 66>   O                      -8.961169            -5.979547            -7.596647
| 67>   H                      -9.583311            -6.603687            -7.974383
| 68>   H                      -7.340900            -6.289345            -8.998492
| 69>   H                      -6.951267            -5.729065            -7.459180
| 70>   H                      -7.461937            -7.477222            -7.675546
| 71> *
| 72>
| 73>                          ****END OF INPUT****
 Total Charge           Charge          ....    0
 Multiplicity           Mult            ....    1
 Number of Electrons    NEL             ....   36
Dispersion correction           -0.000899206
FINAL SINGLE POINT ENERGY      -231.467683187994
Dispersion correction           -0.000243110
FINAL SINGLE POINT ENERGY      -115.733808350398

CARTESIAN COORDINATES (ANGSTROEM)
---------------------------------
  C    -10.737285  -10.905899   -8.526970
  O    -11.491148   -9.799804   -8.017945
  H    -11.618391   -9.202291   -8.727251
  H    -11.160848  -11.255895   -9.449243
  H     -9.693300  -10.777547   -8.716372
  H    -10.901061  -11.684010   -7.796133
  C     -7.665506   -6.396937   -7.930349
  O     -8.961169   -5.979547   -7.596647
  H     -9.583311   -6.603687   -7.974383
  H     -7.340900   -6.289345   -8.998492
  H     -6.951267   -5.729065   -7.459180
  H     -7.461937   -7.477222   -7.675546

 Multiplicity           Mult            ....    1
 Number of Electrons    NEL             ....   18
 Basis Dimension        Dim             ....  172

ORBITAL ENERGIES
----------------

  NO   OCC          E(Eh)            E(eV)
   0   2.0000     -19.235390      -523.4216
   1   2.0000     -10.317564      -280.7552
   2   2.0000      -1.142808       -31.0974
   3   2.0000      -0.794105       -21.6087
   4   2.0000      -0.616185       -16.7673
   5   2.0000      -0.541045       -14.7226
   6   2.0000      -0.521573       -14.1927
   7   2.0000      -0.436055       -11.8657
   8   2.0000      -0.373220       -10.1558
   9   0.0000       0.071975         1.9585
  10   0.0000       0.118018         3.2114
  11   0.0000       0.142573         3.8796
  12   0.0000       0.174192         4.7400
  13   0.0000       0.188740         5.1359

MULLIKEN ATOMIC CHARGES
-----------------------
   0 C :    0.000014
   1 O :   -0.000026
   2 H :   -0.000133
   3 H :   -0.000000
   4 H :   -0.000058
   5 H :   -0.000000
   6 C :   -0.165341
   7 O :   -0.462332
   8 H :    0.316350
   9 H :    0.093751
  10 H :    0.119606
  11 H :    0.098170
Sum of atomic charges:    0.0000000

LOEWDIN ATOMIC CHARGES
----------------------
   0 C :   -0.000049
   1 O :   -0.000082
   2 H :   -0.000279
   3 H :   -0.000000
   4 H :   -0.000033
   5 H :   -0.000000
   6 C :   -0.409737
   7 O :   -0.061223
   8 H :    0.169879
   9 H :    0.095667
  10 H :    0.106902
  11 H :    0.098955

  Mayer bond orders larger than 0.1
B(  6-C ,  7-O ) :   1.0132 B(  6-C ,  9-H ) :   0.9663 B(  6-C , 10-H ) :   0.9758
B(  6-C , 11-H ) :   0.9753 B(  7-O ,  8-H ) :   0.8988

Dispersion correction           -0.000263736
FINAL SINGLE POINT ENERGY      -115.733667439822

DIPOLE MOMENT
-------------
                                X             Y             Z
Electronic contribution:     -1.76532       0.66617       0.57818
Nuclear contribution   :      1.86460      -1.19832      -0.93937
                        -----------------------------------------
Total Dipole Moment    :      0.09928      -0.53214      -0.36118
                        -----------------------------------------
Magnitude (a.u.)       :      0.65076
Magnitude (Debye)      :      1.65409

Rotational constants in cm-1:     4.317184     0.831108     0.797510
Rotational constants in MHz : 129425.929254 24915.992696 23908.758692

                             ****ORCA TERMINATED NORMALLY****
TOTAL RUN TIME: 0 days 0 hours 6 minutes 15 seconds 549 msec
