                         Program Version 4.1.2  - RELEASE  -
|  1> #Run DFT-D3 single point of the dimer
|  2> ! wB97X-D3 def2-TZVP TIGHTSCF CHELPG PMODEL PAL8
|  3>
|  4> %base "7-164_DFT_AB"
|  5>
|  6> %scf
|  7> MaxIter 1000
|  8> end
|  9>
| 10> * xyz 0 1
| 11>   C                      4.180189             2.958385             8.920042
| 12>   O                      3.642566             3.049578             7.658122
| 13>   H                      2.858319             2.567582             7.724482
| 14>   H                      5.314890             3.177197             8.823541
| 15>   H                      3.721327             3.587053             9.702145
| 16>   H                      4.083614             1.915289             9.254281
| 17>   C                      1.133568             -0.516884            6.785558
| 18>   O                      1.915771             0.504868             7.331157
| 19>   H                      2.600641             0.127832             7.936668
| 20>   H                      0.461457             -0.935861            7.569601
| 21>   H                      0.563237             -0.144390            5.969614
| 22>   H                      1.757236             -1.298917            6.418166
| 23> *
| 24>
| 25> #Run DFT-D3 single point of the molecule with dimer basis set
| 26> $new_job
| 27> %base "7-164_DFT_A"
| 28> ! wB97X-D3 def2-TZVP TIGHTSCF CHELPG PMODEL
| 29>
| 30> %scf
| 31> MaxIter 1000
| 32> end
| 33>
| 34> * xyz 0 1
| 35>   C                      4.180189             2.958385             8.920042
| 36>   O                      3.642566             3.049578             7.658122
| 37>   H                      2.858319             2.567582             7.724482
| 38>   H                      5.314890             3.177197             8.823541
| 39>   H                      3.721327             3.587053             9.702145
| 40>   H                      4.083614             1.915289             9.254281
| 41>   C                    : 1.133568             -0.516884            6.785558
| 42>   O                    : 1.915771             0.504868             7.331157
| 43>   H                    : 2.600641             0.127832             7.936668
| 44>   H                    : 0.461457             -0.935861            7.569601
| 45>   H                    : 0.563237             -0.144390            5.969614
| 46>   H                    : 1.757236             -1.298917            6.418166
| 47> *
| 48>
| 49> #Run DFT-D3 single point of the particle with dimer basis set
| 50> $new_job
| 51> %base "7-164_DFT_B"
| 52> ! wB97X-D3 def2-TZVP TIGHTSCF CHELPG PMODEL
| 53>
| 54> %scf
| 55> MaxIter 1000
| 56> end
| 57>
| 58> * xyz 0 1
| 59>   C                    : 4.180189             2.958385             8.920042
| 60>   O                    : 3.642566             3.049578             7.658122
| 61>   H                    : 2.858319             2.567582             7.724482
| 62>   H                    : 5.314890             3.177197             8.823541
| 63>   H                    : 3.721327             3.587053             9.702145
| 64>   H                    : 4.083614             1.915289             9.254281
| 65>   C                      1.133568             -0.516884            6.785558
| 66>   O                      1.915771             0.504868             7.331157
| 67>   H                      2.600641             0.127832             7.936668
| 68>   H                      0.461457             -0.935861            7.569601
| 69>   H                      0.563237             -0.144390            5.969614
| 70>   H                      1.757236             -1.298917            6.418166
| 71> *
| 72>
| 73>                          ****END OF INPUT****
 Total Charge           Charge          ....    0
 Multiplicity           Mult            ....    1
 Number of Electrons    NEL             ....   36
Dispersion correction           -0.001502472
FINAL SINGLE POINT ENERGY      -231.469171660449
Dispersion correction           -0.000219000
FINAL SINGLE POINT ENERGY      -115.729981117801

CARTESIAN COORDINATES (ANGSTROEM)
---------------------------------
  C      4.180189    2.958385    8.920042
  O      3.642566    3.049578    7.658122
  H      2.858319    2.567582    7.724482
  H      5.314890    3.177197    8.823541
  H      3.721327    3.587053    9.702145
  H      4.083614    1.915289    9.254281
  C      1.133568   -0.516884    6.785558
  O      1.915771    0.504868    7.331157
  H      2.600641    0.127832    7.936668
  H      0.461457   -0.935861    7.569601
  H      0.563237   -0.144390    5.969614
  H      1.757236   -1.298917    6.418166

 Multiplicity           Mult            ....    1
 Number of Electrons    NEL             ....   18
 Basis Dimension        Dim             ....  172

ORBITAL ENERGIES
----------------

  NO   OCC          E(Eh)            E(eV)
   0   2.0000     -19.229416      -523.2590
   1   2.0000     -10.307000      -280.4677
   2   2.0000      -1.133777       -30.8517
   3   2.0000      -0.795532       -21.6475
   4   2.0000      -0.610445       -16.6111
   5   2.0000      -0.543900       -14.8003
   6   2.0000      -0.534124       -14.5343
   7   2.0000      -0.429993       -11.7007
   8   2.0000      -0.369834       -10.0637
   9   0.0000       0.088831         2.4172
  10   0.0000       0.124685         3.3928
  11   0.0000       0.157263         4.2794
  12   0.0000       0.186425         5.0729
  13   0.0000       0.201809         5.4915

MULLIKEN ATOMIC CHARGES
-----------------------
   0 C :   -0.000244
   1 O :   -0.000034
   2 H :   -0.008571
   3 H :    0.000049
   4 H :    0.000011
   5 H :   -0.000633
   6 C :   -0.154786
   7 O :   -0.474603
   8 H :    0.319178
   9 H :    0.094684
  10 H :    0.122376
  11 H :    0.102572
Sum of atomic charges:    0.0000000

LOEWDIN ATOMIC CHARGES
----------------------
   0 C :   -0.001959
   1 O :   -0.002963
   2 H :   -0.018541
   3 H :   -0.000014
   4 H :   -0.000012
   5 H :   -0.001096
   6 C :   -0.389192
   7 O :   -0.064928
   8 H :    0.188457
   9 H :    0.098448
  10 H :    0.102357
  11 H :    0.089442

  Mayer bond orders larger than 0.1
B(  6-C ,  7-O ) :   0.9929 B(  6-C ,  9-H ) :   0.9771 B(  6-C , 10-H ) :   0.9741
B(  6-C , 11-H ) :   0.9800 B(  7-O ,  8-H ) :   0.8892

Dispersion correction           -0.000226876
FINAL SINGLE POINT ENERGY      -115.734695953372

DIPOLE MOMENT
-------------
                                X             Y             Z
Electronic contribution:      0.89695       1.40397       0.53800
Nuclear contribution   :     -0.76457      -2.05762      -0.40206
                        -----------------------------------------
Total Dipole Moment    :      0.13238      -0.65365       0.13595
                        -----------------------------------------
Magnitude (a.u.)       :      0.68064
Magnitude (Debye)      :      1.73004

Rotational constants in cm-1:     4.314747     0.848337     0.819511
Rotational constants in MHz : 129352.850836 25432.504256 24568.331706

                             ****ORCA TERMINATED NORMALLY****
TOTAL RUN TIME: 0 days 0 hours 1 minutes 8 seconds 347 msec
