                         Program Version 4.1.2  - RELEASE  -
|  1> #Run DFT-D3 single point of the dimer
|  2> ! wB97X-D3 def2-TZVP TIGHTSCF CHELPG PMODEL PAL8
|  3>
|  4> %base "6-68_DFT_AB"
|  5>
|  6> %scf
|  7> MaxIter 1000
|  8> end
|  9>
| 10> * xyz 0 1
| 11>   C                      -6.106169            -7.139025            5.478536
| 12>   O                      -7.250673            -6.358448            5.904261
| 13>   H                      -7.580413            -5.854131            5.158850
| 14>   H                      -5.225424            -6.537199            5.228452
| 15>   H                      -5.853161            -7.888103            6.266709
| 16>   H                      -6.381485            -7.683977            4.536477
| 17>   C                      -2.824209            -7.043111            1.849998
| 18>   O                      -2.415118            -5.932369            1.193276
| 19>   H                      -1.603743            -6.021471            0.731254
| 20>   H                      -1.950311            -7.530693            2.177517
| 21>   H                      -3.591103            -6.913765            2.613869
| 22>   H                      -3.313529            -7.756251            1.091547
| 23> *
| 24>
| 25> #Run DFT-D3 single point of the molecule with dimer basis set
| 26> $new_job
| 27> %base "6-68_DFT_A"
| 28> ! wB97X-D3 def2-TZVP TIGHTSCF CHELPG PMODEL
| 29>
| 30> %scf
| 31> MaxIter 1000
| 32> end
| 33>
| 34> * xyz 0 1
| 35>   C                      -6.106169            -7.139025            5.478536
| 36>   O                      -7.250673            -6.358448            5.904261
| 37>   H                      -7.580413            -5.854131            5.158850
| 38>   H                      -5.225424            -6.537199            5.228452
| 39>   H                      -5.853161            -7.888103            6.266709
| 40>   H                      -6.381485            -7.683977            4.536477
| 41>   C                    : -2.824209            -7.043111            1.849998
| 42>   O                    : -2.415118            -5.932369            1.193276
| 43>   H                    : -1.603743            -6.021471            0.731254
| 44>   H                    : -1.950311            -7.530693            2.177517
| 45>   H                    : -3.591103            -6.913765            2.613869
| 46>   H                    : -3.313529            -7.756251            1.091547
| 47> *
| 48>
| 49> #Run DFT-D3 single point of the particle with dimer basis set
| 50> $new_job
| 51> %base "6-68_DFT_B"
| 52> ! wB97X-D3 def2-TZVP TIGHTSCF CHELPG PMODEL
| 53>
| 54> %scf
| 55> MaxIter 1000
| 56> end
| 57>
| 58> * xyz 0 1
| 59>   C                    : -6.106169            -7.139025            5.478536
| 60>   O                    : -7.250673            -6.358448            5.904261
| 61>   H                    : -7.580413            -5.854131            5.158850
| 62>   H                    : -5.225424            -6.537199            5.228452
| 63>   H                    : -5.853161            -7.888103            6.266709
| 64>   H                    : -6.381485            -7.683977            4.536477
| 65>   C                      -2.824209            -7.043111            1.849998
| 66>   O                      -2.415118            -5.932369            1.193276
| 67>   H                      -1.603743            -6.021471            0.731254
| 68>   H                      -1.950311            -7.530693            2.177517
| 69>   H                      -3.591103            -6.913765            2.613869
| 70>   H                      -3.313529            -7.756251            1.091547
| 71> *
| 72>
| 73>                          ****END OF INPUT****
 Total Charge           Charge          ....    0
 Multiplicity           Mult            ....    1
 Number of Electrons    NEL             ....   36
Dispersion correction           -0.000869403
FINAL SINGLE POINT ENERGY      -231.460446709103
Dispersion correction           -0.000261243
FINAL SINGLE POINT ENERGY      -115.734715318421

CARTESIAN COORDINATES (ANGSTROEM)
---------------------------------
  C     -6.106169   -7.139025    5.478536
  O     -7.250673   -6.358448    5.904261
  H     -7.580413   -5.854131    5.158850
  H     -5.225424   -6.537199    5.228452
  H     -5.853161   -7.888103    6.266709
  H     -6.381485   -7.683977    4.536477
  C     -2.824209   -7.043111    1.849998
  O     -2.415118   -5.932369    1.193276
  H     -1.603743   -6.021471    0.731254
  H     -1.950311   -7.530693    2.177517
  H     -3.591103   -6.913765    2.613869
  H     -3.313529   -7.756251    1.091547

 Multiplicity           Mult            ....    1
 Number of Electrons    NEL             ....   18
 Basis Dimension        Dim             ....  172

ORBITAL ENERGIES
----------------

  NO   OCC          E(Eh)            E(eV)
   0   2.0000     -19.223146      -523.0884
   1   2.0000     -10.310214      -280.5552
   2   2.0000      -1.155880       -31.4531
   3   2.0000      -0.798117       -21.7179
   4   2.0000      -0.626922       -17.0594
   5   2.0000      -0.554091       -15.0776
   6   2.0000      -0.535471       -14.5709
   7   2.0000      -0.422909       -11.5079
   8   2.0000      -0.361760        -9.8440
   9   0.0000       0.085261         2.3201
  10   0.0000       0.116795         3.1781
  11   0.0000       0.149783         4.0758
  12   0.0000       0.170173         4.6306
  13   0.0000       0.191258         5.2044

MULLIKEN ATOMIC CHARGES
-----------------------
   0 C :   -0.000057
   1 O :    0.000001
   2 H :   -0.000003
   3 H :   -0.000092
   4 H :    0.000003
   5 H :   -0.000039
   6 C :   -0.146290
   7 O :   -0.471384
   8 H :    0.319058
   9 H :    0.099074
  10 H :    0.122424
  11 H :    0.077306
Sum of atomic charges:   -0.0000000

LOEWDIN ATOMIC CHARGES
----------------------
   0 C :   -0.000579
   1 O :   -0.000006
   2 H :   -0.000001
   3 H :   -0.000618
   4 H :   -0.000003
   5 H :   -0.000130
   6 C :   -0.423976
   7 O :   -0.025867
   8 H :    0.159441
   9 H :    0.086881
  10 H :    0.106858
  11 H :    0.098001

  Mayer bond orders larger than 0.1
B(  6-C ,  7-O ) :   1.0048 B(  6-C ,  9-H ) :   0.9936 B(  6-C , 10-H ) :   0.9659
B(  6-C , 11-H ) :   0.9796 B(  7-O ,  8-H ) :   0.8947

Dispersion correction           -0.000218024
FINAL SINGLE POINT ENERGY      -115.725301483235

DIPOLE MOMENT
-------------
                                X             Y             Z
Electronic contribution:      0.49119       1.65363      -0.61736
Nuclear contribution   :     -0.07652      -2.11382       0.58160
                        -----------------------------------------
Total Dipole Moment    :      0.41467      -0.46020      -0.03577
                        -----------------------------------------
Magnitude (a.u.)       :      0.62049
Magnitude (Debye)      :      1.57716

Rotational constants in cm-1:     4.424594     0.885902     0.853776
Rotational constants in MHz : 132646.000073 26558.679600 25595.569549

                             ****ORCA TERMINATED NORMALLY****
TOTAL RUN TIME: 0 days 0 hours 1 minutes 4 seconds 13 msec
