                         Program Version 4.1.2  - RELEASE  -
|  1> #Run DFT-D3 single point of the dimer
|  2> ! wB97X-D3 def2-TZVP TIGHTSCF CHELPG PMODEL PAL8
|  3>
|  4> %base "6-29_DFT_AB"
|  5>
|  6> %scf
|  7> MaxIter 1000
|  8> end
|  9>
| 10> * xyz 0 1
| 11>   C                      -0.715228            1.050743             2.453242
| 12>   O                      -1.854007            0.340821             2.144338
| 13>   H                      -2.633239            0.803480             2.639829
| 14>   H                      -0.871798            2.130612             2.284487
| 15>   H                      -0.449429            0.971583             3.539397
| 16>   H                      0.102194             0.804007             1.757111
| 17>   C                      2.296306             -2.463585            5.965098
| 18>   O                      3.335485             -1.459262            6.217298
| 19>   H                      3.961326             -1.631534            6.948087
| 20>   H                      1.859094             -2.983333            6.852082
| 21>   H                      1.470109             -2.070292            5.401378
| 22>   H                      2.752099             -3.228727            5.416353
| 23> *
| 24>
| 25> #Run DFT-D3 single point of the molecule with dimer basis set
| 26> $new_job
| 27> %base "6-29_DFT_A"
| 28> ! wB97X-D3 def2-TZVP TIGHTSCF CHELPG PMODEL
| 29>
| 30> %scf
| 31> MaxIter 1000
| 32> end
| 33>
| 34> * xyz 0 1
| 35>   C                      -0.715228            1.050743             2.453242
| 36>   O                      -1.854007            0.340821             2.144338
| 37>   H                      -2.633239            0.803480             2.639829
| 38>   H                      -0.871798            2.130612             2.284487
| 39>   H                      -0.449429            0.971583             3.539397
| 40>   H                      0.102194             0.804007             1.757111
| 41>   C                    : 2.296306             -2.463585            5.965098
| 42>   O                    : 3.335485             -1.459262            6.217298
| 43>   H                    : 3.961326             -1.631534            6.948087
| 44>   H                    : 1.859094             -2.983333            6.852082
| 45>   H                    : 1.470109             -2.070292            5.401378
| 46>   H                    : 2.752099             -3.228727            5.416353
| 47> *
| 48>
| 49> #Run DFT-D3 single point of the particle with dimer basis set
| 50> $new_job
| 51> %base "6-29_DFT_B"
| 52> ! wB97X-D3 def2-TZVP TIGHTSCF CHELPG PMODEL
| 53>
| 54> %scf
| 55> MaxIter 1000
| 56> end
| 57>
| 58> * xyz 0 1
| 59>   C                    : -0.715228            1.050743             2.453242
| 60>   O                    : -1.854007            0.340821             2.144338
| 61>   H                    : -2.633239            0.803480             2.639829
| 62>   H                    : -0.871798            2.130612             2.284487
| 63>   H                    : -0.449429            0.971583             3.539397
| 64>   H                    : 0.102194             0.804007             1.757111
| 65>   C                      2.296306             -2.463585            5.965098
| 66>   O                      3.335485             -1.459262            6.217298
| 67>   H                      3.961326             -1.631534            6.948087
| 68>   H                      1.859094             -2.983333            6.852082
| 69>   H                      1.470109             -2.070292            5.401378
| 70>   H                      2.752099             -3.228727            5.416353
| 71> *
| 72>
| 73>                          ****END OF INPUT****
 Total Charge           Charge          ....    0
 Multiplicity           Mult            ....    1
 Number of Electrons    NEL             ....   36
Dispersion correction           -0.000656261
FINAL SINGLE POINT ENERGY      -231.456605233228
Dispersion correction           -0.000228270
FINAL SINGLE POINT ENERGY      -115.729055366254

CARTESIAN COORDINATES (ANGSTROEM)
---------------------------------
  C     -0.715228    1.050743    2.453242
  O     -1.854007    0.340821    2.144338
  H     -2.633239    0.803480    2.639829
  H     -0.871798    2.130612    2.284487
  H     -0.449429    0.971583    3.539397
  H      0.102194    0.804007    1.757111
  C      2.296306   -2.463585    5.965098
  O      3.335485   -1.459262    6.217298
  H      3.961326   -1.631534    6.948087
  H      1.859094   -2.983333    6.852082
  H      1.470109   -2.070292    5.401378
  H      2.752099   -3.228727    5.416353

 Multiplicity           Mult            ....    1
 Number of Electrons    NEL             ....   18
 Basis Dimension        Dim             ....  172

ORBITAL ENERGIES
----------------

  NO   OCC          E(Eh)            E(eV)
   0   2.0000     -19.226959      -523.1922
   1   2.0000     -10.313799      -280.6527
   2   2.0000      -1.110584       -30.2205
   3   2.0000      -0.804354       -21.8876
   4   2.0000      -0.602329       -16.3902
   5   2.0000      -0.539706       -14.6862
   6   2.0000      -0.519767       -14.1436
   7   2.0000      -0.426172       -11.5967
   8   2.0000      -0.371992       -10.1224
   9   0.0000       0.087891         2.3916
  10   0.0000       0.115492         3.1427
  11   0.0000       0.144925         3.9436
  12   0.0000       0.167375         4.5545
  13   0.0000       0.182526         4.9668

MULLIKEN ATOMIC CHARGES
-----------------------
   0 C :   -0.000051
   1 O :    0.000003
   2 H :    0.000001
   3 H :    0.000000
   4 H :    0.000034
   5 H :   -0.000000
   6 C :   -0.157368
   7 O :   -0.510346
   8 H :    0.320829
   9 H :    0.101388
  10 H :    0.128606
  11 H :    0.116906
Sum of atomic charges:   -0.0000000

LOEWDIN ATOMIC CHARGES
----------------------
   0 C :   -0.000031
   1 O :   -0.000000
   2 H :   -0.000000
   3 H :   -0.000000
   4 H :   -0.000025
   5 H :   -0.000001
   6 C :   -0.340023
   7 O :   -0.127374
   8 H :    0.172875
   9 H :    0.101030
  10 H :    0.105346
  11 H :    0.088203

  Mayer bond orders larger than 0.1
B(  6-C ,  7-O ) :   0.9835 B(  6-C ,  9-H ) :   0.9717 B(  6-C , 10-H ) :   0.9707
B(  6-C , 11-H ) :   0.9824 B(  7-O ,  8-H ) :   0.8891

Dispersion correction           -0.000293663
FINAL SINGLE POINT ENERGY      -115.727192793207

DIPOLE MOMENT
-------------
                                X             Y             Z
Electronic contribution:      1.18082       1.34548       0.20584
Nuclear contribution   :     -1.23672      -1.92325       0.15020
                        -----------------------------------------
Total Dipole Moment    :     -0.05590      -0.57776       0.35603
                        -----------------------------------------
Magnitude (a.u.)       :      0.68095
Magnitude (Debye)      :      1.73084

Rotational constants in cm-1:     4.573308     0.769207     0.741968
Rotational constants in MHz : 137104.321487 23060.257929 22243.628070

                             ****ORCA TERMINATED NORMALLY****
TOTAL RUN TIME: 0 days 0 hours 0 minutes 59 seconds 49 msec
