                         Program Version 4.1.2  - RELEASE  -
|  1> #Run DFT-D3 single point of the dimer
|  2> ! wB97X-D3 def2-TZVP TIGHTSCF CHELPG PMODEL PAL8
|  3>
|  4> %base "22-89_DFT_AB"
|  5>
|  6> %scf
|  7> MaxIter 1000
|  8> end
|  9>
| 10> * xyz 0 1
| 11>   C                      2.808889             0.844054             -8.414163
| 12>   O                      2.751306             -0.322919            -7.643315
| 13>   H                      2.321928             -0.062151            -6.767259
| 14>   H                      3.391022             0.885911             -9.374107
| 15>   H                      1.750066             0.987597             -8.760820
| 16>   H                      3.044555             1.683032             -7.747926
| 17>   C                      1.442386             -2.274042            -9.890710
| 18>   O                      0.592274             -2.089816            -8.804962
| 19>   H                      0.747935             -1.204462            -8.573068
| 20>   H                      1.681016             -1.319483            -10.309592
| 21>   H                      2.439277             -2.726638            -9.619208
| 22>   H                      0.897639             -2.841825            -10.695493
| 23> *
| 24>
| 25> #Run DFT-D3 single point of the molecule with dimer basis set
| 26> $new_job
| 27> %base "22-89_DFT_A"
| 28> ! wB97X-D3 def2-TZVP TIGHTSCF CHELPG PMODEL
| 29>
| 30> %scf
| 31> MaxIter 1000
| 32> end
| 33>
| 34> * xyz 0 1
| 35>   C                      2.808889             0.844054             -8.414163
| 36>   O                      2.751306             -0.322919            -7.643315
| 37>   H                      2.321928             -0.062151            -6.767259
| 38>   H                      3.391022             0.885911             -9.374107
| 39>   H                      1.750066             0.987597             -8.760820
| 40>   H                      3.044555             1.683032             -7.747926
| 41>   C                    : 1.442386             -2.274042            -9.890710
| 42>   O                    : 0.592274             -2.089816            -8.804962
| 43>   H                    : 0.747935             -1.204462            -8.573068
| 44>   H                    : 1.681016             -1.319483            -10.309592
| 45>   H                    : 2.439277             -2.726638            -9.619208
| 46>   H                    : 0.897639             -2.841825            -10.695493
| 47> *
| 48>
| 49> #Run DFT-D3 single point of the particle with dimer basis set
| 50> $new_job
| 51> %base "22-89_DFT_B"
| 52> ! wB97X-D3 def2-TZVP TIGHTSCF CHELPG PMODEL
| 53>
| 54> %scf
| 55> MaxIter 1000
| 56> end
| 57>
| 58> * xyz 0 1
| 59>   C                    : 2.808889             0.844054             -8.414163
| 60>   O                    : 2.751306             -0.322919            -7.643315
| 61>   H                    : 2.321928             -0.062151            -6.767259
| 62>   H                    : 3.391022             0.885911             -9.374107
| 63>   H                    : 1.750066             0.987597             -8.760820
| 64>   H                    : 3.044555             1.683032             -7.747926
| 65>   C                      1.442386             -2.274042            -9.890710
| 66>   O                      0.592274             -2.089816            -8.804962
| 67>   H                      0.747935             -1.204462            -8.573068
| 68>   H                      1.681016             -1.319483            -10.309592
| 69>   H                      2.439277             -2.726638            -9.619208
| 70>   H                      0.897639             -2.841825            -10.695493
| 71> *
| 72>
| 73>                          ****END OF INPUT****
 Total Charge           Charge          ....    0
 Multiplicity           Mult            ....    1
 Number of Electrons    NEL             ....   36
Dispersion correction           -0.002330301
FINAL SINGLE POINT ENERGY      -231.457971757060
Dispersion correction           -0.000226306
FINAL SINGLE POINT ENERGY      -115.724249174899

CARTESIAN COORDINATES (ANGSTROEM)
---------------------------------
  C      2.808889    0.844054   -8.414163
  O      2.751306   -0.322919   -7.643315
  H      2.321928   -0.062151   -6.767259
  H      3.391022    0.885911   -9.374107
  H      1.750066    0.987597   -8.760820
  H      3.044555    1.683032   -7.747926
  C      1.442386   -2.274042   -9.890710
  O      0.592274   -2.089816   -8.804962
  H      0.747935   -1.204462   -8.573068
  H      1.681016   -1.319483  -10.309592
  H      2.439277   -2.726638   -9.619208
  H      0.897639   -2.841825  -10.695493

 Multiplicity           Mult            ....    1
 Number of Electrons    NEL             ....   18
 Basis Dimension        Dim             ....  172

ORBITAL ENERGIES
----------------

  NO   OCC          E(Eh)            E(eV)
   0   2.0000     -19.229878      -523.2716
   1   2.0000     -10.316215      -280.7185
   2   2.0000      -1.155500       -31.4427
   3   2.0000      -0.791470       -21.5370
   4   2.0000      -0.623715       -16.9721
   5   2.0000      -0.544247       -14.8097
   6   2.0000      -0.526508       -14.3270
   7   2.0000      -0.436791       -11.8857
   8   2.0000      -0.375478       -10.2173
   9   0.0000       0.068810         1.8724
  10   0.0000       0.141585         3.8527
  11   0.0000       0.144250         3.9253
  12   0.0000       0.158283         4.3071
  13   0.0000       0.196729         5.3533

MULLIKEN ATOMIC CHARGES
-----------------------
   0 C :   -0.000680
   1 O :   -0.003467
   2 H :   -0.000888
   3 H :   -0.000137
   4 H :   -0.001081
   5 H :    0.000018
   6 C :   -0.168217
   7 O :   -0.448564
   8 H :    0.308465
   9 H :    0.100745
  10 H :    0.096761
  11 H :    0.117046
Sum of atomic charges:    0.0000000

LOEWDIN ATOMIC CHARGES
----------------------
   0 C :   -0.006709
   1 O :   -0.007656
   2 H :   -0.001495
   3 H :   -0.000669
   4 H :   -0.001939
   5 H :   -0.000044
   6 C :   -0.403236
   7 O :   -0.035548
   8 H :    0.153034
   9 H :    0.090914
  10 H :    0.101923
  11 H :    0.111428

  Mayer bond orders larger than 0.1
B(  6-C ,  7-O ) :   0.9973 B(  6-C ,  9-H ) :   0.9921 B(  6-C , 10-H ) :   0.9711
B(  6-C , 11-H ) :   0.9741 B(  7-O ,  8-H ) :   0.9161

Dispersion correction           -0.000225630
FINAL SINGLE POINT ENERGY      -115.730874740587

DIPOLE MOMENT
-------------
                                X             Y             Z
Electronic contribution:     -1.18307       0.05810       1.45783
Nuclear contribution   :      1.58361       0.47890      -1.72684
                        -----------------------------------------
Total Dipole Moment    :      0.40054       0.53701      -0.26901
                        -----------------------------------------
Magnitude (a.u.)       :      0.72193
Magnitude (Debye)      :      1.83499

Rotational constants in cm-1:     4.212356     0.856371     0.831468
Rotational constants in MHz : 126283.269012 25673.355546 24926.772506

                             ****ORCA TERMINATED NORMALLY****
TOTAL RUN TIME: 0 days 0 hours 1 minutes 1 seconds 379 msec
