                         Program Version 4.1.2  - RELEASE  -
|  1> #Run DFT-D3 single point of the dimer
|  2> ! wB97X-D3 def2-TZVP TIGHTSCF CHELPG PMODEL PAL8
|  3>
|  4> %base "1-180_DFT_AB"
|  5>
|  6> %scf
|  7> MaxIter 1000
|  8> end
|  9>
| 10> * xyz 0 1
| 11>   C                      -2.822106            -6.085736            -1.176755
| 12>   O                      -3.789893            -5.113760            -1.527374
| 13>   H                      -3.604599            -4.836163            -2.428664
| 14>   H                      -2.878107            -6.458377            -0.129660
| 15>   H                      -3.004079            -7.001722            -1.785518
| 16>   H                      -1.772032            -5.826970            -1.226930
| 17>   C                      -6.114271            -4.174263            -4.433466
| 18>   O                      -5.494670            -2.928369            -4.092516
| 19>   H                      -4.533697            -2.975098            -4.012749
| 20>   H                      -6.480982            -4.712289            -3.577689
| 21>   H                      -6.874887            -4.023896            -5.194205
| 22>   H                      -5.447837            -4.851980            -5.023642
| 23> *
| 24>
| 25> #Run DFT-D3 single point of the molecule with dimer basis set
| 26> $new_job
| 27> %base "1-180_DFT_A"
| 28> ! wB97X-D3 def2-TZVP TIGHTSCF CHELPG PMODEL
| 29>
| 30> %scf
| 31> MaxIter 1000
| 32> end
| 33>
| 34> * xyz 0 1
| 35>   C                      -2.822106            -6.085736            -1.176755
| 36>   O                      -3.789893            -5.113760            -1.527374
| 37>   H                      -3.604599            -4.836163            -2.428664
| 38>   H                      -2.878107            -6.458377            -0.129660
| 39>   H                      -3.004079            -7.001722            -1.785518
| 40>   H                      -1.772032            -5.826970            -1.226930
| 41>   C                    : -6.114271            -4.174263            -4.433466
| 42>   O                    : -5.494670            -2.928369            -4.092516
| 43>   H                    : -4.533697            -2.975098            -4.012749
| 44>   H                    : -6.480982            -4.712289            -3.577689
| 45>   H                    : -6.874887            -4.023896            -5.194205
| 46>   H                    : -5.447837            -4.851980            -5.023642
| 47> *
| 48>
| 49> #Run DFT-D3 single point of the particle with dimer basis set
| 50> $new_job
| 51> %base "1-180_DFT_B"
| 52> ! wB97X-D3 def2-TZVP TIGHTSCF CHELPG PMODEL
| 53>
| 54> %scf
| 55> MaxIter 1000
| 56> end
| 57>
| 58> * xyz 0 1
| 59>   C                    : -2.822106            -6.085736            -1.176755
| 60>   O                    : -3.789893            -5.113760            -1.527374
| 61>   H                    : -3.604599            -4.836163            -2.428664
| 62>   H                    : -2.878107            -6.458377            -0.129660
| 63>   H                    : -3.004079            -7.001722            -1.785518
| 64>   H                    : -1.772032            -5.826970            -1.226930
| 65>   C                      -6.114271            -4.174263            -4.433466
| 66>   O                      -5.494670            -2.928369            -4.092516
| 67>   H                      -4.533697            -2.975098            -4.012749
| 68>   H                      -6.480982            -4.712289            -3.577689
| 69>   H                      -6.874887            -4.023896            -5.194205
| 70>   H                      -5.447837            -4.851980            -5.023642
| 71> *
| 72>
| 73>                          ****END OF INPUT****
 Total Charge           Charge          ....    0
 Multiplicity           Mult            ....    1
 Number of Electrons    NEL             ....   36
Dispersion correction           -0.001514127
FINAL SINGLE POINT ENERGY      -231.463324682407
Dispersion correction           -0.000261936
FINAL SINGLE POINT ENERGY      -115.732029786877

CARTESIAN COORDINATES (ANGSTROEM)
---------------------------------
  C     -2.822106   -6.085736   -1.176755
  O     -3.789893   -5.113760   -1.527374
  H     -3.604599   -4.836163   -2.428664
  H     -2.878107   -6.458377   -0.129660
  H     -3.004079   -7.001722   -1.785518
  H     -1.772032   -5.826970   -1.226930
  C     -6.114271   -4.174263   -4.433466
  O     -5.494670   -2.928369   -4.092516
  H     -4.533697   -2.975098   -4.012749
  H     -6.480982   -4.712289   -3.577689
  H     -6.874887   -4.023896   -5.194205
  H     -5.447837   -4.851980   -5.023642

 Multiplicity           Mult            ....    1
 Number of Electrons    NEL             ....   18
 Basis Dimension        Dim             ....  172

ORBITAL ENERGIES
----------------

  NO   OCC          E(Eh)            E(eV)
   0   2.0000     -19.229358      -523.2574
   1   2.0000     -10.315416      -280.6967
   2   2.0000      -1.125503       -30.6265
   3   2.0000      -0.800043       -21.7703
   4   2.0000      -0.608889       -16.5687
   5   2.0000      -0.549273       -14.9465
   6   2.0000      -0.516775       -14.0622
   7   2.0000      -0.420687       -11.4475
   8   2.0000      -0.378342       -10.2952
   9   0.0000       0.078506         2.1363
  10   0.0000       0.116569         3.1720
  11   0.0000       0.148256         4.0343
  12   0.0000       0.180447         4.9102
  13   0.0000       0.191682         5.2159

MULLIKEN ATOMIC CHARGES
-----------------------
   0 C :    0.000262
   1 O :    0.000399
   2 H :   -0.004224
   3 H :    0.000004
   4 H :    0.000002
   5 H :   -0.000027
   6 C :   -0.166434
   7 O :   -0.492171
   8 H :    0.320358
   9 H :    0.116372
  10 H :    0.123912
  11 H :    0.101545
Sum of atomic charges:   -0.0000000

LOEWDIN ATOMIC CHARGES
----------------------
   0 C :   -0.000063
   1 O :   -0.000587
   2 H :   -0.003360
   3 H :   -0.000003
   4 H :   -0.000009
   5 H :   -0.000001
   6 C :   -0.373569
   7 O :   -0.092797
   8 H :    0.168508
   9 H :    0.094348
  10 H :    0.105898
  11 H :    0.101635

  Mayer bond orders larger than 0.1
B(  6-C ,  7-O ) :   0.9894 B(  6-C ,  9-H ) :   0.9738 B(  6-C , 10-H ) :   0.9737
B(  6-C , 11-H ) :   0.9804 B(  7-O ,  8-H ) :   0.8956

Dispersion correction           -0.000276033
FINAL SINGLE POINT ENERGY      -115.732080034271

DIPOLE MOMENT
-------------
                                X             Y             Z
Electronic contribution:      0.61082       1.65926       0.57442
Nuclear contribution   :     -0.23865      -2.21564      -0.69734
                        -----------------------------------------
Total Dipole Moment    :      0.37217      -0.55638      -0.12292
                        -----------------------------------------
Magnitude (a.u.)       :      0.68058
Magnitude (Debye)      :      1.72989

Rotational constants in cm-1:     4.431094     0.794411     0.779721
Rotational constants in MHz : 132840.864609 23815.834032 23375.458255

                             ****ORCA TERMINATED NORMALLY****
TOTAL RUN TIME: 0 days 0 hours 5 minutes 59 seconds 954 msec
