                         Program Version 4.1.2  - RELEASE  -
|  1> #Run DFT-D3 single point of the dimer
|  2> ! wB97X-D3 def2-TZVP TIGHTSCF CHELPG PMODEL PAL8
|  3>
|  4> %base "19-53_DFT_AB"
|  5>
|  6> %scf
|  7> MaxIter 1000
|  8> end
|  9>
| 10> * xyz 0 1
| 11>   C                      -5.106868            5.364977             4.076705
| 12>   O                      -4.860362            6.614453             3.509791
| 13>   H                      -4.817998            6.497377             2.536860
| 14>   H                      -6.164157            5.347365             4.411321
| 15>   H                      -4.952286            4.468046             3.431176
| 16>   H                      -4.499261            5.272901             4.938925
| 17>   C                      -5.411933            6.161078             8.174348
| 18>   O                      -6.549629            5.712123             7.433316
| 19>   H                      -7.322765            5.657265             8.101980
| 20>   H                      -5.608401            7.113157             8.778625
| 21>   H                      -5.135559            5.374505             8.893304
| 22>   H                      -4.564991            6.428884             7.514944
| 23> *
| 24>
| 25> #Run DFT-D3 single point of the molecule with dimer basis set
| 26> $new_job
| 27> %base "19-53_DFT_A"
| 28> ! wB97X-D3 def2-TZVP TIGHTSCF CHELPG PMODEL
| 29>
| 30> %scf
| 31> MaxIter 1000
| 32> end
| 33>
| 34> * xyz 0 1
| 35>   C                      -5.106868            5.364977             4.076705
| 36>   O                      -4.860362            6.614453             3.509791
| 37>   H                      -4.817998            6.497377             2.536860
| 38>   H                      -6.164157            5.347365             4.411321
| 39>   H                      -4.952286            4.468046             3.431176
| 40>   H                      -4.499261            5.272901             4.938925
| 41>   C                    : -5.411933            6.161078             8.174348
| 42>   O                    : -6.549629            5.712123             7.433316
| 43>   H                    : -7.322765            5.657265             8.101980
| 44>   H                    : -5.608401            7.113157             8.778625
| 45>   H                    : -5.135559            5.374505             8.893304
| 46>   H                    : -4.564991            6.428884             7.514944
| 47> *
| 48>
| 49> #Run DFT-D3 single point of the particle with dimer basis set
| 50> $new_job
| 51> %base "19-53_DFT_B"
| 52> ! wB97X-D3 def2-TZVP TIGHTSCF CHELPG PMODEL
| 53>
| 54> %scf
| 55> MaxIter 1000
| 56> end
| 57>
| 58> * xyz 0 1
| 59>   C                    : -5.106868            5.364977             4.076705
| 60>   O                    : -4.860362            6.614453             3.509791
| 61>   H                    : -4.817998            6.497377             2.536860
| 62>   H                    : -6.164157            5.347365             4.411321
| 63>   H                    : -4.952286            4.468046             3.431176
| 64>   H                    : -4.499261            5.272901             4.938925
| 65>   C                      -5.411933            6.161078             8.174348
| 66>   O                      -6.549629            5.712123             7.433316
| 67>   H                      -7.322765            5.657265             8.101980
| 68>   H                      -5.608401            7.113157             8.778625
| 69>   H                      -5.135559            5.374505             8.893304
| 70>   H                      -4.564991            6.428884             7.514944
| 71> *
| 72>
| 73>                          ****END OF INPUT****
 Total Charge           Charge          ....    0
 Multiplicity           Mult            ....    1
 Number of Electrons    NEL             ....   36
Dispersion correction           -0.001504745
FINAL SINGLE POINT ENERGY      -231.464828769049
Dispersion correction           -0.000245977
FINAL SINGLE POINT ENERGY      -115.733123152801

CARTESIAN COORDINATES (ANGSTROEM)
---------------------------------
  C     -5.106868    5.364977    4.076705
  O     -4.860362    6.614453    3.509791
  H     -4.817998    6.497377    2.536860
  H     -6.164157    5.347365    4.411321
  H     -4.952286    4.468046    3.431176
  H     -4.499261    5.272901    4.938925
  C     -5.411933    6.161078    8.174348
  O     -6.549629    5.712123    7.433316
  H     -7.322765    5.657265    8.101980
  H     -5.608401    7.113157    8.778625
  H     -5.135559    5.374505    8.893304
  H     -4.564991    6.428884    7.514944

 Multiplicity           Mult            ....    1
 Number of Electrons    NEL             ....   18
 Basis Dimension        Dim             ....  172

ORBITAL ENERGIES
----------------

  NO   OCC          E(Eh)            E(eV)
   0   2.0000     -19.237433      -523.4772
   1   2.0000     -10.321611      -280.8653
   2   2.0000      -1.122141       -30.5350
   3   2.0000      -0.785154       -21.3651
   4   2.0000      -0.598596       -16.2886
   5   2.0000      -0.539982       -14.6937
   6   2.0000      -0.520040       -14.1510
   7   2.0000      -0.433065       -11.7843
   8   2.0000      -0.371696       -10.1144
   9   0.0000       0.094577         2.5736
  10   0.0000       0.112761         3.0684
  11   0.0000       0.147434         4.0119
  12   0.0000       0.177549         4.8314
  13   0.0000       0.188112         5.1188

MULLIKEN ATOMIC CHARGES
-----------------------
   0 C :    0.000742
   1 O :   -0.000017
   2 H :   -0.000007
   3 H :   -0.003728
   4 H :   -0.000109
   5 H :   -0.000010
   6 C :   -0.182000
   7 O :   -0.469811
   8 H :    0.316283
   9 H :    0.101168
  10 H :    0.110461
  11 H :    0.127029
Sum of atomic charges:   -0.0000000

LOEWDIN ATOMIC CHARGES
----------------------
   0 C :   -0.003116
   1 O :   -0.000020
   2 H :   -0.000004
   3 H :   -0.003066
   4 H :   -0.000016
   5 H :   -0.001098
   6 C :   -0.391618
   7 O :   -0.111972
   8 H :    0.204145
   9 H :    0.100912
  10 H :    0.095643
  11 H :    0.110209

  Mayer bond orders larger than 0.1
B(  6-C ,  7-O ) :   0.9944 B(  6-C ,  9-H ) :   0.9710 B(  6-C , 10-H ) :   0.9753
B(  6-C , 11-H ) :   0.9693 B(  7-O ,  8-H ) :   0.8902

Dispersion correction           -0.000256489
FINAL SINGLE POINT ENERGY      -115.730618178912

DIPOLE MOMENT
-------------
                                X             Y             Z
Electronic contribution:     -1.33182      -0.63495      -1.17428
Nuclear contribution   :      1.31684       0.78013       1.86784
                        -----------------------------------------
Total Dipole Moment    :     -0.01499       0.14518       0.69355
                        -----------------------------------------
Magnitude (a.u.)       :      0.70874
Magnitude (Debye)      :      1.80148

Rotational constants in cm-1:     4.053240     0.809313     0.777167
Rotational constants in MHz : 121513.070663 24262.579114 23298.893588

                             ****ORCA TERMINATED NORMALLY****
TOTAL RUN TIME: 0 days 0 hours 0 minutes 43 seconds 67 msec
