                         Program Version 4.1.2  - RELEASE  -
|  1> #Run DFT-D3 single point of the dimer
|  2> ! wB97X-D3 def2-TZVP TIGHTSCF CHELPG PMODEL PAL8
|  3>
|  4> %base "4-145_DFT_AB"
|  5>
|  6> %scf
|  7> MaxIter 1000
|  8> end
|  9>
| 10> * xyz 0 1
| 11>   C                      5.575884             3.455816             2.278661
| 12>   O                      5.570222             4.240747             1.097227
| 13>   H                      5.316256             5.104723             1.255462
| 14>   H                      6.440792             2.781911             2.223781
| 15>   H                      5.662425             4.071573             3.151950
| 16>   H                      4.681182             2.723832             2.396170
| 17>   C                      1.018940             6.694985             -1.032136
| 18>   O                      2.230174             6.372593             -0.305373
| 19>   H                      2.404146             5.410996             -0.444812
| 20>   H                      0.998442             7.759421             -1.303204
| 21>   H                      1.070386             6.146931             -2.024044
| 22>   H                      0.123242             6.356830             -0.452372
| 23> *
| 24>
| 25> #Run DFT-D3 single point of the molecule with dimer basis set
| 26> $new_job
| 27> %base "4-145_DFT_A"
| 28> ! wB97X-D3 def2-TZVP TIGHTSCF CHELPG PMODEL
| 29>
| 30> %scf
| 31> MaxIter 1000
| 32> end
| 33>
| 34> * xyz 0 1
| 35>   C                      5.575884             3.455816             2.278661
| 36>   O                      5.570222             4.240747             1.097227
| 37>   H                      5.316256             5.104723             1.255462
| 38>   H                      6.440792             2.781911             2.223781
| 39>   H                      5.662425             4.071573             3.151950
| 40>   H                      4.681182             2.723832             2.396170
| 41>   C                    : 1.018940             6.694985             -1.032136
| 42>   O                    : 2.230174             6.372593             -0.305373
| 43>   H                    : 2.404146             5.410996             -0.444812
| 44>   H                    : 0.998442             7.759421             -1.303204
| 45>   H                    : 1.070386             6.146931             -2.024044
| 46>   H                    : 0.123242             6.356830             -0.452372
| 47> *
| 48>
| 49> #Run DFT-D3 single point of the particle with dimer basis set
| 50> $new_job
| 51> %base "4-145_DFT_B"
| 52> ! wB97X-D3 def2-TZVP TIGHTSCF CHELPG PMODEL
| 53>
| 54> %scf
| 55> MaxIter 1000
| 56> end
| 57>
| 58> * xyz 0 1
| 59>   C                    : 5.575884             3.455816             2.278661
| 60>   O                    : 5.570222             4.240747             1.097227
| 61>   H                    : 5.316256             5.104723             1.255462
| 62>   H                    : 6.440792             2.781911             2.223781
| 63>   H                    : 5.662425             4.071573             3.151950
| 64>   H                    : 4.681182             2.723832             2.396170
| 65>   C                      1.018940             6.694985             -1.032136
| 66>   O                      2.230174             6.372593             -0.305373
| 67>   H                      2.404146             5.410996             -0.444812
| 68>   H                      0.998442             7.759421             -1.303204
| 69>   H                      1.070386             6.146931             -2.024044
| 70>   H                      0.123242             6.356830             -0.452372
| 71> *
| 72>
| 73>                          ****END OF INPUT****
 Total Charge           Charge          ....    0
 Multiplicity           Mult            ....    1
 Number of Electrons    NEL             ....   36
Dispersion correction           -0.000862069
FINAL SINGLE POINT ENERGY      -231.465039691685
Dispersion correction           -0.000266053
FINAL SINGLE POINT ENERGY      -115.730577227797

CARTESIAN COORDINATES (ANGSTROEM)
---------------------------------
  C      5.575884    3.455816    2.278661
  O      5.570222    4.240747    1.097227
  H      5.316256    5.104723    1.255462
  H      6.440792    2.781911    2.223781
  H      5.662425    4.071573    3.151950
  H      4.681182    2.723832    2.396170
  C      1.018940    6.694985   -1.032136
  O      2.230174    6.372593   -0.305373
  H      2.404146    5.410996   -0.444812
  H      0.998442    7.759421   -1.303204
  H      1.070386    6.146931   -2.024044
  H      0.123242    6.356830   -0.452372

 Multiplicity           Mult            ....    1
 Number of Electrons    NEL             ....   18
 Basis Dimension        Dim             ....  172

ORBITAL ENERGIES
----------------

  NO   OCC          E(Eh)            E(eV)
   0   2.0000     -19.230759      -523.2956
   1   2.0000     -10.323818      -280.9254
   2   2.0000      -1.120627       -30.4938
   3   2.0000      -0.787709       -21.4346
   4   2.0000      -0.596388       -16.2285
   5   2.0000      -0.541668       -14.7395
   6   2.0000      -0.520623       -14.1669
   7   2.0000      -0.429803       -11.6955
   8   2.0000      -0.373276       -10.1574
   9   0.0000       0.085336         2.3221
  10   0.0000       0.112344         3.0570
  11   0.0000       0.146865         3.9964
  12   0.0000       0.178304         4.8519
  13   0.0000       0.193297         5.2599

MULLIKEN ATOMIC CHARGES
-----------------------
   0 C :   -0.000034
   1 O :    0.000031
   2 H :   -0.000776
   3 H :   -0.000002
   4 H :    0.000010
   5 H :    0.000003
   6 C :   -0.172547
   7 O :   -0.482758
   8 H :    0.317940
   9 H :    0.127166
  10 H :    0.101566
  11 H :    0.109400
Sum of atomic charges:    0.0000000

LOEWDIN ATOMIC CHARGES
----------------------
   0 C :   -0.000043
   1 O :   -0.000068
   2 H :   -0.000524
   3 H :   -0.000001
   4 H :   -0.000001
   5 H :   -0.000004
   6 C :   -0.370327
   7 O :   -0.121078
   8 H :    0.181624
   9 H :    0.107705
  10 H :    0.102302
  11 H :    0.100415

  Mayer bond orders larger than 0.1
B(  6-C ,  7-O ) :   0.9941 B(  6-C ,  9-H ) :   0.9691 B(  6-C , 10-H ) :   0.9837
B(  6-C , 11-H ) :   0.9682 B(  7-O ,  8-H ) :   0.8952

Dispersion correction           -0.000253575
FINAL SINGLE POINT ENERGY      -115.732422902222

DIPOLE MOMENT
-------------
                                X             Y             Z
Electronic contribution:      1.45561      -0.15090       1.02937
Nuclear contribution   :     -1.83402      -0.30464      -1.43500
                        -----------------------------------------
Total Dipole Moment    :     -0.37841      -0.45555      -0.40564
                        -----------------------------------------
Magnitude (a.u.)       :      0.71781
Magnitude (Debye)      :      1.82454

Rotational constants in cm-1:     4.032696     0.796726     0.773604
Rotational constants in MHz : 120897.181668 23885.241770 23192.064719

                             ****ORCA TERMINATED NORMALLY****
TOTAL RUN TIME: 0 days 0 hours 1 minutes 33 seconds 699 msec
