                         Program Version 4.1.2  - RELEASE  -
|  1> #Run DFT-D3 single point of the dimer
|  2> ! wB97X-D3 def2-TZVP TIGHTSCF CHELPG PMODEL PAL8
|  3>
|  4> %base "17-123_DFT_AB"
|  5>
|  6> %scf
|  7> MaxIter 1000
|  8> end
|  9>
| 10> * xyz 0 1
| 11>   C                      -4.988998            9.601026             -3.583272
| 12>   O                      -3.625614            9.389035             -3.176934
| 13>   H                      -3.637029            9.435312             -2.249069
| 14>   H                      -5.701993            9.682365             -2.747060
| 15>   H                      -5.095622            10.449238            -4.301233
| 16>   H                      -5.365626            8.684799             -4.130717
| 17>   C                      -1.304668            6.825085             -1.251012
| 18>   O                      -1.780940            5.692923             -0.579004
| 19>   H                      -2.721488            5.823928             -0.475654
| 20>   H                      -1.420874            7.771139             -0.682283
| 21>   H                      -0.269965            6.629542             -1.463105
| 22>   H                      -1.886430            6.968404             -2.148956
| 23> *
| 24>
| 25> #Run DFT-D3 single point of the molecule with dimer basis set
| 26> $new_job
| 27> %base "17-123_DFT_A"
| 28> ! wB97X-D3 def2-TZVP TIGHTSCF CHELPG PMODEL
| 29>
| 30> %scf
| 31> MaxIter 1000
| 32> end
| 33>
| 34> * xyz 0 1
| 35>   C                      -4.988998            9.601026             -3.583272
| 36>   O                      -3.625614            9.389035             -3.176934
| 37>   H                      -3.637029            9.435312             -2.249069
| 38>   H                      -5.701993            9.682365             -2.747060
| 39>   H                      -5.095622            10.449238            -4.301233
| 40>   H                      -5.365626            8.684799             -4.130717
| 41>   C                    : -1.304668            6.825085             -1.251012
| 42>   O                    : -1.780940            5.692923             -0.579004
| 43>   H                    : -2.721488            5.823928             -0.475654
| 44>   H                    : -1.420874            7.771139             -0.682283
| 45>   H                    : -0.269965            6.629542             -1.463105
| 46>   H                    : -1.886430            6.968404             -2.148956
| 47> *
| 48>
| 49> #Run DFT-D3 single point of the particle with dimer basis set
| 50> $new_job
| 51> %base "17-123_DFT_B"
| 52> ! wB97X-D3 def2-TZVP TIGHTSCF CHELPG PMODEL
| 53>
| 54> %scf
| 55> MaxIter 1000
| 56> end
| 57>
| 58> * xyz 0 1
| 59>   C                    : -4.988998            9.601026             -3.583272
| 60>   O                    : -3.625614            9.389035             -3.176934
| 61>   H                    : -3.637029            9.435312             -2.249069
| 62>   H                    : -5.701993            9.682365             -2.747060
| 63>   H                    : -5.095622            10.449238            -4.301233
| 64>   H                    : -5.365626            8.684799             -4.130717
| 65>   C                      -1.304668            6.825085             -1.251012
| 66>   O                      -1.780940            5.692923             -0.579004
| 67>   H                      -2.721488            5.823928             -0.475654
| 68>   H                      -1.420874            7.771139             -0.682283
| 69>   H                      -0.269965            6.629542             -1.463105
| 70>   H                      -1.886430            6.968404             -2.148956
| 71> *
| 72>
| 73>                          ****END OF INPUT****
 Total Charge           Charge          ....    0
 Multiplicity           Mult            ....    1
 Number of Electrons    NEL             ....   36
Dispersion correction           -0.001172052
FINAL SINGLE POINT ENERGY      -231.468304065828
Dispersion correction           -0.000269140
FINAL SINGLE POINT ENERGY      -115.732033662273

CARTESIAN COORDINATES (ANGSTROEM)
---------------------------------
  C     -4.988998    9.601026   -3.583272
  O     -3.625614    9.389035   -3.176934
  H     -3.637029    9.435312   -2.249069
  H     -5.701993    9.682365   -2.747060
  H     -5.095622   10.449238   -4.301233
  H     -5.365626    8.684799   -4.130717
  C     -1.304668    6.825085   -1.251012
  O     -1.780940    5.692923   -0.579004
  H     -2.721488    5.823928   -0.475654
  H     -1.420874    7.771139   -0.682283
  H     -0.269965    6.629542   -1.463105
  H     -1.886430    6.968404   -2.148956

 Multiplicity           Mult            ....    1
 Number of Electrons    NEL             ....   18
 Basis Dimension        Dim             ....  172

ORBITAL ENERGIES
----------------

  NO   OCC          E(Eh)            E(eV)
   0   2.0000     -19.228600      -523.2368
   1   2.0000     -10.309252      -280.5290
   2   2.0000      -1.142609       -31.0920
   3   2.0000      -0.794691       -21.6246
   4   2.0000      -0.617298       -16.7975
   5   2.0000      -0.539917       -14.6919
   6   2.0000      -0.528576       -14.3833
   7   2.0000      -0.440784       -11.9944
   8   2.0000      -0.370606       -10.0847
   9   0.0000       0.078560         2.1377
  10   0.0000       0.116133         3.1601
  11   0.0000       0.148083         4.0295
  12   0.0000       0.178315         4.8522
  13   0.0000       0.185420         5.0455

MULLIKEN ATOMIC CHARGES
-----------------------
   0 C :   -0.000065
   1 O :   -0.000141
   2 H :   -0.000580
   3 H :   -0.000006
   4 H :    0.000004
   5 H :   -0.000018
   6 C :   -0.154353
   7 O :   -0.468216
   8 H :    0.310457
   9 H :    0.094615
  10 H :    0.119068
  11 H :    0.099235
Sum of atomic charges:    0.0000000

LOEWDIN ATOMIC CHARGES
----------------------
   0 C :   -0.000128
   1 O :   -0.000869
   2 H :   -0.000924
   3 H :   -0.000002
   4 H :   -0.000002
   5 H :   -0.000013
   6 C :   -0.392181
   7 O :   -0.064798
   8 H :    0.166095
   9 H :    0.095622
  10 H :    0.105881
  11 H :    0.091318

  Mayer bond orders larger than 0.1
B(  6-C ,  7-O ) :   1.0005 B(  6-C ,  9-H ) :   0.9701 B(  6-C , 10-H ) :   0.9745
B(  6-C , 11-H ) :   0.9830 B(  7-O ,  8-H ) :   0.9037

Dispersion correction           -0.000217670
FINAL SINGLE POINT ENERGY      -115.735539023815

DIPOLE MOMENT
-------------
                                X             Y             Z
Electronic contribution:     -0.41209      -1.51843       0.85653
Nuclear contribution   :      0.00360       2.02506      -1.06238
                        -----------------------------------------
Total Dipole Moment    :     -0.40849       0.50663      -0.20584
                        -----------------------------------------
Magnitude (a.u.)       :      0.68258
Magnitude (Debye)      :      1.73497

Rotational constants in cm-1:     4.269765     0.857891     0.819533
Rotational constants in MHz : 128004.328106 25718.938874 24568.969100

                             ****ORCA TERMINATED NORMALLY****
TOTAL RUN TIME: 0 days 0 hours 0 minutes 57 seconds 979 msec
