                         Program Version 4.1.2  - RELEASE  -
|  1> #Run DFT-D3 single point of the dimer
|  2> ! wB97X-D3 def2-TZVP TIGHTSCF CHELPG PMODEL PAL8
|  3>
|  4> %base "18-208_DFT_AB"
|  5>
|  6> %scf
|  7> MaxIter 1000
|  8> end
|  9>
| 10> * xyz 0 1
| 11>   C                      3.266396             -0.889285            -2.984227
| 12>   O                      3.505058             0.481020             -3.203924
| 13>   H                      2.891223             0.829937             -3.866826
| 14>   H                      2.185870             -1.135374            -3.076854
| 15>   H                      3.829845             -1.465213            -3.662764
| 16>   H                      3.600866             -1.211609            -1.939577
| 17>   C                      6.847252             -0.409214            -1.932660
| 18>   O                      6.534939             0.049947             -3.234879
| 19>   H                      5.542417             0.153715             -3.347247
| 20>   H                      7.174326             0.404481             -1.335421
| 21>   H                      6.014298             -0.959470            -1.467209
| 22>   H                      7.638583             -1.246601            -1.938652
| 23> *
| 24>
| 25> #Run DFT-D3 single point of the molecule with dimer basis set
| 26> $new_job
| 27> %base "18-208_DFT_A"
| 28> ! wB97X-D3 def2-TZVP TIGHTSCF CHELPG PMODEL
| 29>
| 30> %scf
| 31> MaxIter 1000
| 32> end
| 33>
| 34> * xyz 0 1
| 35>   C                      3.266396             -0.889285            -2.984227
| 36>   O                      3.505058             0.481020             -3.203924
| 37>   H                      2.891223             0.829937             -3.866826
| 38>   H                      2.185870             -1.135374            -3.076854
| 39>   H                      3.829845             -1.465213            -3.662764
| 40>   H                      3.600866             -1.211609            -1.939577
| 41>   C                    : 6.847252             -0.409214            -1.932660
| 42>   O                    : 6.534939             0.049947             -3.234879
| 43>   H                    : 5.542417             0.153715             -3.347247
| 44>   H                    : 7.174326             0.404481             -1.335421
| 45>   H                    : 6.014298             -0.959470            -1.467209
| 46>   H                    : 7.638583             -1.246601            -1.938652
| 47> *
| 48>
| 49> #Run DFT-D3 single point of the particle with dimer basis set
| 50> $new_job
| 51> %base "18-208_DFT_B"
| 52> ! wB97X-D3 def2-TZVP TIGHTSCF CHELPG PMODEL
| 53>
| 54> %scf
| 55> MaxIter 1000
| 56> end
| 57>
| 58> * xyz 0 1
| 59>   C                    : 3.266396             -0.889285            -2.984227
| 60>   O                    : 3.505058             0.481020             -3.203924
| 61>   H                    : 2.891223             0.829937             -3.866826
| 62>   H                    : 2.185870             -1.135374            -3.076854
| 63>   H                    : 3.829845             -1.465213            -3.662764
| 64>   H                    : 3.600866             -1.211609            -1.939577
| 65>   C                      6.847252             -0.409214            -1.932660
| 66>   O                      6.534939             0.049947             -3.234879
| 67>   H                      5.542417             0.153715             -3.347247
| 68>   H                      7.174326             0.404481             -1.335421
| 69>   H                      6.014298             -0.959470            -1.467209
| 70>   H                      7.638583             -1.246601            -1.938652
| 71> *
| 72>
| 73>                          ****END OF INPUT****
 Total Charge           Charge          ....    0
 Multiplicity           Mult            ....    1
 Number of Electrons    NEL             ....   36
Dispersion correction           -0.002118244
FINAL SINGLE POINT ENERGY      -231.470844739903
Dispersion correction           -0.000246508
FINAL SINGLE POINT ENERGY      -115.733559068954

CARTESIAN COORDINATES (ANGSTROEM)
---------------------------------
  C      3.266396   -0.889285   -2.984227
  O      3.505058    0.481020   -3.203924
  H      2.891223    0.829937   -3.866826
  H      2.185870   -1.135374   -3.076854
  H      3.829845   -1.465213   -3.662764
  H      3.600866   -1.211609   -1.939577
  C      6.847252   -0.409214   -1.932660
  O      6.534939    0.049947   -3.234879
  H      5.542417    0.153715   -3.347247
  H      7.174326    0.404481   -1.335421
  H      6.014298   -0.959470   -1.467209
  H      7.638583   -1.246601   -1.938652

 Multiplicity           Mult            ....    1
 Number of Electrons    NEL             ....   18
 Basis Dimension        Dim             ....  172

ORBITAL ENERGIES
----------------

  NO   OCC          E(Eh)            E(eV)
   0   2.0000     -19.234365      -523.3937
   1   2.0000     -10.316365      -280.7226
   2   2.0000      -1.126730       -30.6599
   3   2.0000      -0.791003       -21.5243
   4   2.0000      -0.606275       -16.4976
   5   2.0000      -0.549485       -14.9522
   6   2.0000      -0.518260       -14.1026
   7   2.0000      -0.422238       -11.4897
   8   2.0000      -0.375211       -10.2100
   9   0.0000       0.066819         1.8182
  10   0.0000       0.138049         3.7565
  11   0.0000       0.144375         3.9286
  12   0.0000       0.165256         4.4969
  13   0.0000       0.186714         5.0808

MULLIKEN ATOMIC CHARGES
-----------------------
   0 C :   -0.009540
   1 O :   -0.000675
   2 H :   -0.000233
   3 H :   -0.000505
   4 H :   -0.001623
   5 H :    0.001056
   6 C :   -0.164498
   7 O :   -0.474540
   8 H :    0.322592
   9 H :    0.117498
  10 H :    0.105129
  11 H :    0.105339
Sum of atomic charges:   -0.0000000

LOEWDIN ATOMIC CHARGES
----------------------
   0 C :   -0.012986
   1 O :   -0.013079
   2 H :   -0.000740
   3 H :   -0.000191
   4 H :   -0.003023
   5 H :   -0.002988
   6 C :   -0.388405
   7 O :   -0.086459
   8 H :    0.203854
   9 H :    0.090651
  10 H :    0.099664
  11 H :    0.113703

  Mayer bond orders larger than 0.1
B(  6-C ,  7-O ) :   0.9921 B(  6-C ,  9-H ) :   0.9796 B(  6-C , 10-H ) :   0.9772
B(  6-C , 11-H ) :   0.9686 B(  7-O ,  8-H ) :   0.8966

Dispersion correction           -0.000262265
FINAL SINGLE POINT ENERGY      -115.729940253753

DIPOLE MOMENT
-------------
                                X             Y             Z
Electronic contribution:     -0.26487       0.74264      -1.68384
Nuclear contribution   :     -0.25265      -0.86600       2.13708
                        -----------------------------------------
Total Dipole Moment    :     -0.51752      -0.12336       0.45324
                        -----------------------------------------
Magnitude (a.u.)       :      0.69891
Magnitude (Debye)      :      1.77649

Rotational constants in cm-1:     4.231212     0.814438     0.792196
Rotational constants in MHz : 126848.537920 24416.244951 23749.434161

                             ****ORCA TERMINATED NORMALLY****
TOTAL RUN TIME: 0 days 0 hours 1 minutes 7 seconds 713 msec
