                         Program Version 4.1.2  - RELEASE  -
|  1> #Run DFT-D3 single point of the dimer
|  2> ! wB97X-D3 def2-TZVP TIGHTSCF CHELPG PMODEL PAL8
|  3>
|  4> %base "16-146_DFT_AB"
|  5>
|  6> %scf
|  7> MaxIter 1000
|  8> end
|  9>
| 10> * xyz 0 1
| 11>   C                      -9.920008            8.883950             6.843420
| 12>   O                      -9.676618            10.235881            6.367285
| 13>   H                      -10.460500           10.736840            6.502971
| 14>   H                      -10.574296           8.794333             7.667369
| 15>   H                      -10.354068           8.266734             6.057869
| 16>   H                      -8.961995            8.431970             7.171665
| 17>   C                      -7.186075            11.170075            3.582957
| 18>   O                      -8.425547            10.558925            3.306443
| 19>   H                      -8.844118            10.414870            4.193766
| 20>   H                      -7.164211            11.907956            4.380456
| 21>   H                      -6.391668            10.488721            3.877052
| 22>   H                      -6.819886            11.670884            2.659002
| 23> *
| 24>
| 25> #Run DFT-D3 single point of the molecule with dimer basis set
| 26> $new_job
| 27> %base "16-146_DFT_A"
| 28> ! wB97X-D3 def2-TZVP TIGHTSCF CHELPG PMODEL
| 29>
| 30> %scf
| 31> MaxIter 1000
| 32> end
| 33>
| 34> * xyz 0 1
| 35>   C                      -9.920008            8.883950             6.843420
| 36>   O                      -9.676618            10.235881            6.367285
| 37>   H                      -10.460500           10.736840            6.502971
| 38>   H                      -10.574296           8.794333             7.667369
| 39>   H                      -10.354068           8.266734             6.057869
| 40>   H                      -8.961995            8.431970             7.171665
| 41>   C                    : -7.186075            11.170075            3.582957
| 42>   O                    : -8.425547            10.558925            3.306443
| 43>   H                    : -8.844118            10.414870            4.193766
| 44>   H                    : -7.164211            11.907956            4.380456
| 45>   H                    : -6.391668            10.488721            3.877052
| 46>   H                    : -6.819886            11.670884            2.659002
| 47> *
| 48>
| 49> #Run DFT-D3 single point of the particle with dimer basis set
| 50> $new_job
| 51> %base "16-146_DFT_B"
| 52> ! wB97X-D3 def2-TZVP TIGHTSCF CHELPG PMODEL
| 53>
| 54> %scf
| 55> MaxIter 1000
| 56> end
| 57>
| 58> * xyz 0 1
| 59>   C                    : -9.920008            8.883950             6.843420
| 60>   O                    : -9.676618            10.235881            6.367285
| 61>   H                    : -10.460500           10.736840            6.502971
| 62>   H                    : -10.574296           8.794333             7.667369
| 63>   H                    : -10.354068           8.266734             6.057869
| 64>   H                    : -8.961995            8.431970             7.171665
| 65>   C                      -7.186075            11.170075            3.582957
| 66>   O                      -8.425547            10.558925            3.306443
| 67>   H                      -8.844118            10.414870            4.193766
| 68>   H                      -7.164211            11.907956            4.380456
| 69>   H                      -6.391668            10.488721            3.877052
| 70>   H                      -6.819886            11.670884            2.659002
| 71> *
| 72>
| 73>                          ****END OF INPUT****
 Total Charge           Charge          ....    0
 Multiplicity           Mult            ....    1
 Number of Electrons    NEL             ....   36
Dispersion correction           -0.001515651
FINAL SINGLE POINT ENERGY      -231.475224961957
Dispersion correction           -0.000263407
FINAL SINGLE POINT ENERGY      -115.733748861856

CARTESIAN COORDINATES (ANGSTROEM)
---------------------------------
  C     -9.920008    8.883950    6.843420
  O     -9.676618   10.235881    6.367285
  H    -10.460500   10.736840    6.502971
  H    -10.574296    8.794333    7.667369
  H    -10.354068    8.266734    6.057869
  H     -8.961995    8.431970    7.171665
  C     -7.186075   11.170075    3.582957
  O     -8.425547   10.558925    3.306443
  H     -8.844118   10.414870    4.193766
  H     -7.164211   11.907956    4.380456
  H     -6.391668   10.488721    3.877052
  H     -6.819886   11.670884    2.659002

 Multiplicity           Mult            ....    1
 Number of Electrons    NEL             ....   18
 Basis Dimension        Dim             ....  172

ORBITAL ENERGIES
----------------

  NO   OCC          E(Eh)            E(eV)
   0   2.0000     -19.238732      -523.5125
   1   2.0000     -10.312722      -280.6234
   2   2.0000      -1.135925       -30.9101
   3   2.0000      -0.793503       -21.5923
   4   2.0000      -0.614514       -16.7218
   5   2.0000      -0.534637       -14.5482
   6   2.0000      -0.524111       -14.2618
   7   2.0000      -0.440192       -11.9782
   8   2.0000      -0.374201       -10.1825
   9   0.0000       0.066982         1.8227
  10   0.0000       0.126182         3.4336
  11   0.0000       0.149621         4.0714
  12   0.0000       0.164893         4.4870
  13   0.0000       0.192600         5.2409

MULLIKEN ATOMIC CHARGES
-----------------------
   0 C :   -0.002444
   1 O :   -0.000384
   2 H :   -0.000229
   3 H :   -0.000048
   4 H :    0.000221
   5 H :    0.000193
   6 C :   -0.171390
   7 O :   -0.463080
   8 H :    0.316429
   9 H :    0.103105
  10 H :    0.100720
  11 H :    0.116907
Sum of atomic charges:    0.0000000

LOEWDIN ATOMIC CHARGES
----------------------
   0 C :   -0.002068
   1 O :   -0.006912
   2 H :   -0.000710
   3 H :   -0.000059
   4 H :   -0.000210
   5 H :   -0.000050
   6 C :   -0.401885
   7 O :   -0.077028
   8 H :    0.192965
   9 H :    0.092014
  10 H :    0.091736
  11 H :    0.112208

  Mayer bond orders larger than 0.1
B(  6-C ,  7-O ) :   1.0045 B(  6-C ,  9-H ) :   0.9749 B(  6-C , 10-H ) :   0.9704
B(  6-C , 11-H ) :   0.9775 B(  7-O ,  8-H ) :   0.9013

Dispersion correction           -0.000253708
FINAL SINGLE POINT ENERGY      -115.733717353449

DIPOLE MOMENT
-------------
                                X             Y             Z
Electronic contribution:     -1.70889      -0.82574      -0.49418
Nuclear contribution   :      1.92350       0.97845       1.15414
                        -----------------------------------------
Total Dipole Moment    :      0.21461       0.15271       0.65995
                        -----------------------------------------
Magnitude (a.u.)       :      0.71058
Magnitude (Debye)      :      1.80614

Rotational constants in cm-1:     4.332605     0.830678     0.791833
Rotational constants in MHz : 129888.222283 24903.100300 23738.548809

                             ****ORCA TERMINATED NORMALLY****
TOTAL RUN TIME: 0 days 0 hours 0 minutes 57 seconds 858 msec
