                         Program Version 4.1.2  - RELEASE  -
|  1> #Run DFT geometry optimization
|  2> ! wB97X-D3 def2-TZVP TIGHTSCF Grid5 FinalGrid6 Opt CHELPG PAL4
|  3>
|  4> %base "3_geo_opt"
|  5> %geom MaxIter 500
|  6> end
|  7>
|  8> %geom
|  9>   Constraints
| 10>     { A 5 0 1 C }
| 11>   end
| 12> end
| 13>
| 14>
| 15> * xyz 0 1
| 16>   C                    3.011308             -1.180897            0.598492
| 17>   O                    4.394963             -1.130264            0.873267
| 18>   H                    4.772196             -0.379022            0.412493
| 19>   H                    2.806434             -1.318965            -0.469350
| 20>   H                    2.611632             -2.040265            1.135898
| 21>   H                    2.483108             -0.285209            0.945007
| 22> *
| 23>
| 24>                          ****END OF INPUT****
 Total Charge           Charge          ....    0
 Multiplicity           Mult            ....    1
 Number of Electrons    NEL             ....   18
Dispersion correction           -0.000239536
FINAL SINGLE POINT ENERGY      -115.738048554026
Dispersion correction            ... done
Dispersion correction           -0.000239549
FINAL SINGLE POINT ENERGY      -115.738049946005
Dispersion correction            ... done
                    ***********************HURRAY********************

CARTESIAN COORDINATES (ANGSTROEM)
---------------------------------
  C      3.011495   -1.180830    0.598527
  O      4.395017   -1.129592    0.873015
  H      4.772369   -0.379547    0.412784
  H      2.806169   -1.319079   -0.469258
  H      2.611611   -2.040272    1.135722
  H      2.482980   -0.285303    0.945017

 Multiplicity           Mult            ....    1
 Number of Electrons    NEL             ....   18
 Basis Dimension        Dim             ....   86

ORBITAL ENERGIES
----------------

  NO   OCC          E(Eh)            E(eV)
   0   2.0000     -19.228178      -523.2253
   1   2.0000     -10.315104      -280.6882
   2   2.0000      -1.136900       -30.9366
   3   2.0000      -0.795372       -21.6432
   4   2.0000      -0.611713       -16.6455
   5   2.0000      -0.541684       -14.7400
   6   2.0000      -0.526305       -14.3215
   7   2.0000      -0.433848       -11.8056
   8   2.0000      -0.373658       -10.1678
   9   0.0000       0.116664         3.1746
  10   0.0000       0.156616         4.2617
  11   0.0000       0.202546         5.5116
  12   0.0000       0.205167         5.5829
  13   0.0000       0.226470         6.1626

MULLIKEN ATOMIC CHARGES
-----------------------
   0 C :   -0.150963
   1 O :   -0.477466
   2 H :    0.313022
   3 H :    0.098585
   4 H :    0.118206
   5 H :    0.098615
Sum of atomic charges:   -0.0000000

LOEWDIN ATOMIC CHARGES
----------------------
   0 C :   -0.385428
   1 O :   -0.075835
   2 H :    0.165806
   3 H :    0.093404
   4 H :    0.108706
   5 H :    0.093348

  Mayer bond orders larger than 0.1
B(  0-C ,  1-O ) :   0.9988 B(  0-C ,  3-H ) :   0.9756 B(  0-C ,  4-H ) :   0.9750
B(  0-C ,  5-H ) :   0.9753 B(  1-O ,  2-H ) :   0.9002

Dispersion correction           -0.000239602
FINAL SINGLE POINT ENERGY      -115.738050021099

DIPOLE MOMENT
-------------
                                X             Y             Z
Electronic contribution:      1.75845      -0.02850       0.41942
Nuclear contribution   :     -2.06812       0.47741      -0.81544
                        -----------------------------------------
Total Dipole Moment    :     -0.30967       0.44891      -0.39602
                        -----------------------------------------
Magnitude (a.u.)       :      0.67398
Magnitude (Debye)      :      1.71311

Rotational constants in cm-1:     4.294976     0.833770     0.804858
Rotational constants in MHz : 128760.130894 24995.788643 24129.046582

                             ****ORCA TERMINATED NORMALLY****
TOTAL RUN TIME: 0 days 0 hours 0 minutes 48 seconds 18 msec
