                         Program Version 4.1.2  - RELEASE  -
|  1> #Run DFT-D3 single point of the dimer
|  2> ! wB97X-D3 def2-TZVP TIGHTSCF CHELPG PMODEL PAL8
|  3>
|  4> %base "14-21_DFT_AB"
|  5>
|  6> %scf
|  7> MaxIter 1000
|  8> end
|  9>
| 10> * xyz 0 1
| 11>   C                      8.629797             8.547878             8.806274
| 12>   O                      8.727650             7.489372             9.777322
| 13>   H                      8.906374             7.894992             10.650402
| 14>   H                      9.165527             9.433401             9.047837
| 15>   H                      8.882979             8.196418             7.782462
| 16>   H                      7.598564             8.894795             8.815134
| 17>   C                      8.722698             3.852056             8.996385
| 18>   O                      9.933818             4.624124             8.814730
| 19>   H                      9.706832             5.567255             8.923765
| 20>   H                      8.035046             4.299299             9.791045
| 21>   H                      8.107727             3.882756             8.108121
| 22>   H                      8.972842             2.854221             9.218634
| 23> *
| 24>
| 25> #Run DFT-D3 single point of the molecule with dimer basis set
| 26> $new_job
| 27> %base "14-21_DFT_A"
| 28> ! wB97X-D3 def2-TZVP TIGHTSCF CHELPG PMODEL
| 29>
| 30> %scf
| 31> MaxIter 1000
| 32> end
| 33>
| 34> * xyz 0 1
| 35>   C                      8.629797             8.547878             8.806274
| 36>   O                      8.727650             7.489372             9.777322
| 37>   H                      8.906374             7.894992             10.650402
| 38>   H                      9.165527             9.433401             9.047837
| 39>   H                      8.882979             8.196418             7.782462
| 40>   H                      7.598564             8.894795             8.815134
| 41>   C                    : 8.722698             3.852056             8.996385
| 42>   O                    : 9.933818             4.624124             8.814730
| 43>   H                    : 9.706832             5.567255             8.923765
| 44>   H                    : 8.035046             4.299299             9.791045
| 45>   H                    : 8.107727             3.882756             8.108121
| 46>   H                    : 8.972842             2.854221             9.218634
| 47> *
| 48>
| 49> #Run DFT-D3 single point of the particle with dimer basis set
| 50> $new_job
| 51> %base "14-21_DFT_B"
| 52> ! wB97X-D3 def2-TZVP TIGHTSCF CHELPG PMODEL
| 53>
| 54> %scf
| 55> MaxIter 1000
| 56> end
| 57>
| 58> * xyz 0 1
| 59>   C                    : 8.629797             8.547878             8.806274
| 60>   O                    : 8.727650             7.489372             9.777322
| 61>   H                    : 8.906374             7.894992             10.650402
| 62>   H                    : 9.165527             9.433401             9.047837
| 63>   H                    : 8.882979             8.196418             7.782462
| 64>   H                    : 7.598564             8.894795             8.815134
| 65>   C                      8.722698             3.852056             8.996385
| 66>   O                      9.933818             4.624124             8.814730
| 67>   H                      9.706832             5.567255             8.923765
| 68>   H                      8.035046             4.299299             9.791045
| 69>   H                      8.107727             3.882756             8.108121
| 70>   H                      8.972842             2.854221             9.218634
| 71> *
| 72>
| 73>                          ****END OF INPUT****
 Total Charge           Charge          ....    0
 Multiplicity           Mult            ....    1
 Number of Electrons    NEL             ....   36
Dispersion correction           -0.001613919
FINAL SINGLE POINT ENERGY      -231.472756192482
Dispersion correction           -0.000250532
FINAL SINGLE POINT ENERGY      -115.732573728014

CARTESIAN COORDINATES (ANGSTROEM)
---------------------------------
  C      8.629797    8.547878    8.806274
  O      8.727650    7.489372    9.777322
  H      8.906374    7.894992   10.650402
  H      9.165527    9.433401    9.047837
  H      8.882979    8.196418    7.782462
  H      7.598564    8.894795    8.815134
  C      8.722698    3.852056    8.996385
  O      9.933818    4.624124    8.814730
  H      9.706832    5.567255    8.923765
  H      8.035046    4.299299    9.791045
  H      8.107727    3.882756    8.108121
  H      8.972842    2.854221    9.218634

 Multiplicity           Mult            ....    1
 Number of Electrons    NEL             ....   18
 Basis Dimension        Dim             ....  172

ORBITAL ENERGIES
----------------

  NO   OCC          E(Eh)            E(eV)
   0   2.0000     -19.231622      -523.3190
   1   2.0000     -10.315708      -280.7047
   2   2.0000      -1.123020       -30.5589
   3   2.0000      -0.797257       -21.6945
   4   2.0000      -0.604356       -16.4454
   5   2.0000      -0.534917       -14.5558
   6   2.0000      -0.525118       -14.2892
   7   2.0000      -0.439777       -11.9669
   8   2.0000      -0.372248       -10.1294
   9   0.0000       0.067547         1.8380
  10   0.0000       0.127391         3.4665
  11   0.0000       0.150476         4.0947
  12   0.0000       0.158790         4.3209
  13   0.0000       0.195174         5.3109

MULLIKEN ATOMIC CHARGES
-----------------------
   0 C :   -0.001177
   1 O :   -0.001348
   2 H :   -0.000120
   3 H :   -0.000012
   4 H :   -0.000778
   5 H :   -0.000004
   6 C :   -0.174144
   7 O :   -0.477365
   8 H :    0.314845
   9 H :    0.102981
  10 H :    0.109468
  11 H :    0.127654
Sum of atomic charges:    0.0000000

LOEWDIN ATOMIC CHARGES
----------------------
   0 C :   -0.002186
   1 O :   -0.007280
   2 H :   -0.000445
   3 H :   -0.000032
   4 H :   -0.000631
   5 H :   -0.000028
   6 C :   -0.358517
   7 O :   -0.103168
   8 H :    0.177151
   9 H :    0.104725
  10 H :    0.092963
  11 H :    0.097449

  Mayer bond orders larger than 0.1
B(  6-C ,  7-O ) :   0.9903 B(  6-C ,  9-H ) :   0.9766 B(  6-C , 10-H ) :   0.9728
B(  6-C , 11-H ) :   0.9749 B(  7-O ,  8-H ) :   0.9053

Dispersion correction           -0.000256878
FINAL SINGLE POINT ENERGY      -115.732993016615

DIPOLE MOMENT
-------------
                                X             Y             Z
Electronic contribution:      1.67601       0.72174      -0.24941
Nuclear contribution   :     -2.31642      -0.46123       0.38496
                        -----------------------------------------
Total Dipole Moment    :     -0.64041       0.26051       0.13554
                        -----------------------------------------
Magnitude (a.u.)       :      0.70453
Magnitude (Debye)      :      1.79078

Rotational constants in cm-1:     4.271973     0.802777     0.766855
Rotational constants in MHz : 128070.527263 24066.641547 22989.745186

                             ****ORCA TERMINATED NORMALLY****
TOTAL RUN TIME: 0 days 0 hours 1 minutes 6 seconds 421 msec
