                         Program Version 4.1.2  - RELEASE  -
|  1> #Run DFT-D3 single point of the dimer
|  2> ! wB97X-D3 def2-TZVP TIGHTSCF CHELPG PMODEL PAL8
|  3>
|  4> %base "20-33_DFT_AB"
|  5>
|  6> %scf
|  7> MaxIter 1000
|  8> end
|  9>
| 10> * xyz 0 1
| 11>   C                      -1.641794            5.307331             1.637861
| 12>   O                      -2.575965            4.229584             1.491744
| 13>   H                      -2.767324            3.875175             2.374490
| 14>   H                      -1.946451            5.984514             2.464272
| 15>   H                      -0.555480            5.066071             1.793109
| 16>   H                      -1.550788            5.846078             0.708489
| 17>   C                      -7.108575            6.913722             -0.857616
| 18>   O                      -5.910933            6.151993             -0.758104
| 19>   H                      -6.108608            5.514156             0.021846
| 20>   H                      -8.052278            6.348833             -0.737678
| 21>   H                      -7.212517            7.592448             -0.076732
| 22>   H                      -7.252339            7.360240             -1.857203
| 23> *
| 24>
| 25> #Run DFT-D3 single point of the molecule with dimer basis set
| 26> $new_job
| 27> %base "20-33_DFT_A"
| 28> ! wB97X-D3 def2-TZVP TIGHTSCF CHELPG PMODEL
| 29>
| 30> %scf
| 31> MaxIter 1000
| 32> end
| 33>
| 34> * xyz 0 1
| 35>   C                      -1.641794            5.307331             1.637861
| 36>   O                      -2.575965            4.229584             1.491744
| 37>   H                      -2.767324            3.875175             2.374490
| 38>   H                      -1.946451            5.984514             2.464272
| 39>   H                      -0.555480            5.066071             1.793109
| 40>   H                      -1.550788            5.846078             0.708489
| 41>   C                    : -7.108575            6.913722             -0.857616
| 42>   O                    : -5.910933            6.151993             -0.758104
| 43>   H                    : -6.108608            5.514156             0.021846
| 44>   H                    : -8.052278            6.348833             -0.737678
| 45>   H                    : -7.212517            7.592448             -0.076732
| 46>   H                    : -7.252339            7.360240             -1.857203
| 47> *
| 48>
| 49> #Run DFT-D3 single point of the particle with dimer basis set
| 50> $new_job
| 51> %base "20-33_DFT_B"
| 52> ! wB97X-D3 def2-TZVP TIGHTSCF CHELPG PMODEL
| 53>
| 54> %scf
| 55> MaxIter 1000
| 56> end
| 57>
| 58> * xyz 0 1
| 59>   C                    : -1.641794            5.307331             1.637861
| 60>   O                    : -2.575965            4.229584             1.491744
| 61>   H                    : -2.767324            3.875175             2.374490
| 62>   H                    : -1.946451            5.984514             2.464272
| 63>   H                    : -0.555480            5.066071             1.793109
| 64>   H                    : -1.550788            5.846078             0.708489
| 65>   C                      -7.108575            6.913722             -0.857616
| 66>   O                      -5.910933            6.151993             -0.758104
| 67>   H                      -6.108608            5.514156             0.021846
| 68>   H                      -8.052278            6.348833             -0.737678
| 69>   H                      -7.212517            7.592448             -0.076732
| 70>   H                      -7.252339            7.360240             -1.857203
| 71> *
| 72>
| 73>                          ****END OF INPUT****
 Total Charge           Charge          ....    0
 Multiplicity           Mult            ....    1
 Number of Electrons    NEL             ....   36
Dispersion correction           -0.000746078
FINAL SINGLE POINT ENERGY      -231.458166423300
Dispersion correction           -0.000275766
FINAL SINGLE POINT ENERGY      -115.732412774352

CARTESIAN COORDINATES (ANGSTROEM)
---------------------------------
  C     -1.641794    5.307331    1.637861
  O     -2.575965    4.229584    1.491744
  H     -2.767324    3.875175    2.374490
  H     -1.946451    5.984514    2.464272
  H     -0.555480    5.066071    1.793109
  H     -1.550788    5.846078    0.708489
  C     -7.108575    6.913722   -0.857616
  O     -5.910933    6.151993   -0.758104
  H     -6.108608    5.514156    0.021846
  H     -8.052278    6.348833   -0.737678
  H     -7.212517    7.592448   -0.076732
  H     -7.252339    7.360240   -1.857203

 Multiplicity           Mult            ....    1
 Number of Electrons    NEL             ....   18
 Basis Dimension        Dim             ....  172

ORBITAL ENERGIES
----------------

  NO   OCC          E(Eh)            E(eV)
   0   2.0000     -19.240231      -523.5533
   1   2.0000     -10.309678      -280.5406
   2   2.0000      -1.126033       -30.6409
   3   2.0000      -0.794658       -21.6237
   4   2.0000      -0.606429       -16.5018
   5   2.0000      -0.544869       -14.8266
   6   2.0000      -0.516720       -14.0607
   7   2.0000      -0.437935       -11.9168
   8   2.0000      -0.373876       -10.1737
   9   0.0000       0.085727         2.3328
  10   0.0000       0.108757         2.9594
  11   0.0000       0.149124         4.0579
  12   0.0000       0.166269         4.5244
  13   0.0000       0.196169         5.3380

MULLIKEN ATOMIC CHARGES
-----------------------
   0 C :   -0.000392
   1 O :    0.000050
   2 H :    0.000003
   3 H :    0.000050
   4 H :   -0.000016
   5 H :   -0.000071
   6 C :   -0.179659
   7 O :   -0.466328
   8 H :    0.318192
   9 H :    0.097100
  10 H :    0.109821
  11 H :    0.121248
Sum of atomic charges:   -0.0000000

LOEWDIN ATOMIC CHARGES
----------------------
   0 C :   -0.000174
   1 O :   -0.000035
   2 H :   -0.000009
   3 H :   -0.000003
   4 H :   -0.000008
   5 H :   -0.000051
   6 C :   -0.393267
   7 O :   -0.106190
   8 H :    0.209601
   9 H :    0.096625
  10 H :    0.082138
  11 H :    0.111373

  Mayer bond orders larger than 0.1
B(  6-C ,  7-O ) :   1.0072 B(  6-C ,  9-H ) :   0.9780 B(  6-C , 10-H ) :   0.9748
B(  6-C , 11-H ) :   0.9723 B(  7-O ,  8-H ) :   0.8921

Dispersion correction           -0.000243016
FINAL SINGLE POINT ENERGY      -115.725637778833

DIPOLE MOMENT
-------------
                                X             Y             Z
Electronic contribution:      1.78494      -0.82958      -0.01779
Nuclear contribution   :     -2.39216       0.73381       0.45418
                        -----------------------------------------
Total Dipole Moment    :     -0.60722      -0.09577       0.43638
                        -----------------------------------------
Magnitude (a.u.)       :      0.75387
Magnitude (Debye)      :      1.91618

Rotational constants in cm-1:     4.319956     0.821904     0.781044
Rotational constants in MHz : 129509.021100 24640.048189 23415.116359

                             ****ORCA TERMINATED NORMALLY****
TOTAL RUN TIME: 0 days 0 hours 1 minutes 7 seconds 342 msec
