                         Program Version 4.1.2  - RELEASE  -
|  1> #Run DFT-D3 single point of the dimer
|  2> ! wB97X-D3 def2-TZVP TIGHTSCF CHELPG PMODEL PAL8
|  3>
|  4> %base "8-142_DFT_AB"
|  5>
|  6> %scf
|  7> MaxIter 1000
|  8> end
|  9>
| 10> * xyz 0 1
| 11>   C                      8.283693             3.564489             -7.961779
| 12>   O                      9.208929             4.425566             -8.624489
| 13>   H                      9.989970             4.551249             -8.070807
| 14>   H                      8.733532             2.900308             -7.241755
| 15>   H                      7.574161             4.085482             -7.293596
| 16>   H                      7.764251             3.051280             -8.713159
| 17>   C                      11.116157            5.458915             -5.061480
| 18>   O                      10.183481            5.123485             -6.074195
| 19>   H                      9.961826             5.825867             -6.695665
| 20>   H                      10.644142            5.808335             -4.153942
| 21>   H                      11.688472            4.583739             -4.837393
| 22>   H                      11.913405            6.102827             -5.442215
| 23> *
| 24>
| 25> #Run DFT-D3 single point of the molecule with dimer basis set
| 26> $new_job
| 27> %base "8-142_DFT_A"
| 28> ! wB97X-D3 def2-TZVP TIGHTSCF CHELPG PMODEL
| 29>
| 30> %scf
| 31> MaxIter 1000
| 32> end
| 33>
| 34> * xyz 0 1
| 35>   C                      8.283693             3.564489             -7.961779
| 36>   O                      9.208929             4.425566             -8.624489
| 37>   H                      9.989970             4.551249             -8.070807
| 38>   H                      8.733532             2.900308             -7.241755
| 39>   H                      7.574161             4.085482             -7.293596
| 40>   H                      7.764251             3.051280             -8.713159
| 41>   C                    : 11.116157            5.458915             -5.061480
| 42>   O                    : 10.183481            5.123485             -6.074195
| 43>   H                    : 9.961826             5.825867             -6.695665
| 44>   H                    : 10.644142            5.808335             -4.153942
| 45>   H                    : 11.688472            4.583739             -4.837393
| 46>   H                    : 11.913405            6.102827             -5.442215
| 47> *
| 48>
| 49> #Run DFT-D3 single point of the particle with dimer basis set
| 50> $new_job
| 51> %base "8-142_DFT_B"
| 52> ! wB97X-D3 def2-TZVP TIGHTSCF CHELPG PMODEL
| 53>
| 54> %scf
| 55> MaxIter 1000
| 56> end
| 57>
| 58> * xyz 0 1
| 59>   C                    : 8.283693             3.564489             -7.961779
| 60>   O                    : 9.208929             4.425566             -8.624489
| 61>   H                    : 9.989970             4.551249             -8.070807
| 62>   H                    : 8.733532             2.900308             -7.241755
| 63>   H                    : 7.574161             4.085482             -7.293596
| 64>   H                    : 7.764251             3.051280             -8.713159
| 65>   C                      11.116157            5.458915             -5.061480
| 66>   O                      10.183481            5.123485             -6.074195
| 67>   H                      9.961826             5.825867             -6.695665
| 68>   H                      10.644142            5.808335             -4.153942
| 69>   H                      11.688472            4.583739             -4.837393
| 70>   H                      11.913405            6.102827             -5.442215
| 71> *
| 72>
| 73>                          ****END OF INPUT****
 Total Charge           Charge          ....    0
 Multiplicity           Mult            ....    1
 Number of Electrons    NEL             ....   36
Dispersion correction           -0.001865849
FINAL SINGLE POINT ENERGY      -231.470728224883
Dispersion correction           -0.000254931
FINAL SINGLE POINT ENERGY      -115.733187904209

CARTESIAN COORDINATES (ANGSTROEM)
---------------------------------
  C      8.283693    3.564489   -7.961779
  O      9.208929    4.425566   -8.624489
  H      9.989970    4.551249   -8.070807
  H      8.733532    2.900308   -7.241755
  H      7.574161    4.085482   -7.293596
  H      7.764251    3.051280   -8.713159
  C     11.116157    5.458915   -5.061480
  O     10.183481    5.123485   -6.074195
  H      9.961826    5.825867   -6.695665
  H     10.644142    5.808335   -4.153942
  H     11.688472    4.583739   -4.837393
  H     11.913405    6.102827   -5.442215

 Multiplicity           Mult            ....    1
 Number of Electrons    NEL             ....   18
 Basis Dimension        Dim             ....  172

ORBITAL ENERGIES
----------------

  NO   OCC          E(Eh)            E(eV)
   0   2.0000     -19.227871      -523.2170
   1   2.0000     -10.310012      -280.5497
   2   2.0000      -1.129237       -30.7281
   3   2.0000      -0.803235       -21.8571
   4   2.0000      -0.609940       -16.5973
   5   2.0000      -0.551782       -15.0148
   6   2.0000      -0.525208       -14.2916
   7   2.0000      -0.419130       -11.4051
   8   2.0000      -0.377020       -10.2592
   9   0.0000       0.095494         2.5985
  10   0.0000       0.132480         3.6050
  11   0.0000       0.154642         4.2080
  12   0.0000       0.190315         5.1787
  13   0.0000       0.196579         5.3492

MULLIKEN ATOMIC CHARGES
-----------------------
   0 C :    0.012815
   1 O :    0.000734
   2 H :   -0.019347
   3 H :   -0.006806
   4 H :   -0.005028
   5 H :   -0.000475
   6 C :   -0.158132
   7 O :   -0.477950
   8 H :    0.322642
   9 H :    0.107199
  10 H :    0.120374
  11 H :    0.103974
Sum of atomic charges:   -0.0000000

LOEWDIN ATOMIC CHARGES
----------------------
   0 C :   -0.013792
   1 O :   -0.005844
   2 H :   -0.028235
   3 H :   -0.003599
   4 H :   -0.002211
   5 H :   -0.000152
   6 C :   -0.374945
   7 O :   -0.046199
   8 H :    0.175459
   9 H :    0.095817
  10 H :    0.104335
  11 H :    0.099366

  Mayer bond orders larger than 0.1
B(  6-C ,  7-O ) :   1.0015 B(  6-C ,  9-H ) :   0.9721 B(  6-C , 10-H ) :   0.9764
B(  6-C , 11-H ) :   0.9780 B(  7-O ,  8-H ) :   0.8883

Dispersion correction           -0.000262436
FINAL SINGLE POINT ENERGY      -115.733186220305

DIPOLE MOMENT
-------------
                                X             Y             Z
Electronic contribution:     -1.24510      -0.43027      -1.14206
Nuclear contribution   :      1.53025       1.02366       1.16610
                        -----------------------------------------
Total Dipole Moment    :      0.28515       0.59339       0.02404
                        -----------------------------------------
Magnitude (a.u.)       :      0.65878
Magnitude (Debye)      :      1.67449

Rotational constants in cm-1:     4.490663     0.813729     0.799398
Rotational constants in MHz : 134626.697679 24394.979933 23965.342726

                             ****ORCA TERMINATED NORMALLY****
TOTAL RUN TIME: 0 days 0 hours 0 minutes 48 seconds 198 msec
