                         Program Version 4.1.2  - RELEASE  -
|  1> #Run DFT-D3 single point of the dimer
|  2> ! wB97X-D3 def2-TZVP TIGHTSCF CHELPG PMODEL PAL8
|  3>
|  4> %base "6-135_DFT_AB"
|  5>
|  6> %scf
|  7> MaxIter 1000
|  8> end
|  9>
| 10> * xyz 0 1
| 11>   C                      5.799702             10.013961            -6.139659
| 12>   O                      6.314410             9.354648             -5.022214
| 13>   H                      6.679682             8.539401             -5.378463
| 14>   H                      5.031475             9.459829             -6.584512
| 15>   H                      5.568476             11.039382            -5.914100
| 16>   H                      6.622979             10.145301            -6.957438
| 17>   C                      6.484678             7.460578             -1.082355
| 18>   O                      5.201355             7.955092             -0.723691
| 19>   H                      5.254974             8.894137             -0.816187
| 20>   H                      7.325725             7.909387             -0.463628
| 21>   H                      6.487008             6.411832             -0.846857
| 22>   H                      6.782900             7.473782             -2.128927
| 23> *
| 24>
| 25> #Run DFT-D3 single point of the molecule with dimer basis set
| 26> $new_job
| 27> %base "6-135_DFT_A"
| 28> ! wB97X-D3 def2-TZVP TIGHTSCF CHELPG PMODEL
| 29>
| 30> %scf
| 31> MaxIter 1000
| 32> end
| 33>
| 34> * xyz 0 1
| 35>   C                      5.799702             10.013961            -6.139659
| 36>   O                      6.314410             9.354648             -5.022214
| 37>   H                      6.679682             8.539401             -5.378463
| 38>   H                      5.031475             9.459829             -6.584512
| 39>   H                      5.568476             11.039382            -5.914100
| 40>   H                      6.622979             10.145301            -6.957438
| 41>   C                    : 6.484678             7.460578             -1.082355
| 42>   O                    : 5.201355             7.955092             -0.723691
| 43>   H                    : 5.254974             8.894137             -0.816187
| 44>   H                    : 7.325725             7.909387             -0.463628
| 45>   H                    : 6.487008             6.411832             -0.846857
| 46>   H                    : 6.782900             7.473782             -2.128927
| 47> *
| 48>
| 49> #Run DFT-D3 single point of the particle with dimer basis set
| 50> $new_job
| 51> %base "6-135_DFT_B"
| 52> ! wB97X-D3 def2-TZVP TIGHTSCF CHELPG PMODEL
| 53>
| 54> %scf
| 55> MaxIter 1000
| 56> end
| 57>
| 58> * xyz 0 1
| 59>   C                    : 5.799702             10.013961            -6.139659
| 60>   O                    : 6.314410             9.354648             -5.022214
| 61>   H                    : 6.679682             8.539401             -5.378463
| 62>   H                    : 5.031475             9.459829             -6.584512
| 63>   H                    : 5.568476             11.039382            -5.914100
| 64>   H                    : 6.622979             10.145301            -6.957438
| 65>   C                      6.484678             7.460578             -1.082355
| 66>   O                      5.201355             7.955092             -0.723691
| 67>   H                      5.254974             8.894137             -0.816187
| 68>   H                      7.325725             7.909387             -0.463628
| 69>   H                      6.487008             6.411832             -0.846857
| 70>   H                      6.782900             7.473782             -2.128927
| 71> *
| 72>
| 73>                          ****END OF INPUT****
 Total Charge           Charge          ....    0
 Multiplicity           Mult            ....    1
 Number of Electrons    NEL             ....   36
Dispersion correction           -0.000862229
FINAL SINGLE POINT ENERGY      -231.464872198191
Dispersion correction           -0.000218250
FINAL SINGLE POINT ENERGY      -115.730317932748

CARTESIAN COORDINATES (ANGSTROEM)
---------------------------------
  C      5.799702   10.013961   -6.139659
  O      6.314410    9.354648   -5.022214
  H      6.679682    8.539401   -5.378463
  H      5.031475    9.459829   -6.584512
  H      5.568476   11.039382   -5.914100
  H      6.622979   10.145301   -6.957438
  C      6.484678    7.460578   -1.082355
  O      5.201355    7.955092   -0.723691
  H      5.254974    8.894137   -0.816187
  H      7.325725    7.909387   -0.463628
  H      6.487008    6.411832   -0.846857
  H      6.782900    7.473782   -2.128927

 Multiplicity           Mult            ....    1
 Number of Electrons    NEL             ....   18
 Basis Dimension        Dim             ....  172

ORBITAL ENERGIES
----------------

  NO   OCC          E(Eh)            E(eV)
   0   2.0000     -19.234157      -523.3880
   1   2.0000     -10.314535      -280.6728
   2   2.0000      -1.140460       -31.0335
   3   2.0000      -0.797573       -21.7031
   4   2.0000      -0.612119       -16.6566
   5   2.0000      -0.538565       -14.6551
   6   2.0000      -0.524051       -14.2602
   7   2.0000      -0.437296       -11.8994
   8   2.0000      -0.378447       -10.2981
   9   0.0000       0.083060         2.2602
  10   0.0000       0.116850         3.1796
  11   0.0000       0.144899         3.9429
  12   0.0000       0.167196         4.5496
  13   0.0000       0.192431         5.2363

MULLIKEN ATOMIC CHARGES
-----------------------
   0 C :    0.000087
   1 O :    0.000095
   2 H :   -0.000114
   3 H :   -0.000005
   4 H :   -0.000002
   5 H :   -0.000004
   6 C :   -0.179547
   7 O :   -0.460245
   8 H :    0.311443
   9 H :    0.099168
  10 H :    0.122683
  11 H :    0.106441
Sum of atomic charges:   -0.0000000

LOEWDIN ATOMIC CHARGES
----------------------
   0 C :   -0.000012
   1 O :   -0.000229
   2 H :   -0.000327
   3 H :   -0.000000
   4 H :   -0.000000
   5 H :   -0.000000
   6 C :   -0.391378
   7 O :   -0.067958
   8 H :    0.159501
   9 H :    0.102291
  10 H :    0.105508
  11 H :    0.092604

  Mayer bond orders larger than 0.1
B(  6-C ,  7-O ) :   1.0119 B(  6-C ,  9-H ) :   0.9765 B(  6-C , 10-H ) :   0.9783
B(  6-C , 11-H ) :   0.9627 B(  7-O ,  8-H ) :   0.9058

Dispersion correction           -0.000262708
FINAL SINGLE POINT ENERGY      -115.733631950136

DIPOLE MOMENT
-------------
                                X             Y             Z
Electronic contribution:     -1.79979       0.60370       0.41167
Nuclear contribution   :      2.32294      -0.22884      -0.60889
                        -----------------------------------------
Total Dipole Moment    :      0.52316       0.37486      -0.19722
                        -----------------------------------------
Magnitude (a.u.)       :      0.67313
Magnitude (Debye)      :      1.71097

Rotational constants in cm-1:     4.378074     0.815281     0.790646
Rotational constants in MHz : 131251.366244 24441.513924 23702.959059

                             ****ORCA TERMINATED NORMALLY****
TOTAL RUN TIME: 0 days 0 hours 0 minutes 59 seconds 188 msec
