                         Program Version 4.1.2  - RELEASE  -
|  1> #Run DFT-D3 single point of the dimer
|  2> ! wB97X-D3 def2-TZVP TIGHTSCF CHELPG PMODEL PAL8
|  3>
|  4> %base "18-122_DFT_AB"
|  5>
|  6> %scf
|  7> MaxIter 1000
|  8> end
|  9>
| 10> * xyz 0 1
| 11>   C                      -2.094311            2.283453             2.567803
| 12>   O                      -2.206315            1.869918             1.194003
| 13>   H                      -3.161988            1.826491             1.108694
| 14>   H                      -2.770650            1.809254             3.256604
| 15>   H                      -1.121342            2.272797             2.978147
| 16>   H                      -2.354916            3.318122             2.580382
| 17>   C                      -0.641337            -1.278704            2.735910
| 18>   O                      -0.235503            -1.995124            1.558616
| 19>   H                      -0.216393            -1.287634            0.896333
| 20>   H                      -1.715056            -1.169015            2.646839
| 21>   H                      -0.486806            -1.780883            3.720906
| 22>   H                      -0.073791            -0.337690            2.824643
| 23> *
| 24>
| 25> #Run DFT-D3 single point of the molecule with dimer basis set
| 26> $new_job
| 27> %base "18-122_DFT_A"
| 28> ! wB97X-D3 def2-TZVP TIGHTSCF CHELPG PMODEL
| 29>
| 30> %scf
| 31> MaxIter 1000
| 32> end
| 33>
| 34> * xyz 0 1
| 35>   C                      -2.094311            2.283453             2.567803
| 36>   O                      -2.206315            1.869918             1.194003
| 37>   H                      -3.161988            1.826491             1.108694
| 38>   H                      -2.770650            1.809254             3.256604
| 39>   H                      -1.121342            2.272797             2.978147
| 40>   H                      -2.354916            3.318122             2.580382
| 41>   C                    : -0.641337            -1.278704            2.735910
| 42>   O                    : -0.235503            -1.995124            1.558616
| 43>   H                    : -0.216393            -1.287634            0.896333
| 44>   H                    : -1.715056            -1.169015            2.646839
| 45>   H                    : -0.486806            -1.780883            3.720906
| 46>   H                    : -0.073791            -0.337690            2.824643
| 47> *
| 48>
| 49> #Run DFT-D3 single point of the particle with dimer basis set
| 50> $new_job
| 51> %base "18-122_DFT_B"
| 52> ! wB97X-D3 def2-TZVP TIGHTSCF CHELPG PMODEL
| 53>
| 54> %scf
| 55> MaxIter 1000
| 56> end
| 57>
| 58> * xyz 0 1
| 59>   C                    : -2.094311            2.283453             2.567803
| 60>   O                    : -2.206315            1.869918             1.194003
| 61>   H                    : -3.161988            1.826491             1.108694
| 62>   H                    : -2.770650            1.809254             3.256604
| 63>   H                    : -1.121342            2.272797             2.978147
| 64>   H                    : -2.354916            3.318122             2.580382
| 65>   C                      -0.641337            -1.278704            2.735910
| 66>   O                      -0.235503            -1.995124            1.558616
| 67>   H                      -0.216393            -1.287634            0.896333
| 68>   H                      -1.715056            -1.169015            2.646839
| 69>   H                      -0.486806            -1.780883            3.720906
| 70>   H                      -0.073791            -0.337690            2.824643
| 71> *
| 72>
| 73>                          ****END OF INPUT****
 Total Charge           Charge          ....    0
 Multiplicity           Mult            ....    1
 Number of Electrons    NEL             ....   36
Dispersion correction           -0.001686352
FINAL SINGLE POINT ENERGY      -231.462011550782
Dispersion correction           -0.000222008
FINAL SINGLE POINT ENERGY      -115.729336234132

CARTESIAN COORDINATES (ANGSTROEM)
---------------------------------
  C     -2.094311    2.283453    2.567803
  O     -2.206315    1.869918    1.194003
  H     -3.161988    1.826491    1.108694
  H     -2.770650    1.809254    3.256604
  H     -1.121342    2.272797    2.978147
  H     -2.354916    3.318122    2.580382
  C     -0.641337   -1.278704    2.735910
  O     -0.235503   -1.995124    1.558616
  H     -0.216393   -1.287634    0.896333
  H     -1.715056   -1.169015    2.646839
  H     -0.486806   -1.780883    3.720906
  H     -0.073791   -0.337690    2.824643

 Multiplicity           Mult            ....    1
 Number of Electrons    NEL             ....   18
 Basis Dimension        Dim             ....  172

ORBITAL ENERGIES
----------------

  NO   OCC          E(Eh)            E(eV)
   0   2.0000     -19.231464      -523.3147
   1   2.0000     -10.317241      -280.7464
   2   2.0000      -1.131655       -30.7939
   3   2.0000      -0.791288       -21.5320
   4   2.0000      -0.599438       -16.3115
   5   2.0000      -0.549089       -14.9415
   6   2.0000      -0.526009       -14.3134
   7   2.0000      -0.431901       -11.7526
   8   2.0000      -0.374327       -10.1860
   9   0.0000       0.076737         2.0881
  10   0.0000       0.116169         3.1611
  11   0.0000       0.147351         4.0096
  12   0.0000       0.161018         4.3815
  13   0.0000       0.186510         5.0752

MULLIKEN ATOMIC CHARGES
-----------------------
   0 C :   -0.002320
   1 O :    0.000649
   2 H :    0.000040
   3 H :   -0.000036
   4 H :   -0.000736
   5 H :   -0.000198
   6 C :   -0.178213
   7 O :   -0.470579
   8 H :    0.316008
   9 H :    0.110720
  10 H :    0.118490
  11 H :    0.106173
Sum of atomic charges:   -0.0000000

LOEWDIN ATOMIC CHARGES
----------------------
   0 C :   -0.004748
   1 O :   -0.000277
   2 H :   -0.000087
   3 H :   -0.000595
   4 H :   -0.001603
   5 H :   -0.000041
   6 C :   -0.376695
   7 O :   -0.099739
   8 H :    0.176493
   9 H :    0.096437
  10 H :    0.111097
  11 H :    0.099759

  Mayer bond orders larger than 0.1
B(  6-C ,  7-O ) :   0.9912 B(  6-C ,  9-H ) :   0.9817 B(  6-C , 10-H ) :   0.9673
B(  6-C , 11-H ) :   0.9800 B(  7-O ,  8-H ) :   0.9002

Dispersion correction           -0.000232225
FINAL SINGLE POINT ENERGY      -115.730191919265

DIPOLE MOMENT
-------------
                                X             Y             Z
Electronic contribution:      0.55382      -1.06451      -1.41868
Nuclear contribution   :     -0.69735       1.77939       1.49653
                        -----------------------------------------
Total Dipole Moment    :     -0.14353       0.71488       0.07785
                        -----------------------------------------
Magnitude (a.u.)       :      0.73329
Magnitude (Debye)      :      1.86388

Rotational constants in cm-1:     4.230044     0.810884     0.786519
Rotational constants in MHz : 126813.539351 24309.683936 23579.235472

                             ****ORCA TERMINATED NORMALLY****
TOTAL RUN TIME: 0 days 0 hours 1 minutes 7 seconds 75 msec
