                         Program Version 4.1.2  - RELEASE  -
|  1> #Run DFT-D3 single point of the dimer
|  2> ! wB97X-D3 def2-TZVP TIGHTSCF CHELPG PMODEL PAL8
|  3>
|  4> %base "5-155_DFT_AB"
|  5>
|  6> %scf
|  7> MaxIter 1000
|  8> end
|  9>
| 10> * xyz 0 1
| 11>   C                      0.567218             6.000519             3.160337
| 12>   O                      0.360484             6.270881             1.769133
| 13>   H                      -0.567800            6.452111             1.611484
| 14>   H                      1.629474             5.820001             3.235269
| 15>   H                      0.317510             6.933082             3.730363
| 16>   H                      -0.035569            5.195958             3.619373
| 17>   C                      -3.388804            8.122191             1.701161
| 18>   O                      -2.367845            7.359115             2.398471
| 19>   H                      -2.659506            7.307764             3.285313
| 20>   H                      -4.221922            7.445057             1.494477
| 21>   H                      -3.808663            8.965519             2.293888
| 22>   H                      -3.105346            8.542818             0.758445
| 23> *
| 24>
| 25> #Run DFT-D3 single point of the molecule with dimer basis set
| 26> $new_job
| 27> %base "5-155_DFT_A"
| 28> ! wB97X-D3 def2-TZVP TIGHTSCF CHELPG PMODEL
| 29>
| 30> %scf
| 31> MaxIter 1000
| 32> end
| 33>
| 34> * xyz 0 1
| 35>   C                      0.567218             6.000519             3.160337
| 36>   O                      0.360484             6.270881             1.769133
| 37>   H                      -0.567800            6.452111             1.611484
| 38>   H                      1.629474             5.820001             3.235269
| 39>   H                      0.317510             6.933082             3.730363
| 40>   H                      -0.035569            5.195958             3.619373
| 41>   C                    : -3.388804            8.122191             1.701161
| 42>   O                    : -2.367845            7.359115             2.398471
| 43>   H                    : -2.659506            7.307764             3.285313
| 44>   H                    : -4.221922            7.445057             1.494477
| 45>   H                    : -3.808663            8.965519             2.293888
| 46>   H                    : -3.105346            8.542818             0.758445
| 47> *
| 48>
| 49> #Run DFT-D3 single point of the particle with dimer basis set
| 50> $new_job
| 51> %base "5-155_DFT_B"
| 52> ! wB97X-D3 def2-TZVP TIGHTSCF CHELPG PMODEL
| 53>
| 54> %scf
| 55> MaxIter 1000
| 56> end
| 57>
| 58> * xyz 0 1
| 59>   C                    : 0.567218             6.000519             3.160337
| 60>   O                    : 0.360484             6.270881             1.769133
| 61>   H                    : -0.567800            6.452111             1.611484
| 62>   H                    : 1.629474             5.820001             3.235269
| 63>   H                    : 0.317510             6.933082             3.730363
| 64>   H                    : -0.035569            5.195958             3.619373
| 65>   C                      -3.388804            8.122191             1.701161
| 66>   O                      -2.367845            7.359115             2.398471
| 67>   H                      -2.659506            7.307764             3.285313
| 68>   H                      -4.221922            7.445057             1.494477
| 69>   H                      -3.808663            8.965519             2.293888
| 70>   H                      -3.105346            8.542818             0.758445
| 71> *
| 72>
| 73>                          ****END OF INPUT****
 Total Charge           Charge          ....    0
 Multiplicity           Mult            ....    1
 Number of Electrons    NEL             ....   36
Dispersion correction           -0.001773680
FINAL SINGLE POINT ENERGY      -231.473963741782
Dispersion correction           -0.000255217
FINAL SINGLE POINT ENERGY      -115.735119602276

CARTESIAN COORDINATES (ANGSTROEM)
---------------------------------
  C      0.567218    6.000519    3.160337
  O      0.360484    6.270881    1.769133
  H     -0.567800    6.452111    1.611484
  H      1.629474    5.820001    3.235269
  H      0.317510    6.933082    3.730363
  H     -0.035569    5.195958    3.619373
  C     -3.388804    8.122191    1.701161
  O     -2.367845    7.359115    2.398471
  H     -2.659506    7.307764    3.285313
  H     -4.221922    7.445057    1.494477
  H     -3.808663    8.965519    2.293888
  H     -3.105346    8.542818    0.758445

 Multiplicity           Mult            ....    1
 Number of Electrons    NEL             ....   18
 Basis Dimension        Dim             ....  172

ORBITAL ENERGIES
----------------

  NO   OCC          E(Eh)            E(eV)
   0   2.0000     -19.231074      -523.3041
   1   2.0000     -10.317252      -280.7467
   2   2.0000      -1.132900       -30.8278
   3   2.0000      -0.800822       -21.7915
   4   2.0000      -0.606503       -16.5038
   5   2.0000      -0.537930       -14.6378
   6   2.0000      -0.528293       -14.3756
   7   2.0000      -0.440592       -11.9891
   8   2.0000      -0.375844       -10.2272
   9   0.0000       0.097863         2.6630
  10   0.0000       0.127333         3.4649
  11   0.0000       0.153034         4.1643
  12   0.0000       0.182717         4.9720
  13   0.0000       0.200528         5.4566

MULLIKEN ATOMIC CHARGES
-----------------------
   0 C :    0.006666
   1 O :    0.000509
   2 H :   -0.010987
   3 H :   -0.000318
   4 H :   -0.006217
   5 H :   -0.001396
   6 C :   -0.180770
   7 O :   -0.458638
   8 H :    0.310263
   9 H :    0.109387
  10 H :    0.106932
  11 H :    0.124570
Sum of atomic charges:   -0.0000000

LOEWDIN ATOMIC CHARGES
----------------------
   0 C :   -0.007124
   1 O :   -0.003470
   2 H :   -0.024417
   3 H :   -0.000078
   4 H :   -0.002806
   5 H :   -0.000512
   6 C :   -0.355636
   7 O :   -0.059473
   8 H :    0.152711
   9 H :    0.097792
  10 H :    0.101319
  11 H :    0.101694

  Mayer bond orders larger than 0.1
B(  6-C ,  7-O ) :   0.9914 B(  6-C ,  9-H ) :   0.9794 B(  6-C , 10-H ) :   0.9715
B(  6-C , 11-H ) :   0.9744 B(  7-O ,  8-H ) :   0.9037

Dispersion correction           -0.000254111
FINAL SINGLE POINT ENERGY      -115.732251263725

DIPOLE MOMENT
-------------
                                X             Y             Z
Electronic contribution:      1.47672      -0.93955       0.72158
Nuclear contribution   :     -2.10239       1.23762      -0.45926
                        -----------------------------------------
Total Dipole Moment    :     -0.62567       0.29808       0.26232
                        -----------------------------------------
Magnitude (a.u.)       :      0.74103
Magnitude (Debye)      :      1.88355

Rotational constants in cm-1:     4.418227     0.791497     0.765615
Rotational constants in MHz : 132455.124075 23728.471241 22952.548898

                             ****ORCA TERMINATED NORMALLY****
TOTAL RUN TIME: 0 days 0 hours 1 minutes 2 seconds 258 msec
