                         Program Version 4.1.2  - RELEASE  -
|  1> #Run DFT geometry optimization
|  2> ! wB97X-D3 def2-TZVP TIGHTSCF Grid5 FinalGrid6 Opt CHELPG PAL4
|  3>
|  4> %base "2_geo_opt"
|  5> %geom MaxIter 500
|  6> end
|  7>
|  8> %geom
|  9>   Constraints
| 10>     { B 0 1 C }
| 11>   end
| 12> end
| 13>
| 14>
| 15> * xyz 0 1
| 16>   C                    3.011014             -1.180908            0.598433
| 17>   O                    4.394967             -1.128039            0.874366
| 18>   H                    4.772490             -0.379011            0.412552
| 19>   H                    2.806140             -1.318976            -0.469408
| 20>   H                    2.611338             -2.040276            1.135840
| 21>   H                    2.484463             -0.284502            0.945600
| 22> *
| 23>
| 24>                          ****END OF INPUT****
 Total Charge           Charge          ....    0
 Multiplicity           Mult            ....    1
 Number of Electrons    NEL             ....   18
Dispersion correction           -0.000239559
FINAL SINGLE POINT ENERGY      -115.738051096127
Dispersion correction            ... done
                    ***********************HURRAY********************

CARTESIAN COORDINATES (ANGSTROEM)
---------------------------------
  C      3.011018   -1.180942    0.598455
  O      4.394975   -1.128051    0.874362
  H      4.772356   -0.378982    0.412519
  H      2.806227   -1.318968   -0.469382
  H      2.611271   -2.040268    1.135825
  H      2.484565   -0.284501    0.945604

 Multiplicity           Mult            ....    1
 Number of Electrons    NEL             ....   18
 Basis Dimension        Dim             ....   86

ORBITAL ENERGIES
----------------

  NO   OCC          E(Eh)            E(eV)
   0   2.0000     -19.228082      -523.2227
   1   2.0000     -10.315165      -280.6899
   2   2.0000      -1.136614       -30.9288
   3   2.0000      -0.795372       -21.6432
   4   2.0000      -0.611477       -16.6391
   5   2.0000      -0.541714       -14.7408
   6   2.0000      -0.526253       -14.3201
   7   2.0000      -0.433851       -11.8057
   8   2.0000      -0.373635       -10.1671
   9   0.0000       0.116644         3.1740
  10   0.0000       0.156635         4.2622
  11   0.0000       0.202561         5.5120
  12   0.0000       0.205097         5.5810
  13   0.0000       0.226306         6.1581

MULLIKEN ATOMIC CHARGES
-----------------------
   0 C :   -0.150995
   1 O :   -0.477743
   2 H :    0.312987
   3 H :    0.098726
   4 H :    0.118296
   5 H :    0.098729
Sum of atomic charges:    0.0000000

LOEWDIN ATOMIC CHARGES
----------------------
   0 C :   -0.384700
   1 O :   -0.076544
   2 H :    0.165721
   3 H :    0.093420
   4 H :    0.108685
   5 H :    0.093418

  Mayer bond orders larger than 0.1
B(  0-C ,  1-O ) :   0.9986 B(  0-C ,  3-H ) :   0.9755 B(  0-C ,  4-H ) :   0.9749
B(  0-C ,  5-H ) :   0.9755 B(  1-O ,  2-H ) :   0.9002

Dispersion correction           -0.000239503
FINAL SINGLE POINT ENERGY      -115.738051110131

DIPOLE MOMENT
-------------
                                X             Y             Z
Electronic contribution:      1.75562      -0.02835       0.41979
Nuclear contribution   :     -2.06631       0.47590      -0.81761
                        -----------------------------------------
Total Dipole Moment    :     -0.31069       0.44756      -0.39781
                        -----------------------------------------
Magnitude (a.u.)       :      0.67461
Magnitude (Debye)      :      1.71471

Rotational constants in cm-1:     4.292809     0.833228     0.804373
Rotational constants in MHz : 128695.172858 24979.548589 24114.492663

                             ****ORCA TERMINATED NORMALLY****
TOTAL RUN TIME: 0 days 0 hours 0 minutes 38 seconds 679 msec
