                         Program Version 4.1.2  - RELEASE  -
|  1> #Run DFT-D3 single point of the dimer
|  2> ! wB97X-D3 def2-TZVP TIGHTSCF CHELPG PMODEL PAL8
|  3>
|  4> %base "19-0_DFT_AB"
|  5>
|  6> %scf
|  7> MaxIter 1000
|  8> end
|  9>
| 10> * xyz 0 1
| 11>   C                      4.218830             -7.367409            10.092198
| 12>   O                      4.342444             -8.557732            10.803951
| 13>   H                      4.070487             -8.609899            11.692965
| 14>   H                      3.801504             -7.551489            9.084576
| 15>   H                      3.484433             -6.691170            10.435203
| 16>   H                      5.199852             -6.817999            10.009492
| 17>   C                      2.150202             -4.868944            5.313812
| 18>   O                      1.539903             -3.847500            6.025287
| 19>   H                      1.102995             -3.372393            5.293624
| 20>   H                      2.596078             -5.698066            5.913052
| 21>   H                      1.498631             -5.241180            4.529990
| 22>   H                      2.939477             -4.406176            4.686918
| 23> *
| 24>
| 25> #Run DFT-D3 single point of the molecule with dimer basis set
| 26> $new_job
| 27> %base "19-0_DFT_A"
| 28> ! wB97X-D3 def2-TZVP TIGHTSCF CHELPG PMODEL
| 29>
| 30> %scf
| 31> MaxIter 1000
| 32> end
| 33>
| 34> * xyz 0 1
| 35>   C                      4.218830             -7.367409            10.092198
| 36>   O                      4.342444             -8.557732            10.803951
| 37>   H                      4.070487             -8.609899            11.692965
| 38>   H                      3.801504             -7.551489            9.084576
| 39>   H                      3.484433             -6.691170            10.435203
| 40>   H                      5.199852             -6.817999            10.009492
| 41>   C                    : 2.150202             -4.868944            5.313812
| 42>   O                    : 1.539903             -3.847500            6.025287
| 43>   H                    : 1.102995             -3.372393            5.293624
| 44>   H                    : 2.596078             -5.698066            5.913052
| 45>   H                    : 1.498631             -5.241180            4.529990
| 46>   H                    : 2.939477             -4.406176            4.686918
| 47> *
| 48>
| 49> #Run DFT-D3 single point of the particle with dimer basis set
| 50> $new_job
| 51> %base "19-0_DFT_B"
| 52> ! wB97X-D3 def2-TZVP TIGHTSCF CHELPG PMODEL
| 53>
| 54> %scf
| 55> MaxIter 1000
| 56> end
| 57>
| 58> * xyz 0 1
| 59>   C                    : 4.218830             -7.367409            10.092198
| 60>   O                    : 4.342444             -8.557732            10.803951
| 61>   H                    : 4.070487             -8.609899            11.692965
| 62>   H                    : 3.801504             -7.551489            9.084576
| 63>   H                    : 3.484433             -6.691170            10.435203
| 64>   H                    : 5.199852             -6.817999            10.009492
| 65>   C                      2.150202             -4.868944            5.313812
| 66>   O                      1.539903             -3.847500            6.025287
| 67>   H                      1.102995             -3.372393            5.293624
| 68>   H                      2.596078             -5.698066            5.913052
| 69>   H                      1.498631             -5.241180            4.529990
| 70>   H                      2.939477             -4.406176            4.686918
| 71> *
| 72>
| 73>                          ****END OF INPUT****
 Total Charge           Charge          ....    0
 Multiplicity           Mult            ....    1
 Number of Electrons    NEL             ....   36
Dispersion correction           -0.000619727
FINAL SINGLE POINT ENERGY      -231.456426623673
Dispersion correction           -0.000273839
FINAL SINGLE POINT ENERGY      -115.728180405113

CARTESIAN COORDINATES (ANGSTROEM)
---------------------------------
  C      4.218830   -7.367409   10.092198
  O      4.342444   -8.557732   10.803951
  H      4.070487   -8.609899   11.692965
  H      3.801504   -7.551489    9.084576
  H      3.484433   -6.691170   10.435203
  H      5.199852   -6.817999   10.009492
  C      2.150202   -4.868944    5.313812
  O      1.539903   -3.847500    6.025287
  H      1.102995   -3.372393    5.293624
  H      2.596078   -5.698066    5.913052
  H      1.498631   -5.241180    4.529990
  H      2.939477   -4.406176    4.686918

 Multiplicity           Mult            ....    1
 Number of Electrons    NEL             ....   18
 Basis Dimension        Dim             ....  172

ORBITAL ENERGIES
----------------

  NO   OCC          E(Eh)            E(eV)
   0   2.0000     -19.233694      -523.3754
   1   2.0000     -10.314294      -280.6662
   2   2.0000      -1.149206       -31.2715
   3   2.0000      -0.786988       -21.4150
   4   2.0000      -0.619047       -16.8451
   5   2.0000      -0.536983       -14.6120
   6   2.0000      -0.533188       -14.5088
   7   2.0000      -0.444187       -12.0869
   8   2.0000      -0.365363        -9.9420
   9   0.0000       0.087260         2.3745
  10   0.0000       0.108748         2.9592
  11   0.0000       0.145723         3.9653
  12   0.0000       0.168014         4.5719
  13   0.0000       0.190627         5.1872

MULLIKEN ATOMIC CHARGES
-----------------------
   0 C :    0.000021
   1 O :    0.000001
   2 H :    0.000000
   3 H :   -0.000077
   4 H :   -0.000005
   5 H :   -0.000003
   6 C :   -0.184550
   7 O :   -0.455594
   8 H :    0.318318
   9 H :    0.125243
  10 H :    0.101811
  11 H :    0.094835
Sum of atomic charges:    0.0000000

LOEWDIN ATOMIC CHARGES
----------------------
   0 C :   -0.000022
   1 O :   -0.000000
   2 H :   -0.000000
   3 H :   -0.000074
   4 H :   -0.000001
   5 H :   -0.000001
   6 C :   -0.421212
   7 O :   -0.064796
   8 H :    0.188196
   9 H :    0.112326
  10 H :    0.090789
  11 H :    0.094797

  Mayer bond orders larger than 0.1
B(  6-C ,  7-O ) :   0.9941 B(  6-C ,  9-H ) :   0.9677 B(  6-C , 10-H ) :   0.9826
B(  6-C , 11-H ) :   0.9824 B(  7-O ,  8-H ) :   0.8974

Dispersion correction           -0.000203334
FINAL SINGLE POINT ENERGY      -115.727897903646

DIPOLE MOMENT
-------------
                                X             Y             Z
Electronic contribution:     -0.80999       1.19789       1.29236
Nuclear contribution   :      0.75903      -1.28513      -2.00955
                        -----------------------------------------
Total Dipole Moment    :     -0.05096      -0.08723      -0.71719
                        -----------------------------------------
Magnitude (a.u.)       :      0.72428
Magnitude (Debye)      :      1.84096

Rotational constants in cm-1:     4.192631     0.872287     0.822084
Rotational constants in MHz : 125691.908960 26150.518426 24645.460083

                             ****ORCA TERMINATED NORMALLY****
TOTAL RUN TIME: 0 days 0 hours 0 minutes 46 seconds 365 msec
