                         Program Version 4.1.2  - RELEASE  -
|  1> #Run DFT-D3 single point of the dimer
|  2> ! wB97X-D3 def2-TZVP TIGHTSCF CHELPG PMODEL PAL8
|  3>
|  4> %base "15-96_DFT_AB"
|  5>
|  6> %scf
|  7> MaxIter 1000
|  8> end
|  9>
| 10> * xyz 0 1
| 11>   C                      -3.521737            -6.032928            -3.997539
| 12>   O                      -3.209134            -4.842496            -3.204906
| 13>   H                      -3.319984            -4.094860            -3.795784
| 14>   H                      -3.627151            -6.940647            -3.414398
| 15>   H                      -4.523750            -5.897630            -4.422226
| 16>   H                      -2.762533            -6.264531            -4.740990
| 17>   C                      -7.384591            -5.803450            -3.268758
| 18>   O                      -6.320142            -6.327695            -2.550983
| 19>   H                      -5.901000            -5.572593            -2.211143
| 20>   H                      -7.027067            -4.995892            -3.920319
| 21>   H                      -7.912776            -6.587076            -3.837397
| 22>   H                      -8.019997            -5.265419            -2.574121
| 23> *
| 24>
| 25> #Run DFT-D3 single point of the molecule with dimer basis set
| 26> $new_job
| 27> %base "15-96_DFT_A"
| 28> ! wB97X-D3 def2-TZVP TIGHTSCF CHELPG PMODEL
| 29>
| 30> %scf
| 31> MaxIter 1000
| 32> end
| 33>
| 34> * xyz 0 1
| 35>   C                      -3.521737            -6.032928            -3.997539
| 36>   O                      -3.209134            -4.842496            -3.204906
| 37>   H                      -3.319984            -4.094860            -3.795784
| 38>   H                      -3.627151            -6.940647            -3.414398
| 39>   H                      -4.523750            -5.897630            -4.422226
| 40>   H                      -2.762533            -6.264531            -4.740990
| 41>   C                    : -7.384591            -5.803450            -3.268758
| 42>   O                    : -6.320142            -6.327695            -2.550983
| 43>   H                    : -5.901000            -5.572593            -2.211143
| 44>   H                    : -7.027067            -4.995892            -3.920319
| 45>   H                    : -7.912776            -6.587076            -3.837397
| 46>   H                    : -8.019997            -5.265419            -2.574121
| 47> *
| 48>
| 49> #Run DFT-D3 single point of the particle with dimer basis set
| 50> $new_job
| 51> %base "15-96_DFT_B"
| 52> ! wB97X-D3 def2-TZVP TIGHTSCF CHELPG PMODEL
| 53>
| 54> %scf
| 55> MaxIter 1000
| 56> end
| 57>
| 58> * xyz 0 1
| 59>   C                    : -3.521737            -6.032928            -3.997539
| 60>   O                    : -3.209134            -4.842496            -3.204906
| 61>   H                    : -3.319984            -4.094860            -3.795784
| 62>   H                    : -3.627151            -6.940647            -3.414398
| 63>   H                    : -4.523750            -5.897630            -4.422226
| 64>   H                    : -2.762533            -6.264531            -4.740990
| 65>   C                      -7.384591            -5.803450            -3.268758
| 66>   O                      -6.320142            -6.327695            -2.550983
| 67>   H                      -5.901000            -5.572593            -2.211143
| 68>   H                      -7.027067            -4.995892            -3.920319
| 69>   H                      -7.912776            -6.587076            -3.837397
| 70>   H                      -8.019997            -5.265419            -2.574121
| 71> *
| 72>
| 73>                          ****END OF INPUT****
 Total Charge           Charge          ....    0
 Multiplicity           Mult            ....    1
 Number of Electrons    NEL             ....   36
Dispersion correction           -0.002089762
FINAL SINGLE POINT ENERGY      -231.467949854998
Dispersion correction           -0.000258880
FINAL SINGLE POINT ENERGY      -115.732837143353

CARTESIAN COORDINATES (ANGSTROEM)
---------------------------------
  C     -3.521737   -6.032928   -3.997539
  O     -3.209134   -4.842496   -3.204906
  H     -3.319984   -4.094860   -3.795784
  H     -3.627151   -6.940647   -3.414398
  H     -4.523750   -5.897630   -4.422226
  H     -2.762533   -6.264531   -4.740990
  C     -7.384591   -5.803450   -3.268758
  O     -6.320142   -6.327695   -2.550983
  H     -5.901000   -5.572593   -2.211143
  H     -7.027067   -4.995892   -3.920319
  H     -7.912776   -6.587076   -3.837397
  H     -8.019997   -5.265419   -2.574121

 Multiplicity           Mult            ....    1
 Number of Electrons    NEL             ....   18
 Basis Dimension        Dim             ....  172

ORBITAL ENERGIES
----------------

  NO   OCC          E(Eh)            E(eV)
   0   2.0000     -19.227522      -523.2075
   1   2.0000     -10.312279      -280.6114
   2   2.0000      -1.155799       -31.4509
   3   2.0000      -0.793901       -21.6032
   4   2.0000      -0.623602       -16.9691
   5   2.0000      -0.543250       -14.7826
   6   2.0000      -0.533283       -14.5114
   7   2.0000      -0.443770       -12.0756
   8   2.0000      -0.368727       -10.0336
   9   0.0000       0.083345         2.2679
  10   0.0000       0.133208         3.6248
  11   0.0000       0.158123         4.3028
  12   0.0000       0.167268         4.5516
  13   0.0000       0.197756         5.3812

MULLIKEN ATOMIC CHARGES
-----------------------
   0 C :   -0.011498
   1 O :    0.000151
   2 H :    0.000061
   3 H :   -0.000672
   4 H :    0.001047
   5 H :   -0.001041
   6 C :   -0.175206
   7 O :   -0.449724
   8 H :    0.311064
   9 H :    0.101068
  10 H :    0.122402
  11 H :    0.102348
Sum of atomic charges:   -0.0000000

LOEWDIN ATOMIC CHARGES
----------------------
   0 C :   -0.015883
   1 O :   -0.000970
   2 H :   -0.000139
   3 H :   -0.004127
   4 H :   -0.006514
   5 H :   -0.000228
   6 C :   -0.401642
   7 O :   -0.024080
   8 H :    0.154738
   9 H :    0.094559
  10 H :    0.111910
  11 H :    0.092376

  Mayer bond orders larger than 0.1
B(  6-C ,  7-O ) :   0.9873 B(  6-C ,  9-H ) :   0.9808 B(  6-C , 10-H ) :   0.9719
B(  6-C , 11-H ) :   0.9831 B(  7-O ,  8-H ) :   0.9064

Dispersion correction           -0.000195615
FINAL SINGLE POINT ENERGY      -115.731838167043

DIPOLE MOMENT
-------------
                                X             Y             Z
Electronic contribution:      1.28079      -0.94901       0.85413
Nuclear contribution   :     -1.43132       1.62828      -0.90354
                        -----------------------------------------
Total Dipole Moment    :     -0.15053       0.67926      -0.04941
                        -----------------------------------------
Magnitude (a.u.)       :      0.69749
Magnitude (Debye)      :      1.77289

Rotational constants in cm-1:     4.247182     0.879107     0.832710
Rotational constants in MHz : 127327.321142 26354.955056 24964.013265

                             ****ORCA TERMINATED NORMALLY****
TOTAL RUN TIME: 0 days 0 hours 0 minutes 48 seconds 321 msec
