                         Program Version 4.1.2  - RELEASE  -
|  1> #Run DFT-D3 single point of the dimer
|  2> ! wB97X-D3 def2-TZVP TIGHTSCF CHELPG PMODEL PAL8
|  3>
|  4> %base "9-78_DFT_AB"
|  5>
|  6> %scf
|  7> MaxIter 1000
|  8> end
|  9>
| 10> * xyz 0 1
| 11>   C                      -6.988085            5.917320             -1.756806
| 12>   O                      -5.841079            5.346315             -1.198149
| 13>   H                      -6.238028            4.725105             -0.596400
| 14>   H                      -7.469596            5.138823             -2.402609
| 15>   H                      -7.670168            6.304700             -1.043612
| 16>   H                      -6.732474            6.712058             -2.340388
| 17>   C                      -5.758727            2.281736             -0.012449
| 18>   O                      -6.241981            3.264940             0.908813
| 19>   H                      -5.634623            3.345040             1.596205
| 20>   H                      -5.261233            2.823329             -0.817087
| 21>   H                      -5.057883            1.652041             0.401358
| 22>   H                      -6.575905            1.760519             -0.520477
| 23> *
| 24>
| 25> #Run DFT-D3 single point of the molecule with dimer basis set
| 26> $new_job
| 27> %base "9-78_DFT_A"
| 28> ! wB97X-D3 def2-TZVP TIGHTSCF CHELPG PMODEL
| 29>
| 30> %scf
| 31> MaxIter 1000
| 32> end
| 33>
| 34> * xyz 0 1
| 35>   C                      -6.988085            5.917320             -1.756806
| 36>   O                      -5.841079            5.346315             -1.198149
| 37>   H                      -6.238028            4.725105             -0.596400
| 38>   H                      -7.469596            5.138823             -2.402609
| 39>   H                      -7.670168            6.304700             -1.043612
| 40>   H                      -6.732474            6.712058             -2.340388
| 41>   C                    : -5.758727            2.281736             -0.012449
| 42>   O                    : -6.241981            3.264940             0.908813
| 43>   H                    : -5.634623            3.345040             1.596205
| 44>   H                    : -5.261233            2.823329             -0.817087
| 45>   H                    : -5.057883            1.652041             0.401358
| 46>   H                    : -6.575905            1.760519             -0.520477
| 47> *
| 48>
| 49> #Run DFT-D3 single point of the particle with dimer basis set
| 50> $new_job
| 51> %base "9-78_DFT_B"
| 52> ! wB97X-D3 def2-TZVP TIGHTSCF CHELPG PMODEL
| 53>
| 54> %scf
| 55> MaxIter 1000
| 56> end
| 57>
| 58> * xyz 0 1
| 59>   C                    : -6.988085            5.917320             -1.756806
| 60>   O                    : -5.841079            5.346315             -1.198149
| 61>   H                    : -6.238028            4.725105             -0.596400
| 62>   H                    : -7.469596            5.138823             -2.402609
| 63>   H                    : -7.670168            6.304700             -1.043612
| 64>   H                    : -6.732474            6.712058             -2.340388
| 65>   C                      -5.758727            2.281736             -0.012449
| 66>   O                      -6.241981            3.264940             0.908813
| 67>   H                      -5.634623            3.345040             1.596205
| 68>   H                      -5.261233            2.823329             -0.817087
| 69>   H                      -5.057883            1.652041             0.401358
| 70>   H                      -6.575905            1.760519             -0.520477
| 71> *
| 72>
| 73>                          ****END OF INPUT****
 Total Charge           Charge          ....    0
 Multiplicity           Mult            ....    1
 Number of Electrons    NEL             ....   36
Dispersion correction           -0.001798174
FINAL SINGLE POINT ENERGY      -231.467221435839
Dispersion correction           -0.000197776
FINAL SINGLE POINT ENERGY      -115.729706672982

CARTESIAN COORDINATES (ANGSTROEM)
---------------------------------
  C     -6.988085    5.917320   -1.756806
  O     -5.841079    5.346315   -1.198149
  H     -6.238028    4.725105   -0.596400
  H     -7.469596    5.138823   -2.402609
  H     -7.670168    6.304700   -1.043612
  H     -6.732474    6.712058   -2.340388
  C     -5.758727    2.281736   -0.012449
  O     -6.241981    3.264940    0.908813
  H     -5.634623    3.345040    1.596205
  H     -5.261233    2.823329   -0.817087
  H     -5.057883    1.652041    0.401358
  H     -6.575905    1.760519   -0.520477

 Multiplicity           Mult            ....    1
 Number of Electrons    NEL             ....   18
 Basis Dimension        Dim             ....  172

ORBITAL ENERGIES
----------------

  NO   OCC          E(Eh)            E(eV)
   0   2.0000     -19.224680      -523.1301
   1   2.0000     -10.307453      -280.4800
   2   2.0000      -1.138188       -30.9717
   3   2.0000      -0.805569       -21.9207
   4   2.0000      -0.618476       -16.8296
   5   2.0000      -0.536372       -14.5954
   6   2.0000      -0.531501       -14.4629
   7   2.0000      -0.443395       -12.0654
   8   2.0000      -0.370640       -10.0856
   9   0.0000       0.096681         2.6308
  10   0.0000       0.127163         3.4603
  11   0.0000       0.154690         4.2093
  12   0.0000       0.185052         5.0355
  13   0.0000       0.197298         5.3688

MULLIKEN ATOMIC CHARGES
-----------------------
   0 C :   -0.001295
   1 O :   -0.002770
   2 H :    0.003933
   3 H :    0.000168
   4 H :   -0.000506
   5 H :   -0.000078
   6 C :   -0.166103
   7 O :   -0.477114
   8 H :    0.305646
   9 H :    0.100394
  10 H :    0.121507
  11 H :    0.116219
Sum of atomic charges:   -0.0000000

LOEWDIN ATOMIC CHARGES
----------------------
   0 C :   -0.001255
   1 O :   -0.005982
   2 H :   -0.028715
   3 H :   -0.000041
   4 H :   -0.000151
   5 H :   -0.000014
   6 C :   -0.351207
   7 O :   -0.046622
   8 H :    0.140614
   9 H :    0.101085
  10 H :    0.083414
  11 H :    0.108873

  Mayer bond orders larger than 0.1
B(  6-C ,  7-O ) :   0.9880 B(  6-C ,  9-H ) :   0.9864 B(  6-C , 10-H ) :   0.9781
B(  6-C , 11-H ) :   0.9773 B(  7-O ,  8-H ) :   0.9102

Dispersion correction           -0.000234880
FINAL SINGLE POINT ENERGY      -115.730306427381

DIPOLE MOMENT
-------------
                                X             Y             Z
Electronic contribution:     -0.70262       1.09245       1.21253
Nuclear contribution   :      1.31607      -1.46291      -1.13763
                        -----------------------------------------
Total Dipole Moment    :      0.61346      -0.37046       0.07490
                        -----------------------------------------
Magnitude (a.u.)       :      0.72054
Magnitude (Debye)      :      1.83147

Rotational constants in cm-1:     4.521446     0.823542     0.790872
Rotational constants in MHz : 135549.547203 24689.177044 23709.753127

                             ****ORCA TERMINATED NORMALLY****
TOTAL RUN TIME: 0 days 0 hours 0 minutes 46 seconds 201 msec
