                         Program Version 4.1.2  - RELEASE  -
|  1> #Run DFT-D3 single point of the dimer
|  2> ! wB97X-D3 def2-TZVP TIGHTSCF CHELPG PMODEL PAL8
|  3>
|  4> %base "7-194_DFT_AB"
|  5>
|  6> %scf
|  7> MaxIter 1000
|  8> end
|  9>
| 10> * xyz 0 1
| 11>   C                      1.775487             -5.850397            -1.722327
| 12>   O                      2.810676             -6.793449            -1.944086
| 13>   H                      2.419186             -7.565538            -2.296030
| 14>   H                      1.421974             -5.903203            -0.654926
| 15>   H                      2.131401             -4.852611            -1.820649
| 16>   H                      0.974114             -5.960712            -2.478591
| 17>   C                      2.775365             -11.059201           -4.428406
| 18>   O                      2.782174             -9.685765            -4.104138
| 19>   H                      2.214490             -9.178142            -4.698456
| 20>   H                      1.795818             -11.390671           -4.779482
| 21>   H                      3.590928             -11.242125           -5.133909
| 22>   H                      2.947330             -11.674584           -3.518488
| 23> *
| 24>
| 25> #Run DFT-D3 single point of the molecule with dimer basis set
| 26> $new_job
| 27> %base "7-194_DFT_A"
| 28> ! wB97X-D3 def2-TZVP TIGHTSCF CHELPG PMODEL
| 29>
| 30> %scf
| 31> MaxIter 1000
| 32> end
| 33>
| 34> * xyz 0 1
| 35>   C                      1.775487             -5.850397            -1.722327
| 36>   O                      2.810676             -6.793449            -1.944086
| 37>   H                      2.419186             -7.565538            -2.296030
| 38>   H                      1.421974             -5.903203            -0.654926
| 39>   H                      2.131401             -4.852611            -1.820649
| 40>   H                      0.974114             -5.960712            -2.478591
| 41>   C                    : 2.775365             -11.059201           -4.428406
| 42>   O                    : 2.782174             -9.685765            -4.104138
| 43>   H                    : 2.214490             -9.178142            -4.698456
| 44>   H                    : 1.795818             -11.390671           -4.779482
| 45>   H                    : 3.590928             -11.242125           -5.133909
| 46>   H                    : 2.947330             -11.674584           -3.518488
| 47> *
| 48>
| 49> #Run DFT-D3 single point of the particle with dimer basis set
| 50> $new_job
| 51> %base "7-194_DFT_B"
| 52> ! wB97X-D3 def2-TZVP TIGHTSCF CHELPG PMODEL
| 53>
| 54> %scf
| 55> MaxIter 1000
| 56> end
| 57>
| 58> * xyz 0 1
| 59>   C                    : 1.775487             -5.850397            -1.722327
| 60>   O                    : 2.810676             -6.793449            -1.944086
| 61>   H                    : 2.419186             -7.565538            -2.296030
| 62>   H                    : 1.421974             -5.903203            -0.654926
| 63>   H                    : 2.131401             -4.852611            -1.820649
| 64>   H                    : 0.974114             -5.960712            -2.478591
| 65>   C                      2.775365             -11.059201           -4.428406
| 66>   O                      2.782174             -9.685765            -4.104138
| 67>   H                      2.214490             -9.178142            -4.698456
| 68>   H                      1.795818             -11.390671           -4.779482
| 69>   H                      3.590928             -11.242125           -5.133909
| 70>   H                      2.947330             -11.674584           -3.518488
| 71> *
| 72>
| 73>                          ****END OF INPUT****
 Total Charge           Charge          ....    0
 Multiplicity           Mult            ....    1
 Number of Electrons    NEL             ....   36
Dispersion correction           -0.001102686
FINAL SINGLE POINT ENERGY      -231.470759586920
Dispersion correction           -0.000246357
FINAL SINGLE POINT ENERGY      -115.733579942408

CARTESIAN COORDINATES (ANGSTROEM)
---------------------------------
  C      1.775487   -5.850397   -1.722327
  O      2.810676   -6.793449   -1.944086
  H      2.419186   -7.565538   -2.296030
  H      1.421974   -5.903203   -0.654926
  H      2.131401   -4.852611   -1.820649
  H      0.974114   -5.960712   -2.478591
  C      2.775365  -11.059201   -4.428406
  O      2.782174   -9.685765   -4.104138
  H      2.214490   -9.178142   -4.698456
  H      1.795818  -11.390671   -4.779482
  H      3.590928  -11.242125   -5.133909
  H      2.947330  -11.674584   -3.518488

 Multiplicity           Mult            ....    1
 Number of Electrons    NEL             ....   18
 Basis Dimension        Dim             ....  172

ORBITAL ENERGIES
----------------

  NO   OCC          E(Eh)            E(eV)
   0   2.0000     -19.227788      -523.2147
   1   2.0000     -10.314877      -280.6821
   2   2.0000      -1.132948       -30.8291
   3   2.0000      -0.794603       -21.6223
   4   2.0000      -0.608804       -16.5664
   5   2.0000      -0.547827       -14.9071
   6   2.0000      -0.524940       -14.2843
   7   2.0000      -0.424967       -11.5640
   8   2.0000      -0.373078       -10.1520
   9   0.0000       0.092259         2.5105
  10   0.0000       0.118605         3.2274
  11   0.0000       0.152773         4.1572
  12   0.0000       0.187224         5.0946
  13   0.0000       0.202193         5.5020

MULLIKEN ATOMIC CHARGES
-----------------------
   0 C :    0.000710
   1 O :    0.000463
   2 H :   -0.007364
   3 H :   -0.000027
   4 H :   -0.000008
   5 H :   -0.000158
   6 C :   -0.152727
   7 O :   -0.479352
   8 H :    0.318689
   9 H :    0.099991
  10 H :    0.105059
  11 H :    0.114725
Sum of atomic charges:   -0.0000000

LOEWDIN ATOMIC CHARGES
----------------------
   0 C :   -0.000075
   1 O :   -0.000568
   2 H :   -0.007608
   3 H :   -0.000000
   4 H :   -0.000001
   5 H :   -0.000024
   6 C :   -0.386484
   7 O :   -0.078182
   8 H :    0.171596
   9 H :    0.094332
  10 H :    0.096921
  11 H :    0.110094

  Mayer bond orders larger than 0.1
B(  6-C ,  7-O ) :   0.9951 B(  6-C ,  9-H ) :   0.9794 B(  6-C , 10-H ) :   0.9763
B(  6-C , 11-H ) :   0.9732 B(  7-O ,  8-H ) :   0.8934

Dispersion correction           -0.000247320
FINAL SINGLE POINT ENERGY      -115.735034390428

DIPOLE MOMENT
-------------
                                X             Y             Z
Electronic contribution:      0.07838       1.70907       0.43768
Nuclear contribution   :     -0.46589      -1.94755      -0.94676
                        -----------------------------------------
Total Dipole Moment    :     -0.38751      -0.23848      -0.50909
                        -----------------------------------------
Magnitude (a.u.)       :      0.68279
Magnitude (Debye)      :      1.73552

Rotational constants in cm-1:     4.271503     0.826768     0.805474
Rotational constants in MHz : 128056.441420 24785.866927 24147.506332

                             ****ORCA TERMINATED NORMALLY****
TOTAL RUN TIME: 0 days 0 hours 1 minutes 3 seconds 931 msec
