                         Program Version 4.1.2  - RELEASE  -
|  1> #Run DFT-D3 single point of the dimer
|  2> ! wB97X-D3 def2-TZVP TIGHTSCF CHELPG PMODEL PAL8
|  3>
|  4> %base "5-166_DFT_AB"
|  5>
|  6> %scf
|  7> MaxIter 1000
|  8> end
|  9>
| 10> * xyz 0 1
| 11>   C                      -3.144203            4.392068             10.245906
| 12>   O                      -3.336756            5.742294             10.403956
| 13>   H                      -3.719260            5.963119             11.270870
| 14>   H                      -2.884907            4.088890             9.214125
| 15>   H                      -2.292382            4.066987             10.843130
| 16>   H                      -4.019794            3.876536             10.561146
| 17>   C                      0.281343             5.425971             7.271081
| 18>   O                      -0.571326            5.965919             8.264859
| 19>   H                      -1.411455            5.583989             8.297878
| 20>   H                      0.226441             4.318300             7.176412
| 21>   H                      0.161979             5.849751             6.212081
| 22>   H                      1.319846             5.539177             7.514093
| 23> *
| 24>
| 25> #Run DFT-D3 single point of the molecule with dimer basis set
| 26> $new_job
| 27> %base "5-166_DFT_A"
| 28> ! wB97X-D3 def2-TZVP TIGHTSCF CHELPG PMODEL
| 29>
| 30> %scf
| 31> MaxIter 1000
| 32> end
| 33>
| 34> * xyz 0 1
| 35>   C                      -3.144203            4.392068             10.245906
| 36>   O                      -3.336756            5.742294             10.403956
| 37>   H                      -3.719260            5.963119             11.270870
| 38>   H                      -2.884907            4.088890             9.214125
| 39>   H                      -2.292382            4.066987             10.843130
| 40>   H                      -4.019794            3.876536             10.561146
| 41>   C                    : 0.281343             5.425971             7.271081
| 42>   O                    : -0.571326            5.965919             8.264859
| 43>   H                    : -1.411455            5.583989             8.297878
| 44>   H                    : 0.226441             4.318300             7.176412
| 45>   H                    : 0.161979             5.849751             6.212081
| 46>   H                    : 1.319846             5.539177             7.514093
| 47> *
| 48>
| 49> #Run DFT-D3 single point of the particle with dimer basis set
| 50> $new_job
| 51> %base "5-166_DFT_B"
| 52> ! wB97X-D3 def2-TZVP TIGHTSCF CHELPG PMODEL
| 53>
| 54> %scf
| 55> MaxIter 1000
| 56> end
| 57>
| 58> * xyz 0 1
| 59>   C                    : -3.144203            4.392068             10.245906
| 60>   O                    : -3.336756            5.742294             10.403956
| 61>   H                    : -3.719260            5.963119             11.270870
| 62>   H                    : -2.884907            4.088890             9.214125
| 63>   H                    : -2.292382            4.066987             10.843130
| 64>   H                    : -4.019794            3.876536             10.561146
| 65>   C                      0.281343             5.425971             7.271081
| 66>   O                      -0.571326            5.965919             8.264859
| 67>   H                      -1.411455            5.583989             8.297878
| 68>   H                      0.226441             4.318300             7.176412
| 69>   H                      0.161979             5.849751             6.212081
| 70>   H                      1.319846             5.539177             7.514093
| 71> *
| 72>
| 73>                          ****END OF INPUT****
 Total Charge           Charge          ....    0
 Multiplicity           Mult            ....    1
 Number of Electrons    NEL             ....   36
Dispersion correction           -0.001561182
FINAL SINGLE POINT ENERGY      -231.464241239718
Dispersion correction           -0.000222477
FINAL SINGLE POINT ENERGY      -115.732831308434

CARTESIAN COORDINATES (ANGSTROEM)
---------------------------------
  C     -3.144203    4.392068   10.245906
  O     -3.336756    5.742294   10.403956
  H     -3.719260    5.963119   11.270870
  H     -2.884907    4.088890    9.214125
  H     -2.292382    4.066987   10.843130
  H     -4.019794    3.876536   10.561146
  C      0.281343    5.425971    7.271081
  O     -0.571326    5.965919    8.264859
  H     -1.411455    5.583989    8.297878
  H      0.226441    4.318300    7.176412
  H      0.161979    5.849751    6.212081
  H      1.319846    5.539177    7.514093

 Multiplicity           Mult            ....    1
 Number of Electrons    NEL             ....   18
 Basis Dimension        Dim             ....  172

ORBITAL ENERGIES
----------------

  NO   OCC          E(Eh)            E(eV)
   0   2.0000     -19.231119      -523.3054
   1   2.0000     -10.320731      -280.8414
   2   2.0000      -1.141553       -31.0632
   3   2.0000      -0.802646       -21.8411
   4   2.0000      -0.620133       -16.8747
   5   2.0000      -0.535109       -14.5611
   6   2.0000      -0.528119       -14.3708
   7   2.0000      -0.426237       -11.5985
   8   2.0000      -0.378308       -10.2943
   9   0.0000       0.077318         2.1039
  10   0.0000       0.128556         3.4982
  11   0.0000       0.149117         4.0577
  12   0.0000       0.168235         4.5779
  13   0.0000       0.197422         5.3721

MULLIKEN ATOMIC CHARGES
-----------------------
   0 C :   -0.002795
   1 O :    0.000439
   2 H :    0.000024
   3 H :   -0.003772
   4 H :    0.000425
   5 H :   -0.000511
   6 C :   -0.170726
   7 O :   -0.470149
   8 H :    0.315516
   9 H :    0.104527
  10 H :    0.100897
  11 H :    0.126125
Sum of atomic charges:   -0.0000000

LOEWDIN ATOMIC CHARGES
----------------------
   0 C :   -0.005790
   1 O :   -0.000581
   2 H :   -0.000024
   3 H :   -0.003109
   4 H :   -0.000520
   5 H :   -0.000122
   6 C :   -0.389900
   7 O :   -0.049851
   8 H :    0.144836
   9 H :    0.098805
  10 H :    0.103372
  11 H :    0.102884

  Mayer bond orders larger than 0.1
B(  6-C ,  7-O ) :   1.0041 B(  6-C ,  9-H ) :   0.9750 B(  6-C , 10-H ) :   0.9717
B(  6-C , 11-H ) :   0.9724 B(  7-O ,  8-H ) :   0.9019

Dispersion correction           -0.000287705
FINAL SINGLE POINT ENERGY      -115.730725208159

DIPOLE MOMENT
-------------
                                X             Y             Z
Electronic contribution:     -1.09337       0.85315       1.40344
Nuclear contribution   :      0.91226      -1.34599      -1.75956
                        -----------------------------------------
Total Dipole Moment    :     -0.18110      -0.49284      -0.35613
                        -----------------------------------------
Magnitude (a.u.)       :      0.63444
Magnitude (Debye)      :      1.61263

Rotational constants in cm-1:     4.510947     0.798858     0.785475
Rotational constants in MHz : 135234.792391 23949.148792 23547.947062

                             ****ORCA TERMINATED NORMALLY****
TOTAL RUN TIME: 0 days 0 hours 0 minutes 55 seconds 809 msec
