                         Program Version 4.1.2  - RELEASE  -
|  1> #Run DFT-D3 single point of the dimer
|  2> ! wB97X-D3 def2-TZVP TIGHTSCF CHELPG PMODEL PAL8
|  3>
|  4> %base "15-95_DFT_AB"
|  5>
|  6> %scf
|  7> MaxIter 1000
|  8> end
|  9>
| 10> * xyz 0 1
| 11>   C                      -9.298286            -3.963653            -8.912593
| 12>   O                      -9.166355            -4.048198            -10.336452
| 13>   H                      -8.265125            -4.216737            -10.593542
| 14>   H                      -8.442000            -3.655143            -8.442609
| 15>   H                      -10.045310           -3.234867            -8.637548
| 16>   H                      -9.578055            -4.961619            -8.479259
| 17>   C                      -9.347846            1.572445             -7.362608
| 18>   O                      -9.229498            2.959362             -7.017927
| 19>   H                      -8.292907            3.042813             -6.689373
| 20>   H                      -9.106067            0.966314             -6.509872
| 21>   H                      -10.326030           1.408049             -7.778850
| 22>   H                      -8.577278            1.338307             -8.130141
| 23> *
| 24>
| 25> #Run DFT-D3 single point of the molecule with dimer basis set
| 26> $new_job
| 27> %base "15-95_DFT_A"
| 28> ! wB97X-D3 def2-TZVP TIGHTSCF CHELPG PMODEL
| 29>
| 30> %scf
| 31> MaxIter 1000
| 32> end
| 33>
| 34> * xyz 0 1
| 35>   C                      -9.298286            -3.963653            -8.912593
| 36>   O                      -9.166355            -4.048198            -10.336452
| 37>   H                      -8.265125            -4.216737            -10.593542
| 38>   H                      -8.442000            -3.655143            -8.442609
| 39>   H                      -10.045310           -3.234867            -8.637548
| 40>   H                      -9.578055            -4.961619            -8.479259
| 41>   C                    : -9.347846            1.572445             -7.362608
| 42>   O                    : -9.229498            2.959362             -7.017927
| 43>   H                    : -8.292907            3.042813             -6.689373
| 44>   H                    : -9.106067            0.966314             -6.509872
| 45>   H                    : -10.326030           1.408049             -7.778850
| 46>   H                    : -8.577278            1.338307             -8.130141
| 47> *
| 48>
| 49> #Run DFT-D3 single point of the particle with dimer basis set
| 50> $new_job
| 51> %base "15-95_DFT_B"
| 52> ! wB97X-D3 def2-TZVP TIGHTSCF CHELPG PMODEL
| 53>
| 54> %scf
| 55> MaxIter 1000
| 56> end
| 57>
| 58> * xyz 0 1
| 59>   C                    : -9.298286            -3.963653            -8.912593
| 60>   O                    : -9.166355            -4.048198            -10.336452
| 61>   H                    : -8.265125            -4.216737            -10.593542
| 62>   H                    : -8.442000            -3.655143            -8.442609
| 63>   H                    : -10.045310           -3.234867            -8.637548
| 64>   H                    : -9.578055            -4.961619            -8.479259
| 65>   C                      -9.347846            1.572445             -7.362608
| 66>   O                      -9.229498            2.959362             -7.017927
| 67>   H                      -8.292907            3.042813             -6.689373
| 68>   H                      -9.106067            0.966314             -6.509872
| 69>   H                      -10.326030           1.408049             -7.778850
| 70>   H                      -8.577278            1.338307             -8.130141
| 71> *
| 72>
| 73>                          ****END OF INPUT****
 Total Charge           Charge          ....    0
 Multiplicity           Mult            ....    1
 Number of Electrons    NEL             ....   36
Dispersion correction           -0.000595476
FINAL SINGLE POINT ENERGY      -231.465073841381
Dispersion correction           -0.000255864
FINAL SINGLE POINT ENERGY      -115.731643242457

CARTESIAN COORDINATES (ANGSTROEM)
---------------------------------
  C     -9.298286   -3.963653   -8.912593
  O     -9.166355   -4.048198  -10.336452
  H     -8.265125   -4.216737  -10.593542
  H     -8.442000   -3.655143   -8.442609
  H    -10.045310   -3.234867   -8.637548
  H     -9.578055   -4.961619   -8.479259
  C     -9.347846    1.572445   -7.362608
  O     -9.229498    2.959362   -7.017927
  H     -8.292907    3.042813   -6.689373
  H     -9.106067    0.966314   -6.509872
  H    -10.326030    1.408049   -7.778850
  H     -8.577278    1.338307   -8.130141

 Multiplicity           Mult            ....    1
 Number of Electrons    NEL             ....   18
 Basis Dimension        Dim             ....  172

ORBITAL ENERGIES
----------------

  NO   OCC          E(Eh)            E(eV)
   0   2.0000     -19.231036      -523.3031
   1   2.0000     -10.312149      -280.6078
   2   2.0000      -1.124909       -30.6103
   3   2.0000      -0.791407       -21.5353
   4   2.0000      -0.604510       -16.4496
   5   2.0000      -0.538940       -14.6653
   6   2.0000      -0.524175       -14.2635
   7   2.0000      -0.441635       -12.0175
   8   2.0000      -0.369663       -10.0590
   9   0.0000       0.083479         2.2716
  10   0.0000       0.109279         2.9736
  11   0.0000       0.147212         4.0059
  12   0.0000       0.166981         4.5438
  13   0.0000       0.194163         5.2835

MULLIKEN ATOMIC CHARGES
-----------------------
   0 C :   -0.000009
   1 O :    0.000001
   2 H :    0.000000
   3 H :   -0.000007
   4 H :    0.000004
   5 H :   -0.000000
   6 C :   -0.168335
   7 O :   -0.477767
   8 H :    0.312889
   9 H :    0.108727
  10 H :    0.124987
  11 H :    0.099509
Sum of atomic charges:   -0.0000000

LOEWDIN ATOMIC CHARGES
----------------------
   0 C :   -0.000010
   1 O :   -0.000001
   2 H :   -0.000000
   3 H :   -0.000003
   4 H :   -0.000008
   5 H :   -0.000000
   6 C :   -0.370580
   7 O :   -0.111414
   8 H :    0.188148
   9 H :    0.090866
  10 H :    0.105084
  11 H :    0.097919

  Mayer bond orders larger than 0.1
B(  6-C ,  7-O ) :   0.9897 B(  6-C ,  9-H ) :   0.9756 B(  6-C , 10-H ) :   0.9724
B(  6-C , 11-H ) :   0.9806 B(  7-O ,  8-H ) :   0.8987

Dispersion correction           -0.000218148
FINAL SINGLE POINT ENERGY      -115.733425101762

DIPOLE MOMENT
-------------
                                X             Y             Z
Electronic contribution:     -0.15354       1.69704       0.42460
Nuclear contribution   :      0.67181      -2.20679      -0.36282
                        -----------------------------------------
Total Dipole Moment    :      0.51826      -0.50975       0.06178
                        -----------------------------------------
Magnitude (a.u.)       :      0.72956
Magnitude (Debye)      :      1.85439

Rotational constants in cm-1:     4.137635     0.829532     0.790574
Rotational constants in MHz : 124043.171478 24868.748399 23700.824316

                             ****ORCA TERMINATED NORMALLY****
TOTAL RUN TIME: 0 days 0 hours 0 minutes 42 seconds 479 msec
