                         Program Version 4.1.2  - RELEASE  -
|  1> #Run DFT-D3 single point of the dimer
|  2> ! wB97X-D3 def2-TZVP TIGHTSCF  CHELPG PAL8
|  3>
|  4> %base "26_charges"
|  5>
|  6> %scf
|  7> MaxIter 1000
|  8> end
|  9> %output
| 10>   Print[ P_Mayer ] 1
| 11>   Print[ P_NatPop ] 1
| 12>   Print[ P_Hirshfeld ] 1
| 13>   Print[ P_Mulliken ] 1
| 14>   Print [ P_Loewdin ] 1
| 15> end
| 16>
| 17> * xyz 0 1
| 18>   C                      -6.053073            -3.975525            -8.431801
| 19>   O                      -6.375768            -4.051434            -7.027885
| 20>   H                      -5.564738            -3.932327            -6.588004
| 21>   H                      -5.594269            -2.944110            -8.602753
| 22>   H                      -5.251478            -4.759371            -8.676464
| 23>   H                      -6.960758            -4.076662            -9.015425
| 24> *
| 25>
| 26>                          ****END OF INPUT****

CARTESIAN COORDINATES (ANGSTROEM)
---------------------------------
  C     -6.053073   -3.975525   -8.431801
  O     -6.375768   -4.051434   -7.027885
  H     -5.564738   -3.932327   -6.588004
  H     -5.594269   -2.944110   -8.602753
  H     -5.251478   -4.759371   -8.676464
  H     -6.960758   -4.076662   -9.015425

 Total Charge           Charge          ....    0
 Multiplicity           Mult            ....    1
 Number of Electrons    NEL             ....   18
 Basis Dimension        Dim             ....   86

ORBITAL ENERGIES
----------------

  NO   OCC          E(Eh)            E(eV)
   0   2.0000     -19.225614      -523.1556
   1   2.0000     -10.326405      -280.9958
   2   2.0000      -1.135336       -30.8941
   3   2.0000      -0.789959       -21.4959
   4   2.0000      -0.604324       -16.4445
   5   2.0000      -0.532994       -14.5035
   6   2.0000      -0.528600       -14.3839
   7   2.0000      -0.440085       -11.9753
   8   2.0000      -0.370734       -10.0882
   9   0.0000       0.114276         3.1096
  10   0.0000       0.156531         4.2594
  11   0.0000       0.191672         5.2157
  12   0.0000       0.201125         5.4729
  13   0.0000       0.219780         5.9805

MULLIKEN ATOMIC CHARGES
-----------------------
   0 C :   -0.178931
   1 O :   -0.467986
   2 H :    0.307485
   3 H :    0.103827
   4 H :    0.104946
   5 H :    0.130660
Sum of atomic charges:   -0.0000000

LOEWDIN ATOMIC CHARGES
----------------------
   0 C :   -0.369839
   1 O :   -0.088567
   2 H :    0.146164
   3 H :    0.102833
   4 H :    0.103884
   5 H :    0.105526

  Mayer bond orders larger than 0.1
B(  0-C ,  1-O ) :   0.9887 B(  0-C ,  3-H ) :   0.9776 B(  0-C ,  4-H ) :   0.9720
B(  0-C ,  5-H ) :   0.9704 B(  1-O ,  2-H ) :   0.9094

Dispersion correction           -0.000234583
FINAL SINGLE POINT ENERGY      -115.731518051053

DIPOLE MOMENT
-------------
                                X             Y             Z
Electronic contribution:     -0.66815      -0.18766       1.64202
Nuclear contribution   :      1.29164       0.29711      -1.92798
                        -----------------------------------------
Total Dipole Moment    :      0.62349       0.10944      -0.28596
                        -----------------------------------------
Magnitude (a.u.)       :      0.69462
Magnitude (Debye)      :      1.76558

Rotational constants in cm-1:     4.017499     0.813061     0.784333
Rotational constants in MHz : 120441.582550 24374.941511 23513.718071

                             ****ORCA TERMINATED NORMALLY****
TOTAL RUN TIME: 0 days 0 hours 0 minutes 40 seconds 183 msec
