                         Program Version 4.1.2  - RELEASE  -
|  1> #Run DFT-D3 single point of the dimer
|  2> ! wB97X-D3 def2-TZVP TIGHTSCF CHELPG PMODEL PAL8
|  3>
|  4> %base "4-190_DFT_AB"
|  5>
|  6> %scf
|  7> MaxIter 1000
|  8> end
|  9>
| 10> * xyz 0 1
| 11>   C                      -2.851558            8.955236             7.983612
| 12>   O                      -1.903564            8.192339             8.664395
| 13>   H                      -1.051089            8.453823             8.410331
| 14>   H                      -3.869168            8.630597             8.271023
| 15>   H                      -2.646111            10.007625            8.078707
| 16>   H                      -2.944603            8.727458             6.899355
| 17>   C                      0.867423             5.723621             7.837959
| 18>   O                      1.307199             6.869017             8.474441
| 19>   H                      2.178329             7.084609             8.183428
| 20>   H                      -0.228600            5.779283             7.761657
| 21>   H                      1.350560             5.603302             6.902444
| 22>   H                      1.142569             4.843651             8.449275
| 23> *
| 24>
| 25> #Run DFT-D3 single point of the molecule with dimer basis set
| 26> $new_job
| 27> %base "4-190_DFT_A"
| 28> ! wB97X-D3 def2-TZVP TIGHTSCF CHELPG PMODEL
| 29>
| 30> %scf
| 31> MaxIter 1000
| 32> end
| 33>
| 34> * xyz 0 1
| 35>   C                      -2.851558            8.955236             7.983612
| 36>   O                      -1.903564            8.192339             8.664395
| 37>   H                      -1.051089            8.453823             8.410331
| 38>   H                      -3.869168            8.630597             8.271023
| 39>   H                      -2.646111            10.007625            8.078707
| 40>   H                      -2.944603            8.727458             6.899355
| 41>   C                    : 0.867423             5.723621             7.837959
| 42>   O                    : 1.307199             6.869017             8.474441
| 43>   H                    : 2.178329             7.084609             8.183428
| 44>   H                    : -0.228600            5.779283             7.761657
| 45>   H                    : 1.350560             5.603302             6.902444
| 46>   H                    : 1.142569             4.843651             8.449275
| 47> *
| 48>
| 49> #Run DFT-D3 single point of the particle with dimer basis set
| 50> $new_job
| 51> %base "4-190_DFT_B"
| 52> ! wB97X-D3 def2-TZVP TIGHTSCF CHELPG PMODEL
| 53>
| 54> %scf
| 55> MaxIter 1000
| 56> end
| 57>
| 58> * xyz 0 1
| 59>   C                    : -2.851558            8.955236             7.983612
| 60>   O                    : -1.903564            8.192339             8.664395
| 61>   H                    : -1.051089            8.453823             8.410331
| 62>   H                    : -3.869168            8.630597             8.271023
| 63>   H                    : -2.646111            10.007625            8.078707
| 64>   H                    : -2.944603            8.727458             6.899355
| 65>   C                      0.867423             5.723621             7.837959
| 66>   O                      1.307199             6.869017             8.474441
| 67>   H                      2.178329             7.084609             8.183428
| 68>   H                      -0.228600            5.779283             7.761657
| 69>   H                      1.350560             5.603302             6.902444
| 70>   H                      1.142569             4.843651             8.449275
| 71> *
| 72>
| 73>                          ****END OF INPUT****
 Total Charge           Charge          ....    0
 Multiplicity           Mult            ....    1
 Number of Electrons    NEL             ....   36
Dispersion correction           -0.001404269
FINAL SINGLE POINT ENERGY      -231.469616352455
Dispersion correction           -0.000240195
FINAL SINGLE POINT ENERGY      -115.732083148815

CARTESIAN COORDINATES (ANGSTROEM)
---------------------------------
  C     -2.851558    8.955236    7.983612
  O     -1.903564    8.192339    8.664395
  H     -1.051089    8.453823    8.410331
  H     -3.869168    8.630597    8.271023
  H     -2.646111   10.007625    8.078707
  H     -2.944603    8.727458    6.899355
  C      0.867423    5.723621    7.837959
  O      1.307199    6.869017    8.474441
  H      2.178329    7.084609    8.183428
  H     -0.228600    5.779283    7.761657
  H      1.350560    5.603302    6.902444
  H      1.142569    4.843651    8.449275

 Multiplicity           Mult            ....    1
 Number of Electrons    NEL             ....   18
 Basis Dimension        Dim             ....  172

ORBITAL ENERGIES
----------------

  NO   OCC          E(Eh)            E(eV)
   0   2.0000     -19.225320      -523.1476
   1   2.0000     -10.308037      -280.4959
   2   2.0000      -1.147801       -31.2333
   3   2.0000      -0.796296       -21.6683
   4   2.0000      -0.622449       -16.9377
   5   2.0000      -0.541680       -14.7399
   6   2.0000      -0.533842       -14.5266
   7   2.0000      -0.434348       -11.8192
   8   2.0000      -0.368153       -10.0180
   9   0.0000       0.092987         2.5303
  10   0.0000       0.117897         3.2081
  11   0.0000       0.158824         4.3218
  12   0.0000       0.177377         4.8267
  13   0.0000       0.196695         5.3523

MULLIKEN ATOMIC CHARGES
-----------------------
   0 C :    0.000026
   1 O :    0.000295
   2 H :   -0.004588
   3 H :   -0.000007
   4 H :    0.000003
   5 H :    0.000016
   6 C :   -0.149253
   7 O :   -0.468800
   8 H :    0.311442
   9 H :    0.115944
  10 H :    0.101071
  11 H :    0.093851
Sum of atomic charges:    0.0000000

LOEWDIN ATOMIC CHARGES
----------------------
   0 C :   -0.000154
   1 O :   -0.000851
   2 H :   -0.005902
   3 H :   -0.000004
   4 H :   -0.000004
   5 H :   -0.000016
   6 C :   -0.400136
   7 O :   -0.044748
   8 H :    0.159236
   9 H :    0.108409
  10 H :    0.087633
  11 H :    0.096537

  Mayer bond orders larger than 0.1
B(  6-C ,  7-O ) :   0.9983 B(  6-C ,  9-H ) :   0.9752 B(  6-C , 10-H ) :   0.9848
B(  6-C , 11-H ) :   0.9759 B(  7-O ,  8-H ) :   0.9013

Dispersion correction           -0.000219240
FINAL SINGLE POINT ENERGY      -115.734124603245

DIPOLE MOMENT
-------------
                                X             Y             Z
Electronic contribution:      0.44024       1.50346       0.77616
Nuclear contribution   :     -0.02312      -1.79646      -1.23302
                        -----------------------------------------
Total Dipole Moment    :      0.41712      -0.29300      -0.45686
                        -----------------------------------------
Magnitude (a.u.)       :      0.68451
Magnitude (Debye)      :      1.73990

Rotational constants in cm-1:     4.307716     0.871987     0.836643
Rotational constants in MHz : 129142.074257 26141.508362 25081.927670

                             ****ORCA TERMINATED NORMALLY****
TOTAL RUN TIME: 0 days 0 hours 1 minutes 29 seconds 425 msec
