                         Program Version 4.1.2  - RELEASE  -
|  1> #Run DFT-D3 single point of the dimer
|  2> ! wB97X-D3 def2-TZVP TIGHTSCF  CHELPG PAL8
|  3>
|  4> %base "178_charges"
|  5>
|  6> %scf
|  7> MaxIter 1000
|  8> end
|  9> %output
| 10>   Print[ P_Mayer ] 1
| 11>   Print[ P_NatPop ] 1
| 12>   Print[ P_Hirshfeld ] 1
| 13>   Print[ P_Mulliken ] 1
| 14>   Print [ P_Loewdin ] 1
| 15> end
| 16>
| 17> * xyz 0 1
| 18>   C                      5.745846             1.530627             -4.828774
| 19>   O                      7.000854             2.002101             -5.306810
| 20>   H                      7.052804             1.808109             -6.278320
| 21>   H                      4.966948             1.644033             -5.615176
| 22>   H                      5.738216             0.462477             -4.770132
| 23>   H                      5.408745             1.962078             -3.912262
| 24> *
| 25>
| 26>                          ****END OF INPUT****

CARTESIAN COORDINATES (ANGSTROEM)
---------------------------------
  C      5.745846    1.530627   -4.828774
  O      7.000854    2.002101   -5.306810
  H      7.052804    1.808109   -6.278320
  H      4.966948    1.644033   -5.615176
  H      5.738216    0.462477   -4.770132
  H      5.408745    1.962078   -3.912262

 Total Charge           Charge          ....    0
 Multiplicity           Mult            ....    1
 Number of Electrons    NEL             ....   18
 Basis Dimension        Dim             ....   86

ORBITAL ENERGIES
----------------

  NO   OCC          E(Eh)            E(eV)
   0   2.0000     -19.232693      -523.3482
   1   2.0000     -10.310859      -280.5727
   2   2.0000      -1.127264       -30.6744
   3   2.0000      -0.797259       -21.6945
   4   2.0000      -0.609958       -16.5978
   5   2.0000      -0.540272       -14.7016
   6   2.0000      -0.525871       -14.3097
   7   2.0000      -0.436492       -11.8776
   8   2.0000      -0.368569       -10.0293
   9   0.0000       0.108716         2.9583
  10   0.0000       0.153406         4.1744
  11   0.0000       0.201159         5.4738
  12   0.0000       0.210965         5.7406
  13   0.0000       0.228079         6.2063

MULLIKEN ATOMIC CHARGES
-----------------------
   0 C :   -0.168729
   1 O :   -0.477432
   2 H :    0.319673
   3 H :    0.097780
   4 H :    0.104308
   5 H :    0.124399
Sum of atomic charges:   -0.0000000

LOEWDIN ATOMIC CHARGES
----------------------
   0 C :   -0.379388
   1 O :   -0.099561
   2 H :    0.188973
   3 H :    0.098670
   4 H :    0.089868
   5 H :    0.101438

  Mayer bond orders larger than 0.1
B(  0-C ,  1-O ) :   0.9991 B(  0-C ,  3-H ) :   0.9859 B(  0-C ,  4-H ) :   0.9749
B(  0-C ,  5-H ) :   0.9715 B(  1-O ,  2-H ) :   0.8925

Dispersion correction           -0.000238120
FINAL SINGLE POINT ENERGY      -115.729872513405

DIPOLE MOMENT
-------------
                                X             Y             Z
Electronic contribution:      1.71018       0.76045      -0.27921
Nuclear contribution   :     -2.19204      -1.08143      -0.14122
                        -----------------------------------------
Total Dipole Moment    :     -0.48187      -0.32098      -0.42044
                        -----------------------------------------
Magnitude (a.u.)       :      0.71554
Magnitude (Debye)      :      1.81875

Rotational constants in cm-1:     4.370012     0.824840     0.782381
Rotational constants in MHz : 131009.661902 24728.090812 23455.205932

                             ****ORCA TERMINATED NORMALLY****
TOTAL RUN TIME: 0 days 0 hours 0 minutes 41 seconds 166 msec
