                         Program Version 4.1.2  - RELEASE  -
|  1> #Run DFT-D3 single point of the dimer
|  2> ! wB97X-D3 def2-TZVP TIGHTSCF  CHELPG PAL8
|  3>
|  4> %base "55_charges"
|  5>
|  6> %scf
|  7> MaxIter 1000
|  8> end
|  9> %output
| 10>   Print[ P_Mayer ] 1
| 11>   Print[ P_NatPop ] 1
| 12>   Print[ P_Hirshfeld ] 1
| 13>   Print[ P_Mulliken ] 1
| 14>   Print [ P_Loewdin ] 1
| 15> end
| 16>
| 17> * xyz 0 1
| 18>   C                      -5.978338            3.614962             -5.693333
| 19>   O                      -6.634230            3.220069             -6.907562
| 20>   H                      -7.443305            2.703362             -6.688042
| 21>   H                      -5.761461            2.739398             -5.055314
| 22>   H                      -5.102059            4.099193             -5.866813
| 23>   H                      -6.626964            4.314765             -5.108241
| 24> *
| 25>
| 26>                          ****END OF INPUT****

CARTESIAN COORDINATES (ANGSTROEM)
---------------------------------
  C     -5.978338    3.614962   -5.693333
  O     -6.634230    3.220069   -6.907562
  H     -7.443305    2.703362   -6.688042
  H     -5.761461    2.739398   -5.055314
  H     -5.102059    4.099193   -5.866813
  H     -6.626964    4.314765   -5.108241

 Total Charge           Charge          ....    0
 Multiplicity           Mult            ....    1
 Number of Electrons    NEL             ....   18
 Basis Dimension        Dim             ....   86

ORBITAL ENERGIES
----------------

  NO   OCC          E(Eh)            E(eV)
   0   2.0000     -19.230879      -523.2988
   1   2.0000     -10.310634      -280.5666
   2   2.0000      -1.123345       -30.5678
   3   2.0000      -0.800276       -21.7766
   4   2.0000      -0.601927       -16.3793
   5   2.0000      -0.536826       -14.6078
   6   2.0000      -0.534645       -14.5484
   7   2.0000      -0.433873       -11.8063
   8   2.0000      -0.371699       -10.1144
   9   0.0000       0.112990         3.0746
  10   0.0000       0.153837         4.1861
  11   0.0000       0.201227         5.4757
  12   0.0000       0.212970         5.7952
  13   0.0000       0.221272         6.0211

MULLIKEN ATOMIC CHARGES
-----------------------
   0 C :   -0.163225
   1 O :   -0.484778
   2 H :    0.318006
   3 H :    0.102809
   4 H :    0.129113
   5 H :    0.098076
Sum of atomic charges:    0.0000000

LOEWDIN ATOMIC CHARGES
----------------------
   0 C :   -0.362215
   1 O :   -0.105244
   2 H :    0.181550
   3 H :    0.098397
   4 H :    0.087795
   5 H :    0.099717

  Mayer bond orders larger than 0.1
B(  0-C ,  1-O ) :   0.9980 B(  0-C ,  3-H ) :   0.9779 B(  0-C ,  4-H ) :   0.9728
B(  0-C ,  5-H ) :   0.9782 B(  1-O ,  2-H ) :   0.8945

Dispersion correction           -0.000249989
FINAL SINGLE POINT ENERGY      -115.731380375924

DIPOLE MOMENT
-------------
                                X             Y             Z
Electronic contribution:     -0.59915      -0.39919      -1.68220
Nuclear contribution   :      0.38773       0.24266       2.31122
                        -----------------------------------------
Total Dipole Moment    :     -0.21142      -0.15653       0.62902
                        -----------------------------------------
Magnitude (a.u.)       :      0.68181
Magnitude (Debye)      :      1.73301

Rotational constants in cm-1:     4.362102     0.806154     0.783426
Rotational constants in MHz : 130772.520618 24167.893671 23486.529341

                             ****ORCA TERMINATED NORMALLY****
TOTAL RUN TIME: 0 days 0 hours 0 minutes 40 seconds 253 msec
