                         Program Version 4.1.2  - RELEASE  -
|  1> #Run DFT-D3 single point of the dimer
|  2> ! wB97X-D3 def2-TZVP TIGHTSCF CHELPG PMODEL PAL8
|  3>
|  4> %base "2-64_DFT_AB"
|  5>
|  6> %scf
|  7> MaxIter 1000
|  8> end
|  9>
| 10> * xyz 0 1
| 11>   C                      0.999467             -9.027304            -3.912011
| 12>   O                      2.186414             -9.130388            -3.186209
| 13>   H                      2.083546             -9.885682            -2.567494
| 14>   H                      0.950091             -9.809537            -4.582821
| 15>   H                      0.089306             -9.087572            -3.267712
| 16>   H                      0.963477             -8.154280            -4.573107
| 17>   C                      1.939360             -9.035453            -7.082805
| 18>   O                      3.045270             -8.165502            -7.097040
| 19>   H                      3.112391             -7.736880            -6.215927
| 20>   H                      1.745708             -9.488842            -6.117196
| 21>   H                      0.983521             -8.509977            -7.267819
| 22>   H                      2.094026             -9.756410            -7.788334
| 23> *
| 24>
| 25> #Run DFT-D3 single point of the molecule with dimer basis set
| 26> $new_job
| 27> %base "2-64_DFT_A"
| 28> ! wB97X-D3 def2-TZVP TIGHTSCF CHELPG PMODEL
| 29>
| 30> %scf
| 31> MaxIter 1000
| 32> end
| 33>
| 34> * xyz 0 1
| 35>   C                      0.999467             -9.027304            -3.912011
| 36>   O                      2.186414             -9.130388            -3.186209
| 37>   H                      2.083546             -9.885682            -2.567494
| 38>   H                      0.950091             -9.809537            -4.582821
| 39>   H                      0.089306             -9.087572            -3.267712
| 40>   H                      0.963477             -8.154280            -4.573107
| 41>   C                    : 1.939360             -9.035453            -7.082805
| 42>   O                    : 3.045270             -8.165502            -7.097040
| 43>   H                    : 3.112391             -7.736880            -6.215927
| 44>   H                    : 1.745708             -9.488842            -6.117196
| 45>   H                    : 0.983521             -8.509977            -7.267819
| 46>   H                    : 2.094026             -9.756410            -7.788334
| 47> *
| 48>
| 49> #Run DFT-D3 single point of the particle with dimer basis set
| 50> $new_job
| 51> %base "2-64_DFT_B"
| 52> ! wB97X-D3 def2-TZVP TIGHTSCF CHELPG PMODEL
| 53>
| 54> %scf
| 55> MaxIter 1000
| 56> end
| 57>
| 58> * xyz 0 1
| 59>   C                    : 0.999467             -9.027304            -3.912011
| 60>   O                    : 2.186414             -9.130388            -3.186209
| 61>   H                    : 2.083546             -9.885682            -2.567494
| 62>   H                    : 0.950091             -9.809537            -4.582821
| 63>   H                    : 0.089306             -9.087572            -3.267712
| 64>   H                    : 0.963477             -8.154280            -4.573107
| 65>   C                      1.939360             -9.035453            -7.082805
| 66>   O                      3.045270             -8.165502            -7.097040
| 67>   H                      3.112391             -7.736880            -6.215927
| 68>   H                      1.745708             -9.488842            -6.117196
| 69>   H                      0.983521             -8.509977            -7.267819
| 70>   H                      2.094026             -9.756410            -7.788334
| 71> *
| 72>
| 73>                          ****END OF INPUT****
 Total Charge           Charge          ....    0
 Multiplicity           Mult            ....    1
 Number of Electrons    NEL             ....   36
Dispersion correction           -0.002052427
FINAL SINGLE POINT ENERGY      -231.459741338942
Dispersion correction           -0.000223826
FINAL SINGLE POINT ENERGY      -115.730751331931

CARTESIAN COORDINATES (ANGSTROEM)
---------------------------------
  C      0.999467   -9.027304   -3.912011
  O      2.186414   -9.130388   -3.186209
  H      2.083546   -9.885682   -2.567494
  H      0.950091   -9.809537   -4.582821
  H      0.089306   -9.087572   -3.267712
  H      0.963477   -8.154280   -4.573107
  C      1.939360   -9.035453   -7.082805
  O      3.045270   -8.165502   -7.097040
  H      3.112391   -7.736880   -6.215927
  H      1.745708   -9.488842   -6.117196
  H      0.983521   -8.509977   -7.267819
  H      2.094026   -9.756410   -7.788334

 Multiplicity           Mult            ....    1
 Number of Electrons    NEL             ....   18
 Basis Dimension        Dim             ....  172

ORBITAL ENERGIES
----------------

  NO   OCC          E(Eh)            E(eV)
   0   2.0000     -19.232243      -523.3359
   1   2.0000     -10.303892      -280.3832
   2   2.0000      -1.134002       -30.8578
   3   2.0000      -0.800277       -21.7766
   4   2.0000      -0.615368       -16.7450
   5   2.0000      -0.541340       -14.7306
   6   2.0000      -0.527551       -14.3554
   7   2.0000      -0.440316       -11.9816
   8   2.0000      -0.370390       -10.0788
   9   0.0000       0.075985         2.0677
  10   0.0000       0.123431         3.3587
  11   0.0000       0.150822         4.1041
  12   0.0000       0.173592         4.7237
  13   0.0000       0.196344         5.3428

MULLIKEN ATOMIC CHARGES
-----------------------
   0 C :    0.001686
   1 O :   -0.000408
   2 H :   -0.000086
   3 H :   -0.002186
   4 H :    0.000551
   5 H :    0.001313
   6 C :   -0.148321
   7 O :   -0.475232
   8 H :    0.316944
   9 H :    0.085901
  10 H :    0.093066
  11 H :    0.126771
Sum of atomic charges:    0.0000000

LOEWDIN ATOMIC CHARGES
----------------------
   0 C :   -0.022978
   1 O :   -0.000282
   2 H :   -0.000039
   3 H :   -0.015972
   4 H :   -0.000134
   5 H :   -0.004818
   6 C :   -0.367187
   7 O :   -0.076011
   8 H :    0.182290
   9 H :    0.114384
  10 H :    0.100221
  11 H :    0.090526

  Mayer bond orders larger than 0.1
B(  6-C ,  7-O ) :   1.0061 B(  6-C ,  9-H ) :   0.9824 B(  6-C , 10-H ) :   0.9799
B(  6-C , 11-H ) :   0.9752 B(  7-O ,  8-H ) :   0.8986

Dispersion correction           -0.000237907
FINAL SINGLE POINT ENERGY      -115.731833919039

DIPOLE MOMENT
-------------
                                X             Y             Z
Electronic contribution:      1.53927       1.00268      -0.22785
Nuclear contribution   :     -1.91797      -1.09112       0.79864
                        -----------------------------------------
Total Dipole Moment    :     -0.37870      -0.08844       0.57079
                        -----------------------------------------
Magnitude (a.u.)       :      0.69068
Magnitude (Debye)      :      1.75557

Rotational constants in cm-1:     4.438283     0.840637     0.806453
Rotational constants in MHz : 133056.386797 25201.651883 24176.838620

                             ****ORCA TERMINATED NORMALLY****
TOTAL RUN TIME: 0 days 0 hours 5 minutes 57 seconds 959 msec
