                         Program Version 4.1.2  - RELEASE  -
|  1> #Run DFT-D3 single point of the dimer
|  2> ! wB97X-D3 def2-TZVP TIGHTSCF CHELPG PMODEL PAL8
|  3>
|  4> %base "10-37_DFT_AB"
|  5>
|  6> %scf
|  7> MaxIter 1000
|  8> end
|  9>
| 10> * xyz 0 1
| 11>   C                      2.311494             -9.830904            -8.216563
| 12>   O                      3.558891             -10.484770           -8.480704
| 13>   H                      3.941405             -10.762820           -7.664795
| 14>   H                      2.383091             -9.009173            -7.449427
| 15>   H                      1.831679             -9.423599            -9.122781
| 16>   H                      1.578314             -10.570983           -7.892508
| 17>   C                      7.627756             -8.285923            -6.683459
| 18>   O                      8.961988             -7.889269            -7.122497
| 19>   H                      8.855676             -6.925130            -7.287756
| 20>   H                      6.814872             -8.049190            -7.415096
| 21>   H                      7.716530             -9.343361            -6.572529
| 22>   H                      7.367304             -7.829640            -5.696377
| 23> *
| 24>
| 25> #Run DFT-D3 single point of the molecule with dimer basis set
| 26> $new_job
| 27> %base "10-37_DFT_A"
| 28> ! wB97X-D3 def2-TZVP TIGHTSCF CHELPG PMODEL
| 29>
| 30> %scf
| 31> MaxIter 1000
| 32> end
| 33>
| 34> * xyz 0 1
| 35>   C                      2.311494             -9.830904            -8.216563
| 36>   O                      3.558891             -10.484770           -8.480704
| 37>   H                      3.941405             -10.762820           -7.664795
| 38>   H                      2.383091             -9.009173            -7.449427
| 39>   H                      1.831679             -9.423599            -9.122781
| 40>   H                      1.578314             -10.570983           -7.892508
| 41>   C                    : 7.627756             -8.285923            -6.683459
| 42>   O                    : 8.961988             -7.889269            -7.122497
| 43>   H                    : 8.855676             -6.925130            -7.287756
| 44>   H                    : 6.814872             -8.049190            -7.415096
| 45>   H                    : 7.716530             -9.343361            -6.572529
| 46>   H                    : 7.367304             -7.829640            -5.696377
| 47> *
| 48>
| 49> #Run DFT-D3 single point of the particle with dimer basis set
| 50> $new_job
| 51> %base "10-37_DFT_B"
| 52> ! wB97X-D3 def2-TZVP TIGHTSCF CHELPG PMODEL
| 53>
| 54> %scf
| 55> MaxIter 1000
| 56> end
| 57>
| 58> * xyz 0 1
| 59>   C                    : 2.311494             -9.830904            -8.216563
| 60>   O                    : 3.558891             -10.484770           -8.480704
| 61>   H                    : 3.941405             -10.762820           -7.664795
| 62>   H                    : 2.383091             -9.009173            -7.449427
| 63>   H                    : 1.831679             -9.423599            -9.122781
| 64>   H                    : 1.578314             -10.570983           -7.892508
| 65>   C                      7.627756             -8.285923            -6.683459
| 66>   O                      8.961988             -7.889269            -7.122497
| 67>   H                      8.855676             -6.925130            -7.287756
| 68>   H                      6.814872             -8.049190            -7.415096
| 69>   H                      7.716530             -9.343361            -6.572529
| 70>   H                      7.367304             -7.829640            -5.696377
| 71> *
| 72>
| 73>                          ****END OF INPUT****
 Total Charge           Charge          ....    0
 Multiplicity           Mult            ....    1
 Number of Electrons    NEL             ....   36
Dispersion correction           -0.000743875
FINAL SINGLE POINT ENERGY      -231.467636281689
Dispersion correction           -0.000260748
FINAL SINGLE POINT ENERGY      -115.733914923052

CARTESIAN COORDINATES (ANGSTROEM)
---------------------------------
  C      2.311494   -9.830904   -8.216563
  O      3.558891  -10.484770   -8.480704
  H      3.941405  -10.762820   -7.664795
  H      2.383091   -9.009173   -7.449427
  H      1.831679   -9.423599   -9.122781
  H      1.578314  -10.570983   -7.892508
  C      7.627756   -8.285923   -6.683459
  O      8.961988   -7.889269   -7.122497
  H      8.855676   -6.925130   -7.287756
  H      6.814872   -8.049190   -7.415096
  H      7.716530   -9.343361   -6.572529
  H      7.367304   -7.829640   -5.696377

 Multiplicity           Mult            ....    1
 Number of Electrons    NEL             ....   18
 Basis Dimension        Dim             ....  172

ORBITAL ENERGIES
----------------

  NO   OCC          E(Eh)            E(eV)
   0   2.0000     -19.234318      -523.3924
   1   2.0000     -10.318494      -280.7805
   2   2.0000      -1.121944       -30.5296
   3   2.0000      -0.791565       -21.5396
   4   2.0000      -0.600595       -16.3430
   5   2.0000      -0.534019       -14.5314
   6   2.0000      -0.515504       -14.0276
   7   2.0000      -0.446114       -12.1394
   8   2.0000      -0.375648       -10.2219
   9   0.0000       0.081733         2.2241
  10   0.0000       0.112344         3.0570
  11   0.0000       0.139523         3.7966
  12   0.0000       0.173097         4.7102
  13   0.0000       0.187120         5.0918

MULLIKEN ATOMIC CHARGES
-----------------------
   0 C :   -0.000011
   1 O :    0.000006
   2 H :   -0.000058
   3 H :   -0.000017
   4 H :    0.000002
   5 H :   -0.000002
   6 C :   -0.179757
   7 O :   -0.470844
   8 H :    0.311129
   9 H :    0.108602
  10 H :    0.127133
  11 H :    0.103817
Sum of atomic charges:   -0.0000000

LOEWDIN ATOMIC CHARGES
----------------------
   0 C :   -0.000030
   1 O :   -0.000027
   2 H :   -0.000081
   3 H :   -0.000011
   4 H :   -0.000000
   5 H :   -0.000001
   6 C :   -0.363474
   7 O :   -0.117422
   8 H :    0.178774
   9 H :    0.099656
  10 H :    0.103324
  11 H :    0.099293

  Mayer bond orders larger than 0.1
B(  6-C ,  7-O ) :   1.0007 B(  6-C ,  9-H ) :   0.9673 B(  6-C , 10-H ) :   0.9773
B(  6-C , 11-H ) :   0.9702 B(  7-O ,  8-H ) :   0.9036

Dispersion correction           -0.000255230
FINAL SINGLE POINT ENERGY      -115.733543576039

DIPOLE MOMENT
-------------
                                X             Y             Z
Electronic contribution:      1.69423       0.33092      -0.54738
Nuclear contribution   :     -2.29070       0.07638       0.62439
                        -----------------------------------------
Total Dipole Moment    :     -0.59648       0.40730       0.07701
                        -----------------------------------------
Magnitude (a.u.)       :      0.72637
Magnitude (Debye)      :      1.84628

Rotational constants in cm-1:     4.112695     0.795536     0.767699
Rotational constants in MHz : 123295.489764 23849.563635 23015.027844

                             ****ORCA TERMINATED NORMALLY****
TOTAL RUN TIME: 0 days 0 hours 1 minutes 0 seconds 214 msec
