                         Program Version 4.1.2  - RELEASE  -
|  1> #Run DFT-D3 single point of the dimer
|  2> ! wB97X-D3 def2-TZVP TIGHTSCF CHELPG PMODEL PAL8
|  3>
|  4> %base "16-40_DFT_AB"
|  5>
|  6> %scf
|  7> MaxIter 1000
|  8> end
|  9>
| 10> * xyz 0 1
| 11>   C                      -9.607152            5.117939             10.317156
| 12>   O                      -9.368994            5.737735             9.035976
| 13>   H                      -8.398916            5.941708             9.107230
| 14>   H                      -9.158430            4.141483             10.316364
| 15>   H                      -9.168728            5.705296             11.156317
| 16>   H                      -10.756930           5.109507             10.406257
| 17>   C                      -10.037389           5.208327             5.839933
| 18>   O                      -11.094003           5.304891             6.756249
| 19>   H                      -10.638730           5.104098             7.598141
| 20>   H                      -9.741434            6.117248             5.345021
| 21>   H                      -9.141869            4.795341             6.347240
| 22>   H                      -10.248663           4.470560             5.046905
| 23> *
| 24>
| 25> #Run DFT-D3 single point of the molecule with dimer basis set
| 26> $new_job
| 27> %base "16-40_DFT_A"
| 28> ! wB97X-D3 def2-TZVP TIGHTSCF CHELPG PMODEL
| 29>
| 30> %scf
| 31> MaxIter 1000
| 32> end
| 33>
| 34> * xyz 0 1
| 35>   C                      -9.607152            5.117939             10.317156
| 36>   O                      -9.368994            5.737735             9.035976
| 37>   H                      -8.398916            5.941708             9.107230
| 38>   H                      -9.158430            4.141483             10.316364
| 39>   H                      -9.168728            5.705296             11.156317
| 40>   H                      -10.756930           5.109507             10.406257
| 41>   C                    : -10.037389           5.208327             5.839933
| 42>   O                    : -11.094003           5.304891             6.756249
| 43>   H                    : -10.638730           5.104098             7.598141
| 44>   H                    : -9.741434            6.117248             5.345021
| 45>   H                    : -9.141869            4.795341             6.347240
| 46>   H                    : -10.248663           4.470560             5.046905
| 47> *
| 48>
| 49> #Run DFT-D3 single point of the particle with dimer basis set
| 50> $new_job
| 51> %base "16-40_DFT_B"
| 52> ! wB97X-D3 def2-TZVP TIGHTSCF CHELPG PMODEL
| 53>
| 54> %scf
| 55> MaxIter 1000
| 56> end
| 57>
| 58> * xyz 0 1
| 59>   C                    : -9.607152            5.117939             10.317156
| 60>   O                    : -9.368994            5.737735             9.035976
| 61>   H                    : -8.398916            5.941708             9.107230
| 62>   H                    : -9.158430            4.141483             10.316364
| 63>   H                    : -9.168728            5.705296             11.156317
| 64>   H                    : -10.756930           5.109507             10.406257
| 65>   C                      -10.037389           5.208327             5.839933
| 66>   O                      -11.094003           5.304891             6.756249
| 67>   H                      -10.638730           5.104098             7.598141
| 68>   H                      -9.741434            6.117248             5.345021
| 69>   H                      -9.141869            4.795341             6.347240
| 70>   H                      -10.248663           4.470560             5.046905
| 71> *
| 72>
| 73>                          ****END OF INPUT****
 Total Charge           Charge          ....    0
 Multiplicity           Mult            ....    1
 Number of Electrons    NEL             ....   36
Dispersion correction           -0.001826747
FINAL SINGLE POINT ENERGY      -231.469620929912
Dispersion correction           -0.000229781
FINAL SINGLE POINT ENERGY      -115.730853938945

CARTESIAN COORDINATES (ANGSTROEM)
---------------------------------
  C     -9.607152    5.117939   10.317156
  O     -9.368994    5.737735    9.035976
  H     -8.398916    5.941708    9.107230
  H     -9.158430    4.141483   10.316364
  H     -9.168728    5.705296   11.156317
  H    -10.756930    5.109507   10.406257
  C    -10.037389    5.208327    5.839933
  O    -11.094003    5.304891    6.756249
  H    -10.638730    5.104098    7.598141
  H     -9.741434    6.117248    5.345021
  H     -9.141869    4.795341    6.347240
  H    -10.248663    4.470560    5.046905

 Multiplicity           Mult            ....    1
 Number of Electrons    NEL             ....   18
 Basis Dimension        Dim             ....  172

ORBITAL ENERGIES
----------------

  NO   OCC          E(Eh)            E(eV)
   0   2.0000     -19.236263      -523.4453
   1   2.0000     -10.312927      -280.6290
   2   2.0000      -1.142849       -31.0985
   3   2.0000      -0.791309       -21.5326
   4   2.0000      -0.613185       -16.6856
   5   2.0000      -0.543782       -14.7971
   6   2.0000      -0.530231       -14.4283
   7   2.0000      -0.434248       -11.8165
   8   2.0000      -0.375962       -10.2304
   9   0.0000       0.065416         1.7801
  10   0.0000       0.130029         3.5383
  11   0.0000       0.147476         4.0130
  12   0.0000       0.168646         4.5891
  13   0.0000       0.185820         5.0564

MULLIKEN ATOMIC CHARGES
-----------------------
   0 C :   -0.002505
   1 O :   -0.005139
   2 H :   -0.000037
   3 H :    0.000014
   4 H :    0.000067
   5 H :    0.000018
   6 C :   -0.173585
   7 O :   -0.450751
   8 H :    0.320154
   9 H :    0.107988
  10 H :    0.095480
  11 H :    0.108296
Sum of atomic charges:   -0.0000000

LOEWDIN ATOMIC CHARGES
----------------------
   0 C :   -0.003748
   1 O :   -0.017561
   2 H :   -0.000883
   3 H :   -0.000102
   4 H :   -0.000073
   5 H :   -0.000502
   6 C :   -0.401656
   7 O :   -0.062822
   8 H :    0.192734
   9 H :    0.093451
  10 H :    0.099452
  11 H :    0.101711

  Mayer bond orders larger than 0.1
B(  6-C ,  7-O ) :   1.0073 B(  6-C ,  9-H ) :   0.9697 B(  6-C , 10-H ) :   0.9935
B(  6-C , 11-H ) :   0.9784 B(  7-O ,  8-H ) :   0.9037

Dispersion correction           -0.000238947
FINAL SINGLE POINT ENERGY      -115.731918728512

DIPOLE MOMENT
-------------
                                X             Y             Z
Electronic contribution:     -1.59631       0.29503       1.08854
Nuclear contribution   :      2.28257      -0.46388      -0.90891
                        -----------------------------------------
Total Dipole Moment    :      0.68625      -0.16885       0.17963
                        -----------------------------------------
Magnitude (a.u.)       :      0.72919
Magnitude (Debye)      :      1.85346

Rotational constants in cm-1:     4.280285     0.843889     0.809731
Rotational constants in MHz : 128319.727691 25299.154807 24275.133007

                             ****ORCA TERMINATED NORMALLY****
TOTAL RUN TIME: 0 days 0 hours 1 minutes 9 seconds 74 msec
