                         Program Version 4.1.2  - RELEASE  -
|  1> #Run DFT-D3 single point of the dimer
|  2> ! wB97X-D3 def2-TZVP TIGHTSCF CHELPG PMODEL PAL8
|  3>
|  4> %base "21-18_DFT_AB"
|  5>
|  6> %scf
|  7> MaxIter 1000
|  8> end
|  9>
| 10> * xyz 0 1
| 11>   C                      7.010154             -0.039045            -9.433605
| 12>   O                      8.270154             0.587972             -9.839625
| 13>   H                      8.487820             0.297724             -10.722834
| 14>   H                      6.245528             0.058010             -10.219982
| 15>   H                      7.161661             -1.110750            -9.489318
| 16>   H                      6.696794             0.214839             -8.443639
| 17>   C                      9.228296             -0.241838            -6.258084
| 18>   O                      10.018616            -0.647798            -7.345073
| 19>   H                      9.408194             -0.781000            -8.081191
| 20>   H                      9.509850             -0.656845            -5.285636
| 21>   H                      9.049536             0.800049             -6.202469
| 22>   H                      8.299088             -0.647132            -6.534378
| 23> *
| 24>
| 25> #Run DFT-D3 single point of the molecule with dimer basis set
| 26> $new_job
| 27> %base "21-18_DFT_A"
| 28> ! wB97X-D3 def2-TZVP TIGHTSCF CHELPG PMODEL
| 29>
| 30> %scf
| 31> MaxIter 1000
| 32> end
| 33>
| 34> * xyz 0 1
| 35>   C                      7.010154             -0.039045            -9.433605
| 36>   O                      8.270154             0.587972             -9.839625
| 37>   H                      8.487820             0.297724             -10.722834
| 38>   H                      6.245528             0.058010             -10.219982
| 39>   H                      7.161661             -1.110750            -9.489318
| 40>   H                      6.696794             0.214839             -8.443639
| 41>   C                    : 9.228296             -0.241838            -6.258084
| 42>   O                    : 10.018616            -0.647798            -7.345073
| 43>   H                    : 9.408194             -0.781000            -8.081191
| 44>   H                    : 9.509850             -0.656845            -5.285636
| 45>   H                    : 9.049536             0.800049             -6.202469
| 46>   H                    : 8.299088             -0.647132            -6.534378
| 47> *
| 48>
| 49> #Run DFT-D3 single point of the particle with dimer basis set
| 50> $new_job
| 51> %base "21-18_DFT_B"
| 52> ! wB97X-D3 def2-TZVP TIGHTSCF CHELPG PMODEL
| 53>
| 54> %scf
| 55> MaxIter 1000
| 56> end
| 57>
| 58> * xyz 0 1
| 59>   C                    : 7.010154             -0.039045            -9.433605
| 60>   O                    : 8.270154             0.587972             -9.839625
| 61>   H                    : 8.487820             0.297724             -10.722834
| 62>   H                    : 6.245528             0.058010             -10.219982
| 63>   H                    : 7.161661             -1.110750            -9.489318
| 64>   H                    : 6.696794             0.214839             -8.443639
| 65>   C                      9.228296             -0.241838            -6.258084
| 66>   O                      10.018616            -0.647798            -7.345073
| 67>   H                      9.408194             -0.781000            -8.081191
| 68>   H                      9.509850             -0.656845            -5.285636
| 69>   H                      9.049536             0.800049             -6.202469
| 70>   H                      8.299088             -0.647132            -6.534378
| 71> *
| 72>
| 73>                          ****END OF INPUT****
 Total Charge           Charge          ....    0
 Multiplicity           Mult            ....    1
 Number of Electrons    NEL             ....   36
Dispersion correction           -0.002116338
FINAL SINGLE POINT ENERGY      -231.459413285521
Dispersion correction           -0.000245159
FINAL SINGLE POINT ENERGY      -115.729669757172

CARTESIAN COORDINATES (ANGSTROEM)
---------------------------------
  C      7.010154   -0.039045   -9.433605
  O      8.270154    0.587972   -9.839625
  H      8.487820    0.297724  -10.722834
  H      6.245528    0.058010  -10.219982
  H      7.161661   -1.110750   -9.489318
  H      6.696794    0.214839   -8.443639
  C      9.228296   -0.241838   -6.258084
  O     10.018616   -0.647798   -7.345073
  H      9.408194   -0.781000   -8.081191
  H      9.509850   -0.656845   -5.285636
  H      9.049536    0.800049   -6.202469
  H      8.299088   -0.647132   -6.534378

 Multiplicity           Mult            ....    1
 Number of Electrons    NEL             ....   18
 Basis Dimension        Dim             ....  172

ORBITAL ENERGIES
----------------

  NO   OCC          E(Eh)            E(eV)
   0   2.0000     -19.228890      -523.2447
   1   2.0000     -10.304351      -280.3956
   2   2.0000      -1.140540       -31.0357
   3   2.0000      -0.798607       -21.7312
   4   2.0000      -0.615500       -16.7486
   5   2.0000      -0.547759       -14.9053
   6   2.0000      -0.538153       -14.6439
   7   2.0000      -0.427418       -11.6306
   8   2.0000      -0.373683       -10.1684
   9   0.0000       0.065352         1.7783
  10   0.0000       0.137904         3.7526
  11   0.0000       0.144153         3.9226
  12   0.0000       0.163686         4.4541
  13   0.0000       0.190977         5.1967

MULLIKEN ATOMIC CHARGES
-----------------------
   0 C :   -0.004854
   1 O :   -0.000754
   2 H :   -0.000192
   3 H :   -0.000052
   4 H :    0.000232
   5 H :   -0.000174
   6 C :   -0.149585
   7 O :   -0.472682
   8 H :    0.316495
   9 H :    0.114375
  10 H :    0.102285
  11 H :    0.094905
Sum of atomic charges:    0.0000000

LOEWDIN ATOMIC CHARGES
----------------------
   0 C :   -0.006618
   1 O :   -0.004608
   2 H :   -0.000484
   3 H :   -0.000091
   4 H :   -0.000818
   5 H :   -0.001843
   6 C :   -0.380315
   7 O :   -0.068158
   8 H :    0.175463
   9 H :    0.106011
  10 H :    0.089301
  11 H :    0.092159

  Mayer bond orders larger than 0.1
B(  6-C ,  7-O ) :   0.9963 B(  6-C ,  9-H ) :   0.9729 B(  6-C , 10-H ) :   0.9702
B(  6-C , 11-H ) :   1.0076 B(  7-O ,  8-H ) :   0.9073

Dispersion correction           -0.000215630
FINAL SINGLE POINT ENERGY      -115.726298373890

DIPOLE MOMENT
-------------
                                X             Y             Z
Electronic contribution:      1.27628      -0.43746      -1.18763
Nuclear contribution   :     -2.00495       0.49737       1.15060
                        -----------------------------------------
Total Dipole Moment    :     -0.72867       0.05991      -0.03703
                        -----------------------------------------
Magnitude (a.u.)       :      0.73206
Magnitude (Debye)      :      1.86076

Rotational constants in cm-1:     4.479691     0.851817     0.818635
Rotational constants in MHz : 134297.744404 25536.821028 24542.070132

                             ****ORCA TERMINATED NORMALLY****
TOTAL RUN TIME: 0 days 0 hours 1 minutes 7 seconds 457 msec
