                         Program Version 4.1.2  - RELEASE  -
|  1> #Run DFT-D3 single point of the dimer
|  2> ! wB97X-D3 def2-TZVP TIGHTSCF CHELPG PMODEL PAL8
|  3>
|  4> %base "14-114_DFT_AB"
|  5>
|  6> %scf
|  7> MaxIter 1000
|  8> end
|  9>
| 10> * xyz 0 1
| 11>   C                      10.107105            -5.583094            0.898709
| 12>   O                      9.277626             -4.510390            1.399296
| 13>   H                      9.836118             -3.927165            1.959038
| 14>   H                      11.109694            -5.474125            1.303897
| 15>   H                      9.825191             -6.604012            1.214564
| 16>   H                      10.273370            -5.608392            -0.218637
| 17>   C                      8.923813             -0.098767            0.102245
| 18>   O                      9.582362             -1.326979            0.347016
| 19>   H                      9.023009             -2.103097            0.072596
| 20>   H                      8.093396             -0.021769            0.727830
| 21>   H                      9.461664             0.800306             0.080617
| 22>   H                      8.508285             -0.104171            -0.930753
| 23> *
| 24>
| 25> #Run DFT-D3 single point of the molecule with dimer basis set
| 26> $new_job
| 27> %base "14-114_DFT_A"
| 28> ! wB97X-D3 def2-TZVP TIGHTSCF CHELPG PMODEL
| 29>
| 30> %scf
| 31> MaxIter 1000
| 32> end
| 33>
| 34> * xyz 0 1
| 35>   C                      10.107105            -5.583094            0.898709
| 36>   O                      9.277626             -4.510390            1.399296
| 37>   H                      9.836118             -3.927165            1.959038
| 38>   H                      11.109694            -5.474125            1.303897
| 39>   H                      9.825191             -6.604012            1.214564
| 40>   H                      10.273370            -5.608392            -0.218637
| 41>   C                    : 8.923813             -0.098767            0.102245
| 42>   O                    : 9.582362             -1.326979            0.347016
| 43>   H                    : 9.023009             -2.103097            0.072596
| 44>   H                    : 8.093396             -0.021769            0.727830
| 45>   H                    : 9.461664             0.800306             0.080617
| 46>   H                    : 8.508285             -0.104171            -0.930753
| 47> *
| 48>
| 49> #Run DFT-D3 single point of the particle with dimer basis set
| 50> $new_job
| 51> %base "14-114_DFT_B"
| 52> ! wB97X-D3 def2-TZVP TIGHTSCF CHELPG PMODEL
| 53>
| 54> %scf
| 55> MaxIter 1000
| 56> end
| 57>
| 58> * xyz 0 1
| 59>   C                    : 10.107105            -5.583094            0.898709
| 60>   O                    : 9.277626             -4.510390            1.399296
| 61>   H                    : 9.836118             -3.927165            1.959038
| 62>   H                    : 11.109694            -5.474125            1.303897
| 63>   H                    : 9.825191             -6.604012            1.214564
| 64>   H                    : 10.273370            -5.608392            -0.218637
| 65>   C                      8.923813             -0.098767            0.102245
| 66>   O                      9.582362             -1.326979            0.347016
| 67>   H                      9.023009             -2.103097            0.072596
| 68>   H                      8.093396             -0.021769            0.727830
| 69>   H                      9.461664             0.800306             0.080617
| 70>   H                      8.508285             -0.104171            -0.930753
| 71> *
| 72>
| 73>                          ****END OF INPUT****
 Total Charge           Charge          ....    0
 Multiplicity           Mult            ....    1
 Number of Electrons    NEL             ....   36
Dispersion correction           -0.001313087
FINAL SINGLE POINT ENERGY      -231.460464976516
Dispersion correction           -0.000280399
FINAL SINGLE POINT ENERGY      -115.729972505010

CARTESIAN COORDINATES (ANGSTROEM)
---------------------------------
  C     10.107105   -5.583094    0.898709
  O      9.277626   -4.510390    1.399296
  H      9.836118   -3.927165    1.959038
  H     11.109694   -5.474125    1.303897
  H      9.825191   -6.604012    1.214564
  H     10.273370   -5.608392   -0.218637
  C      8.923813   -0.098767    0.102245
  O      9.582362   -1.326979    0.347016
  H      9.023009   -2.103097    0.072596
  H      8.093396   -0.021769    0.727830
  H      9.461664    0.800306    0.080617
  H      8.508285   -0.104171   -0.930753

 Multiplicity           Mult            ....    1
 Number of Electrons    NEL             ....   18
 Basis Dimension        Dim             ....  172

ORBITAL ENERGIES
----------------

  NO   OCC          E(Eh)            E(eV)
   0   2.0000     -19.231255      -523.3091
   1   2.0000     -10.305243      -280.4199
   2   2.0000      -1.126799       -30.6618
   3   2.0000      -0.802539       -21.8382
   4   2.0000      -0.607805       -16.5392
   5   2.0000      -0.552823       -15.0431
   6   2.0000      -0.529116       -14.3980
   7   2.0000      -0.423737       -11.5305
   8   2.0000      -0.370786       -10.0896
   9   0.0000       0.081182         2.2091
  10   0.0000       0.119545         3.2530
  11   0.0000       0.149970         4.0809
  12   0.0000       0.180657         4.9159
  13   0.0000       0.199520         5.4292

MULLIKEN ATOMIC CHARGES
-----------------------
   0 C :   -0.000235
   1 O :   -0.000431
   2 H :   -0.002892
   3 H :    0.000038
   4 H :    0.000005
   5 H :   -0.000016
   6 C :   -0.162779
   7 O :   -0.487887
   8 H :    0.325987
   9 H :    0.107603
  10 H :    0.127871
  11 H :    0.092736
Sum of atomic charges:    0.0000000

LOEWDIN ATOMIC CHARGES
----------------------
   0 C :   -0.000392
   1 O :   -0.001983
   2 H :   -0.003309
   3 H :   -0.000007
   4 H :   -0.000006
   5 H :   -0.000043
   6 C :   -0.376881
   7 O :   -0.094328
   8 H :    0.192345
   9 H :    0.085038
  10 H :    0.099258
  11 H :    0.100307

  Mayer bond orders larger than 0.1
B(  6-C ,  7-O ) :   0.9944 B(  6-C ,  9-H ) :   0.9825 B(  6-C , 10-H ) :   0.9682
B(  6-C , 11-H ) :   0.9873 B(  7-O ,  8-H ) :   0.8847

Dispersion correction           -0.000237773
FINAL SINGLE POINT ENERGY      -115.725292664124

DIPOLE MOMENT
-------------
                                X             Y             Z
Electronic contribution:      1.09883      -1.40698       0.54309
Nuclear contribution   :     -1.72818       1.44505      -0.83280
                        -----------------------------------------
Total Dipole Moment    :     -0.62935       0.03807      -0.28972
                        -----------------------------------------
Magnitude (a.u.)       :      0.69388
Magnitude (Debye)      :      1.76370

Rotational constants in cm-1:     4.580920     0.820042     0.793814
Rotational constants in MHz : 137332.531799 24584.254103 23797.942454

                             ****ORCA TERMINATED NORMALLY****
TOTAL RUN TIME: 0 days 0 hours 1 minutes 7 seconds 14 msec
