                         Program Version 4.1.2  - RELEASE  -
|  1> #Run DFT-D3 single point of the dimer
|  2> ! wB97X-D3 def2-TZVP TIGHTSCF CHELPG PMODEL PAL8
|  3>
|  4> %base "18-87_DFT_AB"
|  5>
|  6> %scf
|  7> MaxIter 1000
|  8> end
|  9>
| 10> * xyz 0 1
| 11>   C                      1.101496             -2.053978            7.307832
| 12>   O                      1.384987             -2.297058            5.969188
| 13>   H                      1.151471             -3.185395            5.702275
| 14>   H                      1.317104             -1.048099            7.698919
| 15>   H                      0.046442             -2.231063            7.406682
| 16>   H                      1.610017             -2.809292            7.907819
| 17>   C                      4.929075             -4.238960            7.673245
| 18>   O                      4.045496             -4.046907            8.764426
| 19>   H                      3.556016             -4.885246            8.697866
| 20>   H                      5.805546             -3.575551            7.652563
| 21>   H                      5.310129             -5.266422            7.598654
| 22>   H                      4.357928             -3.978853            6.774474
| 23> *
| 24>
| 25> #Run DFT-D3 single point of the molecule with dimer basis set
| 26> $new_job
| 27> %base "18-87_DFT_A"
| 28> ! wB97X-D3 def2-TZVP TIGHTSCF CHELPG PMODEL
| 29>
| 30> %scf
| 31> MaxIter 1000
| 32> end
| 33>
| 34> * xyz 0 1
| 35>   C                      1.101496             -2.053978            7.307832
| 36>   O                      1.384987             -2.297058            5.969188
| 37>   H                      1.151471             -3.185395            5.702275
| 38>   H                      1.317104             -1.048099            7.698919
| 39>   H                      0.046442             -2.231063            7.406682
| 40>   H                      1.610017             -2.809292            7.907819
| 41>   C                    : 4.929075             -4.238960            7.673245
| 42>   O                    : 4.045496             -4.046907            8.764426
| 43>   H                    : 3.556016             -4.885246            8.697866
| 44>   H                    : 5.805546             -3.575551            7.652563
| 45>   H                    : 5.310129             -5.266422            7.598654
| 46>   H                    : 4.357928             -3.978853            6.774474
| 47> *
| 48>
| 49> #Run DFT-D3 single point of the particle with dimer basis set
| 50> $new_job
| 51> %base "18-87_DFT_B"
| 52> ! wB97X-D3 def2-TZVP TIGHTSCF CHELPG PMODEL
| 53>
| 54> %scf
| 55> MaxIter 1000
| 56> end
| 57>
| 58> * xyz 0 1
| 59>   C                    : 1.101496             -2.053978            7.307832
| 60>   O                    : 1.384987             -2.297058            5.969188
| 61>   H                    : 1.151471             -3.185395            5.702275
| 62>   H                    : 1.317104             -1.048099            7.698919
| 63>   H                    : 0.046442             -2.231063            7.406682
| 64>   H                    : 1.610017             -2.809292            7.907819
| 65>   C                      4.929075             -4.238960            7.673245
| 66>   O                      4.045496             -4.046907            8.764426
| 67>   H                      3.556016             -4.885246            8.697866
| 68>   H                      5.805546             -3.575551            7.652563
| 69>   H                      5.310129             -5.266422            7.598654
| 70>   H                      4.357928             -3.978853            6.774474
| 71> *
| 72>
| 73>                          ****END OF INPUT****
 Total Charge           Charge          ....    0
 Multiplicity           Mult            ....    1
 Number of Electrons    NEL             ....   36
Dispersion correction           -0.001489418
FINAL SINGLE POINT ENERGY      -231.463464535580
Dispersion correction           -0.000215820
FINAL SINGLE POINT ENERGY      -115.730764476738

CARTESIAN COORDINATES (ANGSTROEM)
---------------------------------
  C      1.101496   -2.053978    7.307832
  O      1.384987   -2.297058    5.969188
  H      1.151471   -3.185395    5.702275
  H      1.317104   -1.048099    7.698919
  H      0.046442   -2.231063    7.406682
  H      1.610017   -2.809292    7.907819
  C      4.929075   -4.238960    7.673245
  O      4.045496   -4.046907    8.764426
  H      3.556016   -4.885246    8.697866
  H      5.805546   -3.575551    7.652563
  H      5.310129   -5.266422    7.598654
  H      4.357928   -3.978853    6.774474

 Multiplicity           Mult            ....    1
 Number of Electrons    NEL             ....   18
 Basis Dimension        Dim             ....  172

ORBITAL ENERGIES
----------------

  NO   OCC          E(Eh)            E(eV)
   0   2.0000     -19.235282      -523.4186
   1   2.0000     -10.314993      -280.6852
   2   2.0000      -1.140786       -31.0424
   3   2.0000      -0.790184       -21.5020
   4   2.0000      -0.607053       -16.5187
   5   2.0000      -0.544433       -14.8148
   6   2.0000      -0.528721       -14.3872
   7   2.0000      -0.441683       -12.0188
   8   2.0000      -0.373021       -10.1504
   9   0.0000       0.087220         2.3734
  10   0.0000       0.122054         3.3213
  11   0.0000       0.150369         4.0917
  12   0.0000       0.168758         4.5921
  13   0.0000       0.192787         5.2460

MULLIKEN ATOMIC CHARGES
-----------------------
   0 C :    0.005579
   1 O :   -0.000133
   2 H :   -0.000136
   3 H :   -0.000301
   4 H :   -0.000304
   5 H :   -0.012789
   6 C :   -0.189844
   7 O :   -0.453252
   8 H :    0.319114
   9 H :    0.117057
  10 H :    0.106822
  11 H :    0.108185
Sum of atomic charges:   -0.0000000

LOEWDIN ATOMIC CHARGES
----------------------
   0 C :   -0.002451
   1 O :   -0.000180
   2 H :   -0.000157
   3 H :   -0.000063
   4 H :   -0.000018
   5 H :   -0.006965
   6 C :   -0.395989
   7 O :   -0.077790
   8 H :    0.184085
   9 H :    0.106620
  10 H :    0.096072
  11 H :    0.096834

  Mayer bond orders larger than 0.1
B(  6-C ,  7-O ) :   0.9982 B(  6-C ,  9-H ) :   0.9718 B(  6-C , 10-H ) :   0.9782
B(  6-C , 11-H ) :   0.9813 B(  7-O ,  8-H ) :   0.8988

Dispersion correction           -0.000219330
FINAL SINGLE POINT ENERGY      -115.731498169854

DIPOLE MOMENT
-------------
                                X             Y             Z
Electronic contribution:     -1.02206       0.38751       1.55657
Nuclear contribution   :      1.08624      -0.97337      -2.01149
                        -----------------------------------------
Total Dipole Moment    :      0.06419      -0.58586      -0.45491
                        -----------------------------------------
Magnitude (a.u.)       :      0.74451
Magnitude (Debye)      :      1.89240

Rotational constants in cm-1:     4.218587     0.835469     0.803222
Rotational constants in MHz : 126470.046523 25046.716523 24079.982261

                             ****ORCA TERMINATED NORMALLY****
TOTAL RUN TIME: 0 days 0 hours 1 minutes 3 seconds 308 msec
