                         Program Version 4.1.2  - RELEASE  -
|  1> #Run DFT-D3 single point of the dimer
|  2> ! wB97X-D3 def2-TZVP TIGHTSCF CHELPG PMODEL PAL8
|  3>
|  4> %base "6-1_DFT_AB"
|  5>
|  6> %scf
|  7> MaxIter 1000
|  8> end
|  9>
| 10> * xyz 0 1
| 11>   C                      3.221137             7.634066             8.195643
| 12>   O                      3.982834             7.118366             9.205529
| 13>   H                      4.894659             7.152275             8.965242
| 14>   H                      3.626544             8.552249             7.826368
| 15>   H                      3.290289             6.915142             7.335799
| 16>   H                      2.201108             7.700457             8.443460
| 17>   C                      1.759605             3.929659             4.677218
| 18>   O                      0.590745             4.732152             4.814484
| 19>   H                      -0.023490            4.347957             5.425364
| 20>   H                      2.534619             4.152760             5.522013
| 21>   H                      1.522299             2.871857             4.759914
| 22>   H                      2.193522             3.973006             3.687937
| 23> *
| 24>
| 25> #Run DFT-D3 single point of the molecule with dimer basis set
| 26> $new_job
| 27> %base "6-1_DFT_A"
| 28> ! wB97X-D3 def2-TZVP TIGHTSCF CHELPG PMODEL
| 29>
| 30> %scf
| 31> MaxIter 1000
| 32> end
| 33>
| 34> * xyz 0 1
| 35>   C                      3.221137             7.634066             8.195643
| 36>   O                      3.982834             7.118366             9.205529
| 37>   H                      4.894659             7.152275             8.965242
| 38>   H                      3.626544             8.552249             7.826368
| 39>   H                      3.290289             6.915142             7.335799
| 40>   H                      2.201108             7.700457             8.443460
| 41>   C                    : 1.759605             3.929659             4.677218
| 42>   O                    : 0.590745             4.732152             4.814484
| 43>   H                    : -0.023490            4.347957             5.425364
| 44>   H                    : 2.534619             4.152760             5.522013
| 45>   H                    : 1.522299             2.871857             4.759914
| 46>   H                    : 2.193522             3.973006             3.687937
| 47> *
| 48>
| 49> #Run DFT-D3 single point of the particle with dimer basis set
| 50> $new_job
| 51> %base "6-1_DFT_B"
| 52> ! wB97X-D3 def2-TZVP TIGHTSCF CHELPG PMODEL
| 53>
| 54> %scf
| 55> MaxIter 1000
| 56> end
| 57>
| 58> * xyz 0 1
| 59>   C                    : 3.221137             7.634066             8.195643
| 60>   O                    : 3.982834             7.118366             9.205529
| 61>   H                    : 4.894659             7.152275             8.965242
| 62>   H                    : 3.626544             8.552249             7.826368
| 63>   H                    : 3.290289             6.915142             7.335799
| 64>   H                    : 2.201108             7.700457             8.443460
| 65>   C                      1.759605             3.929659             4.677218
| 66>   O                      0.590745             4.732152             4.814484
| 67>   H                      -0.023490            4.347957             5.425364
| 68>   H                      2.534619             4.152760             5.522013
| 69>   H                      1.522299             2.871857             4.759914
| 70>   H                      2.193522             3.973006             3.687937
| 71> *
| 72>
| 73>                          ****END OF INPUT****
 Total Charge           Charge          ....    0
 Multiplicity           Mult            ....    1
 Number of Electrons    NEL             ....   36
Dispersion correction           -0.000763998
FINAL SINGLE POINT ENERGY      -231.462862470032
Dispersion correction           -0.000203949
FINAL SINGLE POINT ENERGY      -115.731287703204

CARTESIAN COORDINATES (ANGSTROEM)
---------------------------------
  C      3.221137    7.634066    8.195643
  O      3.982834    7.118366    9.205529
  H      4.894659    7.152275    8.965242
  H      3.626544    8.552249    7.826368
  H      3.290289    6.915142    7.335799
  H      2.201108    7.700457    8.443460
  C      1.759605    3.929659    4.677218
  O      0.590745    4.732152    4.814484
  H     -0.023490    4.347957    5.425364
  H      2.534619    4.152760    5.522013
  H      1.522299    2.871857    4.759914
  H      2.193522    3.973006    3.687937

 Multiplicity           Mult            ....    1
 Number of Electrons    NEL             ....   18
 Basis Dimension        Dim             ....  172

ORBITAL ENERGIES
----------------

  NO   OCC          E(Eh)            E(eV)
   0   2.0000     -19.229205      -523.2533
   1   2.0000     -10.320651      -280.8392
   2   2.0000      -1.133915       -30.8554
   3   2.0000      -0.796408       -21.6714
   4   2.0000      -0.612738       -16.6735
   5   2.0000      -0.539509       -14.6808
   6   2.0000      -0.522178       -14.2092
   7   2.0000      -0.428365       -11.6564
   8   2.0000      -0.374470       -10.1898
   9   0.0000       0.088288         2.4024
  10   0.0000       0.116943         3.1822
  11   0.0000       0.148681         4.0458
  12   0.0000       0.168997         4.5986
  13   0.0000       0.181953         4.9512

MULLIKEN ATOMIC CHARGES
-----------------------
   0 C :   -0.000398
   1 O :    0.000018
   2 H :    0.000009
   3 H :    0.000006
   4 H :    0.000700
   5 H :   -0.000026
   6 C :   -0.174102
   7 O :   -0.478973
   8 H :    0.316627
   9 H :    0.099206
  10 H :    0.110038
  11 H :    0.126893
Sum of atomic charges:    0.0000000

LOEWDIN ATOMIC CHARGES
----------------------
   0 C :   -0.000108
   1 O :   -0.000003
   2 H :   -0.000000
   3 H :   -0.000001
   4 H :   -0.000176
   5 H :   -0.000014
   6 C :   -0.384017
   7 O :   -0.080424
   8 H :    0.159810
   9 H :    0.106966
  10 H :    0.093701
  11 H :    0.104266

  Mayer bond orders larger than 0.1
B(  6-C ,  7-O ) :   1.0009 B(  6-C ,  9-H ) :   0.9699 B(  6-C , 10-H ) :   0.9807
B(  6-C , 11-H ) :   0.9697 B(  7-O ,  8-H ) :   0.8990

Dispersion correction           -0.000267176
FINAL SINGLE POINT ENERGY      -115.731004286056

DIPOLE MOMENT
-------------
                                X             Y             Z
Electronic contribution:     -1.47683       1.18565       0.00315
Nuclear contribution   :      1.51640      -1.80353       0.30639
                        -----------------------------------------
Total Dipole Moment    :      0.03957      -0.61788       0.30954
                        -----------------------------------------
Magnitude (a.u.)       :      0.69221
Magnitude (Debye)      :      1.75946

Rotational constants in cm-1:     4.286372     0.803185     0.788118
Rotational constants in MHz : 128502.200666 24078.876777 23627.174833

                             ****ORCA TERMINATED NORMALLY****
TOTAL RUN TIME: 0 days 0 hours 1 minutes 0 seconds 455 msec
