                         Program Version 4.1.2  - RELEASE  -
|  1> #Run DFT-D3 single point of the dimer
|  2> ! wB97X-D3 def2-TZVP TIGHTSCF CHELPG PMODEL PAL8
|  3>
|  4> %base "14-76_DFT_AB"
|  5>
|  6> %scf
|  7> MaxIter 1000
|  8> end
|  9>
| 10> * xyz 0 1
| 11>   C                      -7.703937            4.864431             7.544231
| 12>   O                      -8.044865            6.226566             7.754114
| 13>   H                      -8.552644            6.657544             7.051836
| 14>   H                      -8.567473            4.275343             7.272627
| 15>   H                      -6.941389            4.675493             6.753926
| 16>   H                      -7.290078            4.411499             8.488377
| 17>   C                      -8.821175            7.708635             4.827708
| 18>   O                      -9.694254            6.956214             5.624121
| 19>   H                      -9.914970            6.093896             5.191670
| 20>   H                      -9.081705            7.505497             3.747973
| 21>   H                      -8.759450            8.770394             5.021524
| 22>   H                      -7.757851            7.402679             4.889998
| 23> *
| 24>
| 25> #Run DFT-D3 single point of the molecule with dimer basis set
| 26> $new_job
| 27> %base "14-76_DFT_A"
| 28> ! wB97X-D3 def2-TZVP TIGHTSCF CHELPG PMODEL
| 29>
| 30> %scf
| 31> MaxIter 1000
| 32> end
| 33>
| 34> * xyz 0 1
| 35>   C                      -7.703937            4.864431             7.544231
| 36>   O                      -8.044865            6.226566             7.754114
| 37>   H                      -8.552644            6.657544             7.051836
| 38>   H                      -8.567473            4.275343             7.272627
| 39>   H                      -6.941389            4.675493             6.753926
| 40>   H                      -7.290078            4.411499             8.488377
| 41>   C                    : -8.821175            7.708635             4.827708
| 42>   O                    : -9.694254            6.956214             5.624121
| 43>   H                    : -9.914970            6.093896             5.191670
| 44>   H                    : -9.081705            7.505497             3.747973
| 45>   H                    : -8.759450            8.770394             5.021524
| 46>   H                    : -7.757851            7.402679             4.889998
| 47> *
| 48>
| 49> #Run DFT-D3 single point of the particle with dimer basis set
| 50> $new_job
| 51> %base "14-76_DFT_B"
| 52> ! wB97X-D3 def2-TZVP TIGHTSCF CHELPG PMODEL
| 53>
| 54> %scf
| 55> MaxIter 1000
| 56> end
| 57>
| 58> * xyz 0 1
| 59>   C                    : -7.703937            4.864431             7.544231
| 60>   O                    : -8.044865            6.226566             7.754114
| 61>   H                    : -8.552644            6.657544             7.051836
| 62>   H                    : -8.567473            4.275343             7.272627
| 63>   H                    : -6.941389            4.675493             6.753926
| 64>   H                    : -7.290078            4.411499             8.488377
| 65>   C                      -8.821175            7.708635             4.827708
| 66>   O                      -9.694254            6.956214             5.624121
| 67>   H                      -9.914970            6.093896             5.191670
| 68>   H                      -9.081705            7.505497             3.747973
| 69>   H                      -8.759450            8.770394             5.021524
| 70>   H                      -7.757851            7.402679             4.889998
| 71> *
| 72>
| 73>                          ****END OF INPUT****
 Total Charge           Charge          ....    0
 Multiplicity           Mult            ....    1
 Number of Electrons    NEL             ....   36
Dispersion correction           -0.002076887
FINAL SINGLE POINT ENERGY      -231.470976973677
Dispersion correction           -0.000279199
FINAL SINGLE POINT ENERGY      -115.734082757015

CARTESIAN COORDINATES (ANGSTROEM)
---------------------------------
  C     -7.703937    4.864431    7.544231
  O     -8.044865    6.226566    7.754114
  H     -8.552644    6.657544    7.051836
  H     -8.567473    4.275343    7.272627
  H     -6.941389    4.675493    6.753926
  H     -7.290078    4.411499    8.488377
  C     -8.821175    7.708635    4.827708
  O     -9.694254    6.956214    5.624121
  H     -9.914970    6.093896    5.191670
  H     -9.081705    7.505497    3.747973
  H     -8.759450    8.770394    5.021524
  H     -7.757851    7.402679    4.889998

 Multiplicity           Mult            ....    1
 Number of Electrons    NEL             ....   18
 Basis Dimension        Dim             ....  172

ORBITAL ENERGIES
----------------

  NO   OCC          E(Eh)            E(eV)
   0   2.0000     -19.235804      -523.4329
   1   2.0000     -10.316974      -280.7391
   2   2.0000      -1.135447       -30.8971
   3   2.0000      -0.793479       -21.5917
   4   2.0000      -0.612839       -16.6762
   5   2.0000      -0.543040       -14.7769
   6   2.0000      -0.528520       -14.3818
   7   2.0000      -0.428704       -11.6656
   8   2.0000      -0.369546       -10.0558
   9   0.0000       0.087014         2.3678
  10   0.0000       0.125553         3.4165
  11   0.0000       0.144947         3.9442
  12   0.0000       0.188512         5.1297
  13   0.0000       0.189529         5.1573

MULLIKEN ATOMIC CHARGES
-----------------------
   0 C :   -0.007889
   1 O :   -0.001033
   2 H :    0.005719
   3 H :   -0.001004
   4 H :    0.000268
   5 H :   -0.000475
   6 C :   -0.177035
   7 O :   -0.477912
   8 H :    0.327177
   9 H :    0.102230
  10 H :    0.129955
  11 H :    0.099999
Sum of atomic charges:   -0.0000000

LOEWDIN ATOMIC CHARGES
----------------------
   0 C :   -0.005572
   1 O :   -0.007414
   2 H :   -0.049140
   3 H :   -0.001139
   4 H :   -0.000195
   5 H :   -0.000128
   6 C :   -0.398955
   7 O :   -0.032947
   8 H :    0.191782
   9 H :    0.102922
  10 H :    0.105000
  11 H :    0.095784

  Mayer bond orders larger than 0.1
B(  6-C ,  7-O ) :   0.9905 B(  6-C ,  9-H ) :   0.9856 B(  6-C , 10-H ) :   0.9723
B(  6-C , 11-H ) :   0.9720 B(  7-O ,  8-H ) :   0.8849

Dispersion correction           -0.000254043
FINAL SINGLE POINT ENERGY      -115.730466725396

DIPOLE MOMENT
-------------
                                X             Y             Z
Electronic contribution:     -1.24772      -0.77467       1.27724
Nuclear contribution   :      1.44156       0.53376      -1.86317
                        -----------------------------------------
Total Dipole Moment    :      0.19384      -0.24091      -0.58593
                        -----------------------------------------
Magnitude (a.u.)       :      0.66251
Magnitude (Debye)      :      1.68397

Rotational constants in cm-1:     4.337493     0.831303     0.793163
Rotational constants in MHz : 130034.769898 24921.847703 23778.423990

                             ****ORCA TERMINATED NORMALLY****
TOTAL RUN TIME: 0 days 0 hours 0 minutes 58 seconds 904 msec
