                         Program Version 4.1.2  - RELEASE  -
|  1> #Run DFT-D3 single point of the dimer
|  2> ! wB97X-D3 def2-TZVP TIGHTSCF CHELPG PMODEL PAL8
|  3>
|  4> %base "20-176_DFT_AB"
|  5>
|  6> %scf
|  7> MaxIter 1000
|  8> end
|  9>
| 10> * xyz 0 1
| 11>   C                      5.397951             -6.825586            -0.794235
| 12>   O                      4.338888             -7.700226            -0.952280
| 13>   H                      3.633912             -7.443674            -0.352395
| 14>   H                      5.994437             -7.092302            0.040421
| 15>   H                      6.045232             -6.752992            -1.683795
| 16>   H                      4.948599             -5.871207            -0.564371
| 17>   C                      1.310005             -5.374597            1.050134
| 18>   O                      2.401512             -6.320147            0.794165
| 19>   H                      2.409136             -7.072881            1.458004
| 20>   H                      0.288380             -5.856881            0.838766
| 21>   H                      1.226147             -4.946307            2.050724
| 22>   H                      1.364170             -4.525090            0.270397
| 23> *
| 24>
| 25> #Run DFT-D3 single point of the molecule with dimer basis set
| 26> $new_job
| 27> %base "20-176_DFT_A"
| 28> ! wB97X-D3 def2-TZVP TIGHTSCF CHELPG PMODEL
| 29>
| 30> %scf
| 31> MaxIter 1000
| 32> end
| 33>
| 34> * xyz 0 1
| 35>   C                      5.397951             -6.825586            -0.794235
| 36>   O                      4.338888             -7.700226            -0.952280
| 37>   H                      3.633912             -7.443674            -0.352395
| 38>   H                      5.994437             -7.092302            0.040421
| 39>   H                      6.045232             -6.752992            -1.683795
| 40>   H                      4.948599             -5.871207            -0.564371
| 41>   C                    : 1.310005             -5.374597            1.050134
| 42>   O                    : 2.401512             -6.320147            0.794165
| 43>   H                    : 2.409136             -7.072881            1.458004
| 44>   H                    : 0.288380             -5.856881            0.838766
| 45>   H                    : 1.226147             -4.946307            2.050724
| 46>   H                    : 1.364170             -4.525090            0.270397
| 47> *
| 48>
| 49> #Run DFT-D3 single point of the particle with dimer basis set
| 50> $new_job
| 51> %base "20-176_DFT_B"
| 52> ! wB97X-D3 def2-TZVP TIGHTSCF CHELPG PMODEL
| 53>
| 54> %scf
| 55> MaxIter 1000
| 56> end
| 57>
| 58> * xyz 0 1
| 59>   C                    : 5.397951             -6.825586            -0.794235
| 60>   O                    : 4.338888             -7.700226            -0.952280
| 61>   H                    : 3.633912             -7.443674            -0.352395
| 62>   H                    : 5.994437             -7.092302            0.040421
| 63>   H                    : 6.045232             -6.752992            -1.683795
| 64>   H                    : 4.948599             -5.871207            -0.564371
| 65>   C                      1.310005             -5.374597            1.050134
| 66>   O                      2.401512             -6.320147            0.794165
| 67>   H                      2.409136             -7.072881            1.458004
| 68>   H                      0.288380             -5.856881            0.838766
| 69>   H                      1.226147             -4.946307            2.050724
| 70>   H                      1.364170             -4.525090            0.270397
| 71> *
| 72>
| 73>                          ****END OF INPUT****
 Total Charge           Charge          ....    0
 Multiplicity           Mult            ....    1
 Number of Electrons    NEL             ....   36
Dispersion correction           -0.001668409
FINAL SINGLE POINT ENERGY      -231.466292872683
Dispersion correction           -0.000210567
FINAL SINGLE POINT ENERGY      -115.732369031355

CARTESIAN COORDINATES (ANGSTROEM)
---------------------------------
  C      5.397951   -6.825586   -0.794235
  O      4.338888   -7.700226   -0.952280
  H      3.633912   -7.443674   -0.352395
  H      5.994437   -7.092302    0.040421
  H      6.045232   -6.752992   -1.683795
  H      4.948599   -5.871207   -0.564371
  C      1.310005   -5.374597    1.050134
  O      2.401512   -6.320147    0.794165
  H      2.409136   -7.072881    1.458004
  H      0.288380   -5.856881    0.838766
  H      1.226147   -4.946307    2.050724
  H      1.364170   -4.525090    0.270397

 Multiplicity           Mult            ....    1
 Number of Electrons    NEL             ....   18
 Basis Dimension        Dim             ....  172

ORBITAL ENERGIES
----------------

  NO   OCC          E(Eh)            E(eV)
   0   2.0000     -19.238303      -523.5008
   1   2.0000     -10.330896      -281.1180
   2   2.0000      -1.113223       -30.2923
   3   2.0000      -0.789194       -21.4751
   4   2.0000      -0.600816       -16.3490
   5   2.0000      -0.526995       -14.3403
   6   2.0000      -0.513711       -13.9788
   7   2.0000      -0.432734       -11.7753
   8   2.0000      -0.375082       -10.2065
   9   0.0000       0.097164         2.6440
  10   0.0000       0.124813         3.3963
  11   0.0000       0.141236         3.8432
  12   0.0000       0.185790         5.0556
  13   0.0000       0.196860         5.3568

MULLIKEN ATOMIC CHARGES
-----------------------
   0 C :    0.006552
   1 O :    0.001472
   2 H :   -0.015488
   3 H :   -0.000869
   4 H :   -0.000244
   5 H :   -0.006164
   6 C :   -0.181225
   7 O :   -0.470535
   8 H :    0.319132
   9 H :    0.102839
  10 H :    0.116664
  11 H :    0.127865
Sum of atomic charges:   -0.0000000

LOEWDIN ATOMIC CHARGES
----------------------
   0 C :   -0.005533
   1 O :   -0.003624
   2 H :   -0.031926
   3 H :   -0.000185
   4 H :   -0.000054
   5 H :   -0.003759
   6 C :   -0.368884
   7 O :   -0.096321
   8 H :    0.191687
   9 H :    0.103279
  10 H :    0.093965
  11 H :    0.121354

  Mayer bond orders larger than 0.1
B(  6-C ,  7-O ) :   0.9971 B(  6-C ,  9-H ) :   0.9725 B(  6-C , 10-H ) :   0.9598
B(  6-C , 11-H ) :   0.9736 B(  7-O ,  8-H ) :   0.8868

Dispersion correction           -0.000312886
FINAL SINGLE POINT ENERGY      -115.727521321508

DIPOLE MOMENT
-------------
                                X             Y             Z
Electronic contribution:      1.53454      -1.08914      -0.28430
Nuclear contribution   :     -1.99797       1.02479       0.81982
                        -----------------------------------------
Total Dipole Moment    :     -0.46342      -0.06435       0.53552
                        -----------------------------------------
Magnitude (a.u.)       :      0.71111
Magnitude (Debye)      :      1.80751

Rotational constants in cm-1:     4.124726     0.763516     0.734197
Rotational constants in MHz : 123656.178349 22889.623981 22010.674379

                             ****ORCA TERMINATED NORMALLY****
TOTAL RUN TIME: 0 days 0 hours 1 minutes 9 seconds 892 msec
