                         Program Version 4.1.2  - RELEASE  -
|  1> #Run DFT-D3 single point of the dimer
|  2> ! wB97X-D3 def2-TZVP TIGHTSCF CHELPG PMODEL PAL8
|  3>
|  4> %base "21-106_DFT_AB"
|  5>
|  6> %scf
|  7> MaxIter 1000
|  8> end
|  9>
| 10> * xyz 0 1
| 11>   C                      3.968792             8.387656             10.579955
| 12>   O                      3.086890             7.272689             10.231642
| 13>   H                      2.188274             7.650745             10.307865
| 14>   H                      3.545260             8.992403             11.442318
| 15>   H                      4.988270             8.027184             10.820508
| 16>   H                      4.116574             8.997618             9.652648
| 17>   C                      3.235561             4.551749             5.934133
| 18>   O                      2.594535             4.358241             7.218356
| 19>   H                      3.030707             4.934264             7.863506
| 20>   H                      4.267933             4.089265             5.970276
| 21>   H                      2.610780             4.061850             5.130225
| 22>   H                      3.285283             5.611217             5.737462
| 23> *
| 24>
| 25> #Run DFT-D3 single point of the molecule with dimer basis set
| 26> $new_job
| 27> %base "21-106_DFT_A"
| 28> ! wB97X-D3 def2-TZVP TIGHTSCF CHELPG PMODEL
| 29>
| 30> %scf
| 31> MaxIter 1000
| 32> end
| 33>
| 34> * xyz 0 1
| 35>   C                      3.968792             8.387656             10.579955
| 36>   O                      3.086890             7.272689             10.231642
| 37>   H                      2.188274             7.650745             10.307865
| 38>   H                      3.545260             8.992403             11.442318
| 39>   H                      4.988270             8.027184             10.820508
| 40>   H                      4.116574             8.997618             9.652648
| 41>   C                    : 3.235561             4.551749             5.934133
| 42>   O                    : 2.594535             4.358241             7.218356
| 43>   H                    : 3.030707             4.934264             7.863506
| 44>   H                    : 4.267933             4.089265             5.970276
| 45>   H                    : 2.610780             4.061850             5.130225
| 46>   H                    : 3.285283             5.611217             5.737462
| 47> *
| 48>
| 49> #Run DFT-D3 single point of the particle with dimer basis set
| 50> $new_job
| 51> %base "21-106_DFT_B"
| 52> ! wB97X-D3 def2-TZVP TIGHTSCF CHELPG PMODEL
| 53>
| 54> %scf
| 55> MaxIter 1000
| 56> end
| 57>
| 58> * xyz 0 1
| 59>   C                    : 3.968792             8.387656             10.579955
| 60>   O                    : 3.086890             7.272689             10.231642
| 61>   H                    : 2.188274             7.650745             10.307865
| 62>   H                    : 3.545260             8.992403             11.442318
| 63>   H                    : 4.988270             8.027184             10.820508
| 64>   H                    : 4.116574             8.997618             9.652648
| 65>   C                      3.235561             4.551749             5.934133
| 66>   O                      2.594535             4.358241             7.218356
| 67>   H                      3.030707             4.934264             7.863506
| 68>   H                      4.267933             4.089265             5.970276
| 69>   H                      2.610780             4.061850             5.130225
| 70>   H                      3.285283             5.611217             5.737462
| 71> *
| 72>
| 73>                          ****END OF INPUT****
 Total Charge           Charge          ....    0
 Multiplicity           Mult            ....    1
 Number of Electrons    NEL             ....   36
Dispersion correction           -0.000859868
FINAL SINGLE POINT ENERGY      -231.468236323196
Dispersion correction           -0.000261526
FINAL SINGLE POINT ENERGY      -115.731913934756

CARTESIAN COORDINATES (ANGSTROEM)
---------------------------------
  C      3.968792    8.387656   10.579955
  O      3.086890    7.272689   10.231642
  H      2.188274    7.650745   10.307865
  H      3.545260    8.992403   11.442318
  H      4.988270    8.027184   10.820508
  H      4.116574    8.997618    9.652648
  C      3.235561    4.551749    5.934133
  O      2.594535    4.358241    7.218356
  H      3.030707    4.934264    7.863506
  H      4.267933    4.089265    5.970276
  H      2.610780    4.061850    5.130225
  H      3.285283    5.611217    5.737462

 Multiplicity           Mult            ....    1
 Number of Electrons    NEL             ....   18
 Basis Dimension        Dim             ....  172

ORBITAL ENERGIES
----------------

  NO   OCC          E(Eh)            E(eV)
   0   2.0000     -19.227610      -523.2099
   1   2.0000     -10.322188      -280.8810
   2   2.0000      -1.122989       -30.5581
   3   2.0000      -0.789841       -21.4927
   4   2.0000      -0.600244       -16.3335
   5   2.0000      -0.539771       -14.6879
   6   2.0000      -0.520500       -14.1635
   7   2.0000      -0.431804       -11.7500
   8   2.0000      -0.372530       -10.1371
   9   0.0000       0.076219         2.0740
  10   0.0000       0.114563         3.1174
  11   0.0000       0.147920         4.0251
  12   0.0000       0.169617         4.6155
  13   0.0000       0.189675         5.1613

MULLIKEN ATOMIC CHARGES
-----------------------
   0 C :   -0.000068
   1 O :   -0.000114
   2 H :   -0.000065
   3 H :    0.000001
   4 H :    0.000005
   5 H :    0.000003
   6 C :   -0.164278
   7 O :   -0.485952
   8 H :    0.313787
   9 H :    0.104273
  10 H :    0.121955
  11 H :    0.110451
Sum of atomic charges:   -0.0000000

LOEWDIN ATOMIC CHARGES
----------------------
   0 C :   -0.000058
   1 O :   -0.000398
   2 H :   -0.000087
   3 H :   -0.000002
   4 H :   -0.000001
   5 H :   -0.000002
   6 C :   -0.365345
   7 O :   -0.112409
   8 H :    0.168827
   9 H :    0.102148
  10 H :    0.115824
  11 H :    0.091502

  Mayer bond orders larger than 0.1
B(  6-C ,  7-O ) :   0.9883 B(  6-C ,  9-H ) :   0.9735 B(  6-C , 10-H ) :   0.9698
B(  6-C , 11-H ) :   0.9778 B(  7-O ,  8-H ) :   0.8994

Dispersion correction           -0.000248175
FINAL SINGLE POINT ENERGY      -115.733847110969

DIPOLE MOMENT
-------------
                                X             Y             Z
Electronic contribution:     -0.87575      -0.30253       1.47252
Nuclear contribution   :      1.40332       0.76246      -1.60592
                        -----------------------------------------
Total Dipole Moment    :      0.52757       0.45993      -0.13340
                        -----------------------------------------
Magnitude (a.u.)       :      0.71250
Magnitude (Debye)      :      1.81104

Rotational constants in cm-1:     4.077972     0.801430     0.774470
Rotational constants in MHz : 122254.522191 24026.260739 23218.036167

                             ****ORCA TERMINATED NORMALLY****
TOTAL RUN TIME: 0 days 0 hours 0 minutes 53 seconds 486 msec
