                         Program Version 4.1.2  - RELEASE  -
|  1> #Run DFT-D3 single point of the dimer
|  2> ! wB97X-D3 def2-TZVP TIGHTSCF CHELPG PMODEL PAL8
|  3>
|  4> %base "13-103_DFT_AB"
|  5>
|  6> %scf
|  7> MaxIter 1000
|  8> end
|  9>
| 10> * xyz 0 1
| 11>   C                      -8.327295            -6.314122            3.863884
| 12>   O                      -7.013995            -6.096790            4.267801
| 13>   H                      -6.519497            -6.634224            3.582791
| 14>   H                      -8.460313            -6.122950            2.836673
| 15>   H                      -8.712477            -7.355026            4.012781
| 16>   H                      -9.101512            -5.635674            4.311855
| 17>   C                      -9.616730            -3.824577            2.018794
| 18>   O                      -9.593404            -3.533576            0.662581
| 19>   H                      -9.150016            -2.744085            0.427374
| 20>   H                      -8.576193            -3.770551            2.414220
| 21>   H                      -10.273800           -3.144696            2.599141
| 22>   H                      -10.047138           -4.831438            2.146995
| 23> *
| 24>
| 25> #Run DFT-D3 single point of the molecule with dimer basis set
| 26> $new_job
| 27> %base "13-103_DFT_A"
| 28> ! wB97X-D3 def2-TZVP TIGHTSCF CHELPG PMODEL
| 29>
| 30> %scf
| 31> MaxIter 1000
| 32> end
| 33>
| 34> * xyz 0 1
| 35>   C                      -8.327295            -6.314122            3.863884
| 36>   O                      -7.013995            -6.096790            4.267801
| 37>   H                      -6.519497            -6.634224            3.582791
| 38>   H                      -8.460313            -6.122950            2.836673
| 39>   H                      -8.712477            -7.355026            4.012781
| 40>   H                      -9.101512            -5.635674            4.311855
| 41>   C                    : -9.616730            -3.824577            2.018794
| 42>   O                    : -9.593404            -3.533576            0.662581
| 43>   H                    : -9.150016            -2.744085            0.427374
| 44>   H                    : -8.576193            -3.770551            2.414220
| 45>   H                    : -10.273800           -3.144696            2.599141
| 46>   H                    : -10.047138           -4.831438            2.146995
| 47> *
| 48>
| 49> #Run DFT-D3 single point of the particle with dimer basis set
| 50> $new_job
| 51> %base "13-103_DFT_B"
| 52> ! wB97X-D3 def2-TZVP TIGHTSCF CHELPG PMODEL
| 53>
| 54> %scf
| 55> MaxIter 1000
| 56> end
| 57>
| 58> * xyz 0 1
| 59>   C                    : -8.327295            -6.314122            3.863884
| 60>   O                    : -7.013995            -6.096790            4.267801
| 61>   H                    : -6.519497            -6.634224            3.582791
| 62>   H                    : -8.460313            -6.122950            2.836673
| 63>   H                    : -8.712477            -7.355026            4.012781
| 64>   H                    : -9.101512            -5.635674            4.311855
| 65>   C                      -9.616730            -3.824577            2.018794
| 66>   O                      -9.593404            -3.533576            0.662581
| 67>   H                      -9.150016            -2.744085            0.427374
| 68>   H                      -8.576193            -3.770551            2.414220
| 69>   H                      -10.273800           -3.144696            2.599141
| 70>   H                      -10.047138           -4.831438            2.146995
| 71> *
| 72>
| 73>                          ****END OF INPUT****
 Total Charge           Charge          ....    0
 Multiplicity           Mult            ....    1
 Number of Electrons    NEL             ....   36
Dispersion correction           -0.001758725
FINAL SINGLE POINT ENERGY      -231.462426866866
Dispersion correction           -0.000231840
FINAL SINGLE POINT ENERGY      -115.728437192680

CARTESIAN COORDINATES (ANGSTROEM)
---------------------------------
  C     -8.327295   -6.314122    3.863884
  O     -7.013995   -6.096790    4.267801
  H     -6.519497   -6.634224    3.582791
  H     -8.460313   -6.122950    2.836673
  H     -8.712477   -7.355026    4.012781
  H     -9.101512   -5.635674    4.311855
  C     -9.616730   -3.824577    2.018794
  O     -9.593404   -3.533576    0.662581
  H     -9.150016   -2.744085    0.427374
  H     -8.576193   -3.770551    2.414220
  H    -10.273800   -3.144696    2.599141
  H    -10.047138   -4.831438    2.146995

 Multiplicity           Mult            ....    1
 Number of Electrons    NEL             ....   18
 Basis Dimension        Dim             ....  172

ORBITAL ENERGIES
----------------

  NO   OCC          E(Eh)            E(eV)
   0   2.0000     -19.224129      -523.1151
   1   2.0000     -10.316506      -280.7264
   2   2.0000      -1.144210       -31.1355
   3   2.0000      -0.797197       -21.6928
   4   2.0000      -0.616815       -16.7844
   5   2.0000      -0.544780       -14.8242
   6   2.0000      -0.530429       -14.4337
   7   2.0000      -0.422874       -11.5070
   8   2.0000      -0.370825       -10.0907
   9   0.0000       0.087698         2.3864
  10   0.0000       0.120527         3.2797
  11   0.0000       0.153185         4.1684
  12   0.0000       0.171553         4.6682
  13   0.0000       0.186093         5.0638

MULLIKEN ATOMIC CHARGES
-----------------------
   0 C :   -0.013400
   1 O :    0.000628
   2 H :    0.000020
   3 H :    0.004710
   4 H :   -0.000098
   5 H :    0.003516
   6 C :   -0.129970
   7 O :   -0.481585
   8 H :    0.313691
   9 H :    0.095027
  10 H :    0.089384
  11 H :    0.118076
Sum of atomic charges:   -0.0000000

LOEWDIN ATOMIC CHARGES
----------------------
   0 C :   -0.015926
   1 O :   -0.000172
   2 H :   -0.000059
   3 H :   -0.009461
   4 H :   -0.000148
   5 H :   -0.002952
   6 C :   -0.390437
   7 O :   -0.047655
   8 H :    0.151569
   9 H :    0.103214
  10 H :    0.093470
  11 H :    0.118558

  Mayer bond orders larger than 0.1
B(  6-C ,  7-O ) :   0.9958 B(  6-C ,  9-H ) :   0.9840 B(  6-C , 10-H ) :   0.9662
B(  6-C , 11-H ) :   0.9704 B(  7-O ,  8-H ) :   0.8984

Dispersion correction           -0.000244588
FINAL SINGLE POINT ENERGY      -115.734646923250

DIPOLE MOMENT
-------------
                                X             Y             Z
Electronic contribution:     -0.02005       0.28927      -1.76887
Nuclear contribution   :      0.30053       0.11879       2.13166
                        -----------------------------------------
Total Dipole Moment    :      0.28049       0.40805       0.36279
                        -----------------------------------------
Magnitude (a.u.)       :      0.61384
Magnitude (Debye)      :      1.56026

Rotational constants in cm-1:     4.297989     0.849453     0.821998
Rotational constants in MHz : 128850.471707 25465.966570 24642.880544

                             ****ORCA TERMINATED NORMALLY****
TOTAL RUN TIME: 0 days 0 hours 1 minutes 11 seconds 191 msec
