                         Program Version 4.1.2  - RELEASE  -
|  1> #Run DFT-D3 single point of the dimer
|  2> ! wB97X-D3 def2-TZVP TIGHTSCF CHELPG PMODEL PAL8
|  3>
|  4> %base "6-124_DFT_AB"
|  5>
|  6> %scf
|  7> MaxIter 1000
|  8> end
|  9>
| 10> * xyz 0 1
| 11>   C                      -1.936839            -7.101095            -2.876770
| 12>   O                      -3.061484            -6.946725            -2.043370
| 13>   H                      -3.335684            -6.055807            -2.122500
| 14>   H                      -1.004453            -6.991422            -2.356135
| 15>   H                      -1.884352            -8.095574            -3.432958
| 16>   H                      -1.945391            -6.367581            -3.715468
| 17>   C                      -3.913443            -10.367593           -0.619006
| 18>   O                      -3.032838            -11.467707           -0.763594
| 19>   H                      -2.533344            -11.548166           0.061452
| 20>   H                      -4.537743            -10.150779           -1.524708
| 21>   H                      -4.580331            -10.547433           0.262675
| 22>   H                      -3.330481            -9.510521            -0.349726
| 23> *
| 24>
| 25> #Run DFT-D3 single point of the molecule with dimer basis set
| 26> $new_job
| 27> %base "6-124_DFT_A"
| 28> ! wB97X-D3 def2-TZVP TIGHTSCF CHELPG PMODEL
| 29>
| 30> %scf
| 31> MaxIter 1000
| 32> end
| 33>
| 34> * xyz 0 1
| 35>   C                      -1.936839            -7.101095            -2.876770
| 36>   O                      -3.061484            -6.946725            -2.043370
| 37>   H                      -3.335684            -6.055807            -2.122500
| 38>   H                      -1.004453            -6.991422            -2.356135
| 39>   H                      -1.884352            -8.095574            -3.432958
| 40>   H                      -1.945391            -6.367581            -3.715468
| 41>   C                    : -3.913443            -10.367593           -0.619006
| 42>   O                    : -3.032838            -11.467707           -0.763594
| 43>   H                    : -2.533344            -11.548166           0.061452
| 44>   H                    : -4.537743            -10.150779           -1.524708
| 45>   H                    : -4.580331            -10.547433           0.262675
| 46>   H                    : -3.330481            -9.510521            -0.349726
| 47> *
| 48>
| 49> #Run DFT-D3 single point of the particle with dimer basis set
| 50> $new_job
| 51> %base "6-124_DFT_B"
| 52> ! wB97X-D3 def2-TZVP TIGHTSCF CHELPG PMODEL
| 53>
| 54> %scf
| 55> MaxIter 1000
| 56> end
| 57>
| 58> * xyz 0 1
| 59>   C                    : -1.936839            -7.101095            -2.876770
| 60>   O                    : -3.061484            -6.946725            -2.043370
| 61>   H                    : -3.335684            -6.055807            -2.122500
| 62>   H                    : -1.004453            -6.991422            -2.356135
| 63>   H                    : -1.884352            -8.095574            -3.432958
| 64>   H                    : -1.945391            -6.367581            -3.715468
| 65>   C                      -3.913443            -10.367593           -0.619006
| 66>   O                      -3.032838            -11.467707           -0.763594
| 67>   H                      -2.533344            -11.548166           0.061452
| 68>   H                      -4.537743            -10.150779           -1.524708
| 69>   H                      -4.580331            -10.547433           0.262675
| 70>   H                      -3.330481            -9.510521            -0.349726
| 71> *
| 72>
| 73>                          ****END OF INPUT****
 Total Charge           Charge          ....    0
 Multiplicity           Mult            ....    1
 Number of Electrons    NEL             ....   36
Dispersion correction           -0.001271857
FINAL SINGLE POINT ENERGY      -231.467022210152
Dispersion correction           -0.000252825
FINAL SINGLE POINT ENERGY      -115.732467128665

CARTESIAN COORDINATES (ANGSTROEM)
---------------------------------
  C     -1.936839   -7.101095   -2.876770
  O     -3.061484   -6.946725   -2.043370
  H     -3.335684   -6.055807   -2.122500
  H     -1.004453   -6.991422   -2.356135
  H     -1.884352   -8.095574   -3.432958
  H     -1.945391   -6.367581   -3.715468
  C     -3.913443  -10.367593   -0.619006
  O     -3.032838  -11.467707   -0.763594
  H     -2.533344  -11.548166    0.061452
  H     -4.537743  -10.150779   -1.524708
  H     -4.580331  -10.547433    0.262675
  H     -3.330481   -9.510521   -0.349726

 Multiplicity           Mult            ....    1
 Number of Electrons    NEL             ....   18
 Basis Dimension        Dim             ....  172

ORBITAL ENERGIES
----------------

  NO   OCC          E(Eh)            E(eV)
   0   2.0000     -19.229057      -523.2492
   1   2.0000     -10.316574      -280.7282
   2   2.0000      -1.134042       -30.8588
   3   2.0000      -0.791284       -21.5319
   4   2.0000      -0.609350       -16.5813
   5   2.0000      -0.538214       -14.6455
   6   2.0000      -0.530154       -14.4262
   7   2.0000      -0.433763       -11.8033
   8   2.0000      -0.369172       -10.0457
   9   0.0000       0.083453         2.2709
  10   0.0000       0.115230         3.1356
  11   0.0000       0.149934         4.0799
  12   0.0000       0.166927         4.5423
  13   0.0000       0.186156         5.0655

MULLIKEN ATOMIC CHARGES
-----------------------
   0 C :    0.000340
   1 O :   -0.000500
   2 H :   -0.000098
   3 H :   -0.000149
   4 H :    0.000071
   5 H :    0.000062
   6 C :   -0.177761
   7 O :   -0.474304
   8 H :    0.316163
   9 H :    0.126535
  10 H :    0.101098
  11 H :    0.108543
Sum of atomic charges:    0.0000000

LOEWDIN ATOMIC CHARGES
----------------------
   0 C :   -0.000706
   1 O :   -0.001255
   2 H :   -0.000087
   3 H :   -0.000041
   4 H :   -0.000063
   5 H :   -0.000005
   6 C :   -0.387991
   7 O :   -0.086792
   8 H :    0.174261
   9 H :    0.115488
  10 H :    0.097862
  11 H :    0.089329

  Mayer bond orders larger than 0.1
B(  6-C ,  7-O ) :   0.9869 B(  6-C ,  9-H ) :   0.9671 B(  6-C , 10-H ) :   0.9776
B(  6-C , 11-H ) :   0.9808 B(  7-O ,  8-H ) :   0.8965

Dispersion correction           -0.000227806
FINAL SINGLE POINT ENERGY      -115.733036813907

DIPOLE MOMENT
-------------
                                X             Y             Z
Electronic contribution:      1.06713      -1.41817      -0.45294
Nuclear contribution   :     -1.09283       1.81837       1.02862
                        -----------------------------------------
Total Dipole Moment    :     -0.02571       0.40020       0.57569
                        -----------------------------------------
Magnitude (a.u.)       :      0.70159
Magnitude (Debye)      :      1.78331

Rotational constants in cm-1:     4.213316     0.832563     0.794681
Rotational constants in MHz : 126312.039100 24959.599304 23823.929090

                             ****ORCA TERMINATED NORMALLY****
TOTAL RUN TIME: 0 days 0 hours 1 minutes 2 seconds 63 msec
