                         Program Version 4.1.2  - RELEASE  -
|  1> #Run DFT-D3 single point of the dimer
|  2> ! wB97X-D3 def2-TZVP TIGHTSCF CHELPG PMODEL PAL8
|  3>
|  4> %base "7-51_DFT_AB"
|  5>
|  6> %scf
|  7> MaxIter 1000
|  8> end
|  9>
| 10> * xyz 0 1
| 11>   C                      -10.430630           5.965214             -6.659766
| 12>   O                      -11.506915           6.842817             -6.664926
| 13>   H                      -12.269845           6.244401             -6.518812
| 14>   H                      -10.239529           5.594698             -5.660409
| 15>   H                      -10.552653           5.211127             -7.463928
| 16>   H                      -9.466643            6.469908             -6.833632
| 17>   C                      -8.561972            4.980688             -1.128294
| 18>   O                      -8.776555            4.446458             0.175048
| 19>   H                      -9.757550            4.274761             0.155309
| 20>   H                      -9.265407            4.589186             -1.812265
| 21>   H                      -8.549891            6.069679             -1.239806
| 22>   H                      -7.606788            4.543564             -1.492682
| 23> *
| 24>
| 25> #Run DFT-D3 single point of the molecule with dimer basis set
| 26> $new_job
| 27> %base "7-51_DFT_A"
| 28> ! wB97X-D3 def2-TZVP TIGHTSCF CHELPG PMODEL
| 29>
| 30> %scf
| 31> MaxIter 1000
| 32> end
| 33>
| 34> * xyz 0 1
| 35>   C                      -10.430630           5.965214             -6.659766
| 36>   O                      -11.506915           6.842817             -6.664926
| 37>   H                      -12.269845           6.244401             -6.518812
| 38>   H                      -10.239529           5.594698             -5.660409
| 39>   H                      -10.552653           5.211127             -7.463928
| 40>   H                      -9.466643            6.469908             -6.833632
| 41>   C                    : -8.561972            4.980688             -1.128294
| 42>   O                    : -8.776555            4.446458             0.175048
| 43>   H                    : -9.757550            4.274761             0.155309
| 44>   H                    : -9.265407            4.589186             -1.812265
| 45>   H                    : -8.549891            6.069679             -1.239806
| 46>   H                    : -7.606788            4.543564             -1.492682
| 47> *
| 48>
| 49> #Run DFT-D3 single point of the particle with dimer basis set
| 50> $new_job
| 51> %base "7-51_DFT_B"
| 52> ! wB97X-D3 def2-TZVP TIGHTSCF CHELPG PMODEL
| 53>
| 54> %scf
| 55> MaxIter 1000
| 56> end
| 57>
| 58> * xyz 0 1
| 59>   C                    : -10.430630           5.965214             -6.659766
| 60>   O                    : -11.506915           6.842817             -6.664926
| 61>   H                    : -12.269845           6.244401             -6.518812
| 62>   H                    : -10.239529           5.594698             -5.660409
| 63>   H                    : -10.552653           5.211127             -7.463928
| 64>   H                    : -9.466643            6.469908             -6.833632
| 65>   C                      -8.561972            4.980688             -1.128294
| 66>   O                      -8.776555            4.446458             0.175048
| 67>   H                      -9.757550            4.274761             0.155309
| 68>   H                      -9.265407            4.589186             -1.812265
| 69>   H                      -8.549891            6.069679             -1.239806
| 70>   H                      -7.606788            4.543564             -1.492682
| 71> *
| 72>
| 73>                          ****END OF INPUT****
 Total Charge           Charge          ....    0
 Multiplicity           Mult            ....    1
 Number of Electrons    NEL             ....   36
Dispersion correction           -0.000583119
FINAL SINGLE POINT ENERGY      -231.461287727068
Dispersion correction           -0.000219080
FINAL SINGLE POINT ENERGY      -115.731152229162

CARTESIAN COORDINATES (ANGSTROEM)
---------------------------------
  C    -10.430630    5.965214   -6.659766
  O    -11.506915    6.842817   -6.664926
  H    -12.269845    6.244401   -6.518812
  H    -10.239529    5.594698   -5.660409
  H    -10.552653    5.211127   -7.463928
  H     -9.466643    6.469908   -6.833632
  C     -8.561972    4.980688   -1.128294
  O     -8.776555    4.446458    0.175048
  H     -9.757550    4.274761    0.155309
  H     -9.265407    4.589186   -1.812265
  H     -8.549891    6.069679   -1.239806
  H     -7.606788    4.543564   -1.492682

 Multiplicity           Mult            ....    1
 Number of Electrons    NEL             ....   18
 Basis Dimension        Dim             ....  172

ORBITAL ENERGIES
----------------

  NO   OCC          E(Eh)            E(eV)
   0   2.0000     -19.236500      -523.4518
   1   2.0000     -10.311071      -280.5785
   2   2.0000      -1.131483       -30.7892
   3   2.0000      -0.792638       -21.5688
   4   2.0000      -0.608154       -16.5487
   5   2.0000      -0.544685       -14.8216
   6   2.0000      -0.518607       -14.1120
   7   2.0000      -0.437169       -11.8960
   8   2.0000      -0.376962       -10.2577
   9   0.0000       0.082872         2.2551
  10   0.0000       0.108845         2.9618
  11   0.0000       0.143603         3.9076
  12   0.0000       0.164064         4.4644
  13   0.0000       0.181389         4.9358

MULLIKEN ATOMIC CHARGES
-----------------------
   0 C :    0.000057
   1 O :   -0.000000
   2 H :   -0.000001
   3 H :   -0.000137
   4 H :   -0.000001
   5 H :   -0.000004
   6 C :   -0.176550
   7 O :   -0.463117
   8 H :    0.315978
   9 H :    0.109042
  10 H :    0.105261
  11 H :    0.109471
Sum of atomic charges:   -0.0000000

LOEWDIN ATOMIC CHARGES
----------------------
   0 C :   -0.000008
   1 O :   -0.000001
   2 H :   -0.000000
   3 H :   -0.000076
   4 H :   -0.000000
   5 H :   -0.000000
   6 C :   -0.388093
   7 O :   -0.097642
   8 H :    0.192629
   9 H :    0.088142
  10 H :    0.095513
  11 H :    0.109537

  Mayer bond orders larger than 0.1
B(  6-C ,  7-O ) :   1.0144 B(  6-C ,  9-H ) :   0.9867 B(  6-C , 10-H ) :   0.9645
B(  6-C , 11-H ) :   0.9794 B(  7-O ,  8-H ) :   0.9004

Dispersion correction           -0.000243018
FINAL SINGLE POINT ENERGY      -115.730124576811

DIPOLE MOMENT
-------------
                                X             Y             Z
Electronic contribution:     -0.17424      -0.56294       1.79267
Nuclear contribution   :     -0.36322       0.63186      -2.33110
                        -----------------------------------------
Total Dipole Moment    :     -0.53747       0.06893      -0.53844
                        -----------------------------------------
Magnitude (a.u.)       :      0.76389
Magnitude (Debye)      :      1.94166

Rotational constants in cm-1:     4.257322     0.822664     0.796497
Rotational constants in MHz : 127631.287959 24662.856243 23878.377004

                             ****ORCA TERMINATED NORMALLY****
TOTAL RUN TIME: 0 days 0 hours 1 minutes 3 seconds 154 msec
