                         Program Version 4.1.2  - RELEASE  -
|  1> #Run DFT-D3 single point of the dimer
|  2> ! wB97X-D3 def2-TZVP TIGHTSCF CHELPG PMODEL PAL8
|  3>
|  4> %base "18-11_DFT_AB"
|  5>
|  6> %scf
|  7> MaxIter 1000
|  8> end
|  9>
| 10> * xyz 0 1
| 11>   C                      1.789285             9.798423             -2.464702
| 12>   O                      2.889570             10.586637            -2.007297
| 13>   H                      2.798921             10.643839            -1.020595
| 14>   H                      1.306149             10.392855            -3.281718
| 15>   H                      2.071224             8.818361             -2.858965
| 16>   H                      0.975558             9.695420             -1.724452
| 17>   C                      3.597850             6.703226             -5.244786
| 18>   O                      2.615310             6.600177             -6.234061
| 19>   H                      2.499694             5.656015             -6.206154
| 20>   H                      4.143364             7.589967             -5.452045
| 21>   H                      3.049037             6.789531             -4.301434
| 22>   H                      4.181735             5.813878             -5.175378
| 23> *
| 24>
| 25> #Run DFT-D3 single point of the molecule with dimer basis set
| 26> $new_job
| 27> %base "18-11_DFT_A"
| 28> ! wB97X-D3 def2-TZVP TIGHTSCF CHELPG PMODEL
| 29>
| 30> %scf
| 31> MaxIter 1000
| 32> end
| 33>
| 34> * xyz 0 1
| 35>   C                      1.789285             9.798423             -2.464702
| 36>   O                      2.889570             10.586637            -2.007297
| 37>   H                      2.798921             10.643839            -1.020595
| 38>   H                      1.306149             10.392855            -3.281718
| 39>   H                      2.071224             8.818361             -2.858965
| 40>   H                      0.975558             9.695420             -1.724452
| 41>   C                    : 3.597850             6.703226             -5.244786
| 42>   O                    : 2.615310             6.600177             -6.234061
| 43>   H                    : 2.499694             5.656015             -6.206154
| 44>   H                    : 4.143364             7.589967             -5.452045
| 45>   H                    : 3.049037             6.789531             -4.301434
| 46>   H                    : 4.181735             5.813878             -5.175378
| 47> *
| 48>
| 49> #Run DFT-D3 single point of the particle with dimer basis set
| 50> $new_job
| 51> %base "18-11_DFT_B"
| 52> ! wB97X-D3 def2-TZVP TIGHTSCF CHELPG PMODEL
| 53>
| 54> %scf
| 55> MaxIter 1000
| 56> end
| 57>
| 58> * xyz 0 1
| 59>   C                    : 1.789285             9.798423             -2.464702
| 60>   O                    : 2.889570             10.586637            -2.007297
| 61>   H                    : 2.798921             10.643839            -1.020595
| 62>   H                    : 1.306149             10.392855            -3.281718
| 63>   H                    : 2.071224             8.818361             -2.858965
| 64>   H                    : 0.975558             9.695420             -1.724452
| 65>   C                      3.597850             6.703226             -5.244786
| 66>   O                      2.615310             6.600177             -6.234061
| 67>   H                      2.499694             5.656015             -6.206154
| 68>   H                      4.143364             7.589967             -5.452045
| 69>   H                      3.049037             6.789531             -4.301434
| 70>   H                      4.181735             5.813878             -5.175378
| 71> *
| 72>
| 73>                          ****END OF INPUT****
 Total Charge           Charge          ....    0
 Multiplicity           Mult            ....    1
 Number of Electrons    NEL             ....   36
Dispersion correction           -0.001010615
FINAL SINGLE POINT ENERGY      -231.461891574960
Dispersion correction           -0.000263189
FINAL SINGLE POINT ENERGY      -115.732629540533

CARTESIAN COORDINATES (ANGSTROEM)
---------------------------------
  C      1.789285    9.798423   -2.464702
  O      2.889570   10.586637   -2.007297
  H      2.798921   10.643839   -1.020595
  H      1.306149   10.392855   -3.281718
  H      2.071224    8.818361   -2.858965
  H      0.975558    9.695420   -1.724452
  C      3.597850    6.703226   -5.244786
  O      2.615310    6.600177   -6.234061
  H      2.499694    5.656015   -6.206154
  H      4.143364    7.589967   -5.452045
  H      3.049037    6.789531   -4.301434
  H      4.181735    5.813878   -5.175378

 Multiplicity           Mult            ....    1
 Number of Electrons    NEL             ....   18
 Basis Dimension        Dim             ....  172

ORBITAL ENERGIES
----------------

  NO   OCC          E(Eh)            E(eV)
   0   2.0000     -19.226629      -523.1832
   1   2.0000     -10.304314      -280.3946
   2   2.0000      -1.148966       -31.2649
   3   2.0000      -0.792569       -21.5669
   4   2.0000      -0.620447       -16.8832
   5   2.0000      -0.546189       -14.8626
   6   2.0000      -0.524169       -14.2634
   7   2.0000      -0.451085       -12.2747
   8   2.0000      -0.367747       -10.0069
   9   0.0000       0.089112         2.4249
  10   0.0000       0.114059         3.1037
  11   0.0000       0.159067         4.3284
  12   0.0000       0.170758         4.6466
  13   0.0000       0.190615         5.1869

MULLIKEN ATOMIC CHARGES
-----------------------
   0 C :   -0.001682
   1 O :    0.000053
   2 H :    0.000012
   3 H :   -0.000002
   4 H :    0.003144
   5 H :    0.000061
   6 C :   -0.180590
   7 O :   -0.453350
   8 H :    0.307984
   9 H :    0.118361
  10 H :    0.095913
  11 H :    0.110097
Sum of atomic charges:   -0.0000000

LOEWDIN ATOMIC CHARGES
----------------------
   0 C :   -0.000600
   1 O :   -0.000006
   2 H :   -0.000000
   3 H :   -0.000008
   4 H :   -0.002262
   5 H :   -0.000002
   6 C :   -0.390874
   7 O :   -0.063290
   8 H :    0.168322
   9 H :    0.101172
  10 H :    0.097633
  11 H :    0.089914

  Mayer bond orders larger than 0.1
B(  6-C ,  7-O ) :   0.9971 B(  6-C ,  9-H ) :   0.9770 B(  6-C , 10-H ) :   0.9778
B(  6-C , 11-H ) :   0.9841 B(  7-O ,  8-H ) :   0.9104

Dispersion correction           -0.000183756
FINAL SINGLE POINT ENERGY      -115.728668651605

DIPOLE MOMENT
-------------
                                X             Y             Z
Electronic contribution:     -1.10427       0.04757      -1.33899
Nuclear contribution   :      1.40956      -0.59742       1.71860
                        -----------------------------------------
Total Dipole Moment    :      0.30529      -0.54985       0.37961
                        -----------------------------------------
Magnitude (a.u.)       :      0.73460
Magnitude (Debye)      :      1.86721

Rotational constants in cm-1:     4.222809     0.881290     0.840002
Rotational constants in MHz : 126596.641925 26420.395967 25182.611997

                             ****ORCA TERMINATED NORMALLY****
TOTAL RUN TIME: 0 days 0 hours 1 minutes 3 seconds 941 msec
