                         Program Version 4.1.2  - RELEASE  -
|  1> #Run DFT-D3 single point of the dimer
|  2> ! wB97X-D3 def2-TZVP TIGHTSCF CHELPG PMODEL PAL8
|  3>
|  4> %base "21-103_DFT_AB"
|  5>
|  6> %scf
|  7> MaxIter 1000
|  8> end
|  9>
| 10> * xyz 0 1
| 11>   C                      3.968792             8.387656             10.579955
| 12>   O                      3.086890             7.272689             10.231642
| 13>   H                      2.188274             7.650745             10.307865
| 14>   H                      3.545260             8.992403             11.442318
| 15>   H                      4.988270             8.027184             10.820508
| 16>   H                      4.116574             8.997618             9.652648
| 17>   C                      5.849089             5.190941             8.767723
| 18>   O                      4.550791             5.140373             9.206326
| 19>   H                      4.169133             6.010848             9.327686
| 20>   H                      6.534993             5.393492             9.597090
| 21>   H                      6.229892             4.328461             8.286398
| 22>   H                      6.007129             6.055441             8.094881
| 23> *
| 24>
| 25> #Run DFT-D3 single point of the molecule with dimer basis set
| 26> $new_job
| 27> %base "21-103_DFT_A"
| 28> ! wB97X-D3 def2-TZVP TIGHTSCF CHELPG PMODEL
| 29>
| 30> %scf
| 31> MaxIter 1000
| 32> end
| 33>
| 34> * xyz 0 1
| 35>   C                      3.968792             8.387656             10.579955
| 36>   O                      3.086890             7.272689             10.231642
| 37>   H                      2.188274             7.650745             10.307865
| 38>   H                      3.545260             8.992403             11.442318
| 39>   H                      4.988270             8.027184             10.820508
| 40>   H                      4.116574             8.997618             9.652648
| 41>   C                    : 5.849089             5.190941             8.767723
| 42>   O                    : 4.550791             5.140373             9.206326
| 43>   H                    : 4.169133             6.010848             9.327686
| 44>   H                    : 6.534993             5.393492             9.597090
| 45>   H                    : 6.229892             4.328461             8.286398
| 46>   H                    : 6.007129             6.055441             8.094881
| 47> *
| 48>
| 49> #Run DFT-D3 single point of the particle with dimer basis set
| 50> $new_job
| 51> %base "21-103_DFT_B"
| 52> ! wB97X-D3 def2-TZVP TIGHTSCF CHELPG PMODEL
| 53>
| 54> %scf
| 55> MaxIter 1000
| 56> end
| 57>
| 58> * xyz 0 1
| 59>   C                    : 3.968792             8.387656             10.579955
| 60>   O                    : 3.086890             7.272689             10.231642
| 61>   H                    : 2.188274             7.650745             10.307865
| 62>   H                    : 3.545260             8.992403             11.442318
| 63>   H                    : 4.988270             8.027184             10.820508
| 64>   H                    : 4.116574             8.997618             9.652648
| 65>   C                      5.849089             5.190941             8.767723
| 66>   O                      4.550791             5.140373             9.206326
| 67>   H                      4.169133             6.010848             9.327686
| 68>   H                      6.534993             5.393492             9.597090
| 69>   H                      6.229892             4.328461             8.286398
| 70>   H                      6.007129             6.055441             8.094881
| 71> *
| 72>
| 73>                          ****END OF INPUT****
 Total Charge           Charge          ....    0
 Multiplicity           Mult            ....    1
 Number of Electrons    NEL             ....   36
Dispersion correction           -0.001847869
FINAL SINGLE POINT ENERGY      -231.470465696085
Dispersion correction           -0.000261526
FINAL SINGLE POINT ENERGY      -115.732059280097

CARTESIAN COORDINATES (ANGSTROEM)
---------------------------------
  C      3.968792    8.387656   10.579955
  O      3.086890    7.272689   10.231642
  H      2.188274    7.650745   10.307865
  H      3.545260    8.992403   11.442318
  H      4.988270    8.027184   10.820508
  H      4.116574    8.997618    9.652648
  C      5.849089    5.190941    8.767723
  O      4.550791    5.140373    9.206326
  H      4.169133    6.010848    9.327686
  H      6.534993    5.393492    9.597090
  H      6.229892    4.328461    8.286398
  H      6.007129    6.055441    8.094881

 Multiplicity           Mult            ....    1
 Number of Electrons    NEL             ....   18
 Basis Dimension        Dim             ....  172

ORBITAL ENERGIES
----------------

  NO   OCC          E(Eh)            E(eV)
   0   2.0000     -19.229796      -523.2694
   1   2.0000     -10.307986      -280.4945
   2   2.0000      -1.148163       -31.2431
   3   2.0000      -0.799633       -21.7591
   4   2.0000      -0.622804       -16.9474
   5   2.0000      -0.545096       -14.8328
   6   2.0000      -0.538541       -14.6545
   7   2.0000      -0.426955       -11.6180
   8   2.0000      -0.368399       -10.0247
   9   0.0000       0.067985         1.8500
  10   0.0000       0.134538         3.6610
  11   0.0000       0.147188         4.0052
  12   0.0000       0.174274         4.7422
  13   0.0000       0.179420         4.8823

MULLIKEN ATOMIC CHARGES
-----------------------
   0 C :   -0.005205
   1 O :   -0.001677
   2 H :   -0.000105
   3 H :   -0.000173
   4 H :    0.000261
   5 H :    0.000412
   6 C :   -0.156702
   7 O :   -0.466261
   8 H :    0.318205
   9 H :    0.091848
  10 H :    0.124795
  11 H :    0.094601
Sum of atomic charges:   -0.0000000

LOEWDIN ATOMIC CHARGES
----------------------
   0 C :   -0.006897
   1 O :   -0.021125
   2 H :   -0.000751
   3 H :   -0.000139
   4 H :   -0.001073
   5 H :   -0.000217
   6 C :   -0.412852
   7 O :   -0.030282
   8 H :    0.183481
   9 H :    0.093092
  10 H :    0.099474
  11 H :    0.097288

  Mayer bond orders larger than 0.1
B(  6-C ,  7-O ) :   1.0019 B(  6-C ,  9-H ) :   0.9769 B(  6-C , 10-H ) :   0.9714
B(  6-C , 11-H ) :   0.9892 B(  7-O ,  8-H ) :   0.8980

Dispersion correction           -0.000231622
FINAL SINGLE POINT ENERGY      -115.732277456265

DIPOLE MOMENT
-------------
                                X             Y             Z
Electronic contribution:     -1.79899      -0.35994       0.52491
Nuclear contribution   :      2.04999       0.93410      -0.62584
                        -----------------------------------------
Total Dipole Moment    :      0.25101       0.57416      -0.10094
                        -----------------------------------------
Magnitude (a.u.)       :      0.63471
Magnitude (Debye)      :      1.61329

Rotational constants in cm-1:     4.512820     0.863198     0.830015
Rotational constants in MHz : 135290.946175 25878.027597 24883.224914

                             ****ORCA TERMINATED NORMALLY****
TOTAL RUN TIME: 0 days 0 hours 1 minutes 3 seconds 781 msec
