                         Program Version 4.1.2  - RELEASE  -
|  1> #Run DFT-D3 single point of the dimer
|  2> ! wB97X-D3 def2-TZVP TIGHTSCF CHELPG PMODEL PAL8
|  3>
|  4> %base "11-187_DFT_AB"
|  5>
|  6> %scf
|  7> MaxIter 1000
|  8> end
|  9>
| 10> * xyz 0 1
| 11>   C                      1.565606             4.818952             4.063144
| 12>   O                      0.685042             5.590373             4.790445
| 13>   H                      1.050737             6.522268             4.825861
| 14>   H                      1.151553             3.796714             3.883376
| 15>   H                      1.753708             5.189912             3.077792
| 16>   H                      2.481122             4.505478             4.613110
| 17>   C                      -0.654023            6.778145             8.172964
| 18>   O                      -0.235769            5.489788             7.996272
| 19>   H                      -0.225017            5.269445             7.060791
| 20>   H                      -1.732332            6.890273             7.783417
| 21>   H                      -0.546053            6.975857             9.236422
| 22>   H                      0.002497             7.437889             7.566165
| 23> *
| 24>
| 25> #Run DFT-D3 single point of the molecule with dimer basis set
| 26> $new_job
| 27> %base "11-187_DFT_A"
| 28> ! wB97X-D3 def2-TZVP TIGHTSCF CHELPG PMODEL
| 29>
| 30> %scf
| 31> MaxIter 1000
| 32> end
| 33>
| 34> * xyz 0 1
| 35>   C                      1.565606             4.818952             4.063144
| 36>   O                      0.685042             5.590373             4.790445
| 37>   H                      1.050737             6.522268             4.825861
| 38>   H                      1.151553             3.796714             3.883376
| 39>   H                      1.753708             5.189912             3.077792
| 40>   H                      2.481122             4.505478             4.613110
| 41>   C                    : -0.654023            6.778145             8.172964
| 42>   O                    : -0.235769            5.489788             7.996272
| 43>   H                    : -0.225017            5.269445             7.060791
| 44>   H                    : -1.732332            6.890273             7.783417
| 45>   H                    : -0.546053            6.975857             9.236422
| 46>   H                    : 0.002497             7.437889             7.566165
| 47> *
| 48>
| 49> #Run DFT-D3 single point of the particle with dimer basis set
| 50> $new_job
| 51> %base "11-187_DFT_B"
| 52> ! wB97X-D3 def2-TZVP TIGHTSCF CHELPG PMODEL
| 53>
| 54> %scf
| 55> MaxIter 1000
| 56> end
| 57>
| 58> * xyz 0 1
| 59>   C                    : 1.565606             4.818952             4.063144
| 60>   O                    : 0.685042             5.590373             4.790445
| 61>   H                    : 1.050737             6.522268             4.825861
| 62>   H                    : 1.151553             3.796714             3.883376
| 63>   H                    : 1.753708             5.189912             3.077792
| 64>   H                    : 2.481122             4.505478             4.613110
| 65>   C                      -0.654023            6.778145             8.172964
| 66>   O                      -0.235769            5.489788             7.996272
| 67>   H                      -0.225017            5.269445             7.060791
| 68>   H                      -1.732332            6.890273             7.783417
| 69>   H                      -0.546053            6.975857             9.236422
| 70>   H                      0.002497             7.437889             7.566165
| 71> *
| 72>
| 73>                          ****END OF INPUT****
 Total Charge           Charge          ....    0
 Multiplicity           Mult            ....    1
 Number of Electrons    NEL             ....   36
Dispersion correction           -0.001506554
FINAL SINGLE POINT ENERGY      -231.468723451351
Dispersion correction           -0.000248948
FINAL SINGLE POINT ENERGY      -115.730734664817

CARTESIAN COORDINATES (ANGSTROEM)
---------------------------------
  C      1.565606    4.818952    4.063144
  O      0.685042    5.590373    4.790445
  H      1.050737    6.522268    4.825861
  H      1.151553    3.796714    3.883376
  H      1.753708    5.189912    3.077792
  H      2.481122    4.505478    4.613110
  C     -0.654023    6.778145    8.172964
  O     -0.235769    5.489788    7.996272
  H     -0.225017    5.269445    7.060791
  H     -1.732332    6.890273    7.783417
  H     -0.546053    6.975857    9.236422
  H      0.002497    7.437889    7.566165

 Multiplicity           Mult            ....    1
 Number of Electrons    NEL             ....   18
 Basis Dimension        Dim             ....  172

ORBITAL ENERGIES
----------------

  NO   OCC          E(Eh)            E(eV)
   0   2.0000     -19.226819      -523.1883
   1   2.0000     -10.316164      -280.7171
   2   2.0000      -1.150601       -31.3094
   3   2.0000      -0.788421       -21.4540
   4   2.0000      -0.616647       -16.7798
   5   2.0000      -0.542707       -14.7678
   6   2.0000      -0.535226       -14.5642
   7   2.0000      -0.429440       -11.6857
   8   2.0000      -0.365955        -9.9581
   9   0.0000       0.070771         1.9258
  10   0.0000       0.121867         3.3162
  11   0.0000       0.154182         4.1955
  12   0.0000       0.166255         4.5240
  13   0.0000       0.195367         5.3162

MULLIKEN ATOMIC CHARGES
-----------------------
   0 C :   -0.001100
   1 O :   -0.001359
   2 H :   -0.000136
   3 H :    0.000081
   4 H :   -0.000002
   5 H :   -0.000006
   6 C :   -0.138880
   7 O :   -0.467381
   8 H :    0.313943
   9 H :    0.086855
  10 H :    0.119826
  11 H :    0.088159
Sum of atomic charges:    0.0000000

LOEWDIN ATOMIC CHARGES
----------------------
   0 C :   -0.000934
   1 O :   -0.005238
   2 H :   -0.000784
   3 H :   -0.000029
   4 H :   -0.000028
   5 H :   -0.000063
   6 C :   -0.422149
   7 O :   -0.043454
   8 H :    0.170820
   9 H :    0.100119
  10 H :    0.108466
  11 H :    0.093275

  Mayer bond orders larger than 0.1
B(  6-C ,  7-O ) :   0.9963 B(  6-C ,  9-H ) :   0.9768 B(  6-C , 10-H ) :   0.9717
B(  6-C , 11-H ) :   0.9793 B(  7-O ,  8-H ) :   0.9014

Dispersion correction           -0.000213942
FINAL SINGLE POINT ENERGY      -115.732234640272

DIPOLE MOMENT
-------------
                                X             Y             Z
Electronic contribution:      0.56842      -1.64478       0.00984
Nuclear contribution   :     -0.68620       1.96266      -0.52682
                        -----------------------------------------
Total Dipole Moment    :     -0.11778       0.31788      -0.51698
                        -----------------------------------------
Magnitude (a.u.)       :      0.61821
Magnitude (Debye)      :      1.57138

Rotational constants in cm-1:     4.041745     0.887568     0.852442
Rotational constants in MHz : 121168.459730 26608.618510 25555.561183

                             ****ORCA TERMINATED NORMALLY****
TOTAL RUN TIME: 0 days 0 hours 1 minutes 13 seconds 83 msec
