                         Program Version 4.1.2  - RELEASE  -
|  1> #Run DFT-D3 single point of the dimer
|  2> ! wB97X-D3 def2-TZVP TIGHTSCF CHELPG PMODEL PAL8
|  3>
|  4> %base "5-176_DFT_AB"
|  5>
|  6> %scf
|  7> MaxIter 1000
|  8> end
|  9>
| 10> * xyz 0 1
| 11>   C                      5.933043             0.052721             -9.709095
| 12>   O                      5.528336             0.447051             -10.968198
| 13>   H                      5.157719             -0.297805            -11.447300
| 14>   H                      6.258533             -0.932075            -9.626614
| 15>   H                      6.793636             0.701506             -9.427070
| 16>   H                      5.139158             0.209402             -9.025313
| 17>   C                      6.677897             3.680953             -10.009311
| 18>   O                      5.601949             3.338755             -9.115723
| 19>   H                      5.015415             2.754194             -9.571947
| 20>   H                      7.225566             2.797239             -10.323432
| 21>   H                      6.255010             4.209416             -10.893649
| 22>   H                      7.307395             4.413736             -9.506670
| 23> *
| 24>
| 25> #Run DFT-D3 single point of the molecule with dimer basis set
| 26> $new_job
| 27> %base "5-176_DFT_A"
| 28> ! wB97X-D3 def2-TZVP TIGHTSCF CHELPG PMODEL
| 29>
| 30> %scf
| 31> MaxIter 1000
| 32> end
| 33>
| 34> * xyz 0 1
| 35>   C                      5.933043             0.052721             -9.709095
| 36>   O                      5.528336             0.447051             -10.968198
| 37>   H                      5.157719             -0.297805            -11.447300
| 38>   H                      6.258533             -0.932075            -9.626614
| 39>   H                      6.793636             0.701506             -9.427070
| 40>   H                      5.139158             0.209402             -9.025313
| 41>   C                    : 6.677897             3.680953             -10.009311
| 42>   O                    : 5.601949             3.338755             -9.115723
| 43>   H                    : 5.015415             2.754194             -9.571947
| 44>   H                    : 7.225566             2.797239             -10.323432
| 45>   H                    : 6.255010             4.209416             -10.893649
| 46>   H                    : 7.307395             4.413736             -9.506670
| 47> *
| 48>
| 49> #Run DFT-D3 single point of the particle with dimer basis set
| 50> $new_job
| 51> %base "5-176_DFT_B"
| 52> ! wB97X-D3 def2-TZVP TIGHTSCF CHELPG PMODEL
| 53>
| 54> %scf
| 55> MaxIter 1000
| 56> end
| 57>
| 58> * xyz 0 1
| 59>   C                    : 5.933043             0.052721             -9.709095
| 60>   O                    : 5.528336             0.447051             -10.968198
| 61>   H                    : 5.157719             -0.297805            -11.447300
| 62>   H                    : 6.258533             -0.932075            -9.626614
| 63>   H                    : 6.793636             0.701506             -9.427070
| 64>   H                    : 5.139158             0.209402             -9.025313
| 65>   C                      6.677897             3.680953             -10.009311
| 66>   O                      5.601949             3.338755             -9.115723
| 67>   H                      5.015415             2.754194             -9.571947
| 68>   H                      7.225566             2.797239             -10.323432
| 69>   H                      6.255010             4.209416             -10.893649
| 70>   H                      7.307395             4.413736             -9.506670
| 71> *
| 72>
| 73>                          ****END OF INPUT****
 Total Charge           Charge          ....    0
 Multiplicity           Mult            ....    1
 Number of Electrons    NEL             ....   36
Dispersion correction           -0.002258658
FINAL SINGLE POINT ENERGY      -231.473556145517
Dispersion correction           -0.000223239
FINAL SINGLE POINT ENERGY      -115.732552090070

CARTESIAN COORDINATES (ANGSTROEM)
---------------------------------
  C      5.933043    0.052721   -9.709095
  O      5.528336    0.447051  -10.968198
  H      5.157719   -0.297805  -11.447300
  H      6.258533   -0.932075   -9.626614
  H      6.793636    0.701506   -9.427070
  H      5.139158    0.209402   -9.025313
  C      6.677897    3.680953  -10.009311
  O      5.601949    3.338755   -9.115723
  H      5.015415    2.754194   -9.571947
  H      7.225566    2.797239  -10.323432
  H      6.255010    4.209416  -10.893649
  H      7.307395    4.413736   -9.506670

 Multiplicity           Mult            ....    1
 Number of Electrons    NEL             ....   18
 Basis Dimension        Dim             ....  172

ORBITAL ENERGIES
----------------

  NO   OCC          E(Eh)            E(eV)
   0   2.0000     -19.228043      -523.2216
   1   2.0000     -10.316669      -280.7308
   2   2.0000      -1.131189       -30.7812
   3   2.0000      -0.796867       -21.6838
   4   2.0000      -0.606297       -16.4982
   5   2.0000      -0.543374       -14.7860
   6   2.0000      -0.524018       -14.2593
   7   2.0000      -0.435997       -11.8641
   8   2.0000      -0.374796       -10.1987
   9   0.0000       0.077485         2.1085
  10   0.0000       0.137185         3.7330
  11   0.0000       0.150743         4.1019
  12   0.0000       0.162543         4.4230
  13   0.0000       0.191881         5.2213

MULLIKEN ATOMIC CHARGES
-----------------------
   0 C :   -0.012919
   1 O :    0.000579
   2 H :   -0.000012
   3 H :   -0.001003
   4 H :    0.002793
   5 H :    0.000148
   6 C :   -0.172381
   7 O :   -0.469320
   8 H :    0.310696
   9 H :    0.107589
  10 H :    0.106975
  11 H :    0.126856
Sum of atomic charges:    0.0000000

LOEWDIN ATOMIC CHARGES
----------------------
   0 C :   -0.012196
   1 O :   -0.002123
   2 H :   -0.000077
   3 H :   -0.000173
   4 H :   -0.004564
   5 H :   -0.002043
   6 C :   -0.359455
   7 O :   -0.079055
   8 H :    0.155493
   9 H :    0.095096
  10 H :    0.100140
  11 H :    0.108956

  Mayer bond orders larger than 0.1
B(  6-C ,  7-O ) :   0.9958 B(  6-C ,  9-H ) :   0.9693 B(  6-C , 10-H ) :   0.9842
B(  6-C , 11-H ) :   0.9742 B(  7-O ,  8-H ) :   0.9052

Dispersion correction           -0.000240183
FINAL SINGLE POINT ENERGY      -115.736695182180

DIPOLE MOMENT
-------------
                                X             Y             Z
Electronic contribution:     -1.18910      -0.39496       1.22979
Nuclear contribution   :      1.26371       0.18849      -1.87961
                        -----------------------------------------
Total Dipole Moment    :      0.07461      -0.20646      -0.64982
                        -----------------------------------------
Magnitude (a.u.)       :      0.68590
Magnitude (Debye)      :      1.74343

Rotational constants in cm-1:     4.237345     0.811459     0.785376
Rotational constants in MHz : 127032.420454 24326.936084 23544.965546

                             ****ORCA TERMINATED NORMALLY****
TOTAL RUN TIME: 0 days 0 hours 0 minutes 56 seconds 395 msec
