                         Program Version 4.1.2  - RELEASE  -
|  1> #Run DFT-D3 single point of the dimer
|  2> ! wB97X-D3 def2-TZVP TIGHTSCF CHELPG PMODEL PAL8
|  3>
|  4> %base "15-22_DFT_AB"
|  5>
|  6> %scf
|  7> MaxIter 1000
|  8> end
|  9>
| 10> * xyz 0 1
| 11>   C                      4.420336             -3.631376            1.742753
| 12>   O                      3.162538             -4.207617            1.389367
| 13>   H                      2.908502             -4.657569            2.203867
| 14>   H                      4.810058             -2.966194            0.971924
| 15>   H                      4.419981             -3.156620            2.638260
| 16>   H                      5.257324             -4.385752            1.882703
| 17>   C                      -0.016333            -2.488242            -0.118915
| 18>   O                      1.397039             -2.664913            -0.010818
| 19>   H                      1.520192             -3.372147            0.554595
| 20>   H                      -0.521164            -3.413662            -0.468075
| 21>   H                      -0.463068            -2.346561            0.852921
| 22>   H                      -0.441045            -1.658200            -0.760794
| 23> *
| 24>
| 25> #Run DFT-D3 single point of the molecule with dimer basis set
| 26> $new_job
| 27> %base "15-22_DFT_A"
| 28> ! wB97X-D3 def2-TZVP TIGHTSCF CHELPG PMODEL
| 29>
| 30> %scf
| 31> MaxIter 1000
| 32> end
| 33>
| 34> * xyz 0 1
| 35>   C                      4.420336             -3.631376            1.742753
| 36>   O                      3.162538             -4.207617            1.389367
| 37>   H                      2.908502             -4.657569            2.203867
| 38>   H                      4.810058             -2.966194            0.971924
| 39>   H                      4.419981             -3.156620            2.638260
| 40>   H                      5.257324             -4.385752            1.882703
| 41>   C                    : -0.016333            -2.488242            -0.118915
| 42>   O                    : 1.397039             -2.664913            -0.010818
| 43>   H                    : 1.520192             -3.372147            0.554595
| 44>   H                    : -0.521164            -3.413662            -0.468075
| 45>   H                    : -0.463068            -2.346561            0.852921
| 46>   H                    : -0.441045            -1.658200            -0.760794
| 47> *
| 48>
| 49> #Run DFT-D3 single point of the particle with dimer basis set
| 50> $new_job
| 51> %base "15-22_DFT_B"
| 52> ! wB97X-D3 def2-TZVP TIGHTSCF CHELPG PMODEL
| 53>
| 54> %scf
| 55> MaxIter 1000
| 56> end
| 57>
| 58> * xyz 0 1
| 59>   C                    : 4.420336             -3.631376            1.742753
| 60>   O                    : 3.162538             -4.207617            1.389367
| 61>   H                    : 2.908502             -4.657569            2.203867
| 62>   H                    : 4.810058             -2.966194            0.971924
| 63>   H                    : 4.419981             -3.156620            2.638260
| 64>   H                    : 5.257324             -4.385752            1.882703
| 65>   C                      -0.016333            -2.488242            -0.118915
| 66>   O                      1.397039             -2.664913            -0.010818
| 67>   H                      1.520192             -3.372147            0.554595
| 68>   H                      -0.521164            -3.413662            -0.468075
| 69>   H                      -0.463068            -2.346561            0.852921
| 70>   H                      -0.441045            -1.658200            -0.760794
| 71> *
| 72>
| 73>                          ****END OF INPUT****
 Total Charge           Charge          ....    0
 Multiplicity           Mult            ....    1
 Number of Electrons    NEL             ....   36
Dispersion correction           -0.001460552
FINAL SINGLE POINT ENERGY      -231.459716569934
Dispersion correction           -0.000239924
FINAL SINGLE POINT ENERGY      -115.728704627885

CARTESIAN COORDINATES (ANGSTROEM)
---------------------------------
  C      4.420336   -3.631376    1.742753
  O      3.162538   -4.207617    1.389367
  H      2.908502   -4.657569    2.203867
  H      4.810058   -2.966194    0.971924
  H      4.419981   -3.156620    2.638260
  H      5.257324   -4.385752    1.882703
  C     -0.016333   -2.488242   -0.118915
  O      1.397039   -2.664913   -0.010818
  H      1.520192   -3.372147    0.554595
  H     -0.521164   -3.413662   -0.468075
  H     -0.463068   -2.346561    0.852921
  H     -0.441045   -1.658200   -0.760794

 Multiplicity           Mult            ....    1
 Number of Electrons    NEL             ....   18
 Basis Dimension        Dim             ....  172

ORBITAL ENERGIES
----------------

  NO   OCC          E(Eh)            E(eV)
   0   2.0000     -19.230466      -523.2876
   1   2.0000     -10.320309      -280.8299
   2   2.0000      -1.145351       -31.1666
   3   2.0000      -0.798979       -21.7413
   4   2.0000      -0.617876       -16.8133
   5   2.0000      -0.533984       -14.5304
   6   2.0000      -0.530566       -14.4374
   7   2.0000      -0.437672       -11.9097
   8   2.0000      -0.374969       -10.2034
   9   0.0000       0.079708         2.1690
  10   0.0000       0.125490         3.4147
  11   0.0000       0.148927         4.0525
  12   0.0000       0.177417         4.8278
  13   0.0000       0.200429         5.4540

MULLIKEN ATOMIC CHARGES
-----------------------
   0 C :   -0.001504
   1 O :   -0.001230
   2 H :   -0.000283
   3 H :   -0.000449
   4 H :    0.000127
   5 H :   -0.000056
   6 C :   -0.192842
   7 O :   -0.451368
   8 H :    0.305254
   9 H :    0.103593
  10 H :    0.108498
  11 H :    0.130260
Sum of atomic charges:   -0.0000000

LOEWDIN ATOMIC CHARGES
----------------------
   0 C :   -0.003274
   1 O :   -0.016246
   2 H :   -0.001293
   3 H :   -0.000440
   4 H :   -0.000078
   5 H :   -0.000056
   6 C :   -0.382218
   7 O :   -0.049913
   8 H :    0.146746
   9 H :    0.097121
  10 H :    0.091313
  11 H :    0.118338

  Mayer bond orders larger than 0.1
B(  6-C ,  7-O ) :   0.9891 B(  6-C ,  9-H ) :   0.9802 B(  6-C , 10-H ) :   0.9790
B(  6-C , 11-H ) :   0.9688 B(  7-O ,  8-H ) :   0.9109

Dispersion correction           -0.000250070
FINAL SINGLE POINT ENERGY      -115.727760983573

DIPOLE MOMENT
-------------
                                X             Y             Z
Electronic contribution:      1.99400      -0.02319      -0.00331
Nuclear contribution   :     -2.50653      -0.35681       0.33456
                        -----------------------------------------
Total Dipole Moment    :     -0.51253      -0.38000       0.33125
                        -----------------------------------------
Magnitude (a.u.)       :      0.71890
Magnitude (Debye)      :      1.82729

Rotational constants in cm-1:     4.483386     0.807080     0.775436
Rotational constants in MHz : 134408.540148 24195.644332 23246.977461

                             ****ORCA TERMINATED NORMALLY****
TOTAL RUN TIME: 0 days 0 hours 1 minutes 4 seconds 193 msec
