                         Program Version 4.1.2  - RELEASE  -
|  1> #Run DFT-D3 single point of the dimer
|  2> ! wB97X-D3 def2-TZVP TIGHTSCF CHELPG PMODEL PAL8
|  3>
|  4> %base "11-82_DFT_AB"
|  5>
|  6> %scf
|  7> MaxIter 1000
|  8> end
|  9>
| 10> * xyz 0 1
| 11>   C                      8.208089             3.975349             -1.861267
| 12>   O                      7.813825             2.619600             -2.292651
| 13>   H                      7.000944             2.319256             -1.900115
| 14>   H                      8.304451             4.108650             -0.728916
| 15>   H                      9.262322             4.143959             -2.354098
| 16>   H                      7.514508             4.812777             -2.164203
| 17>   C                      6.148318             4.366646             1.432052
| 18>   O                      4.770829             4.087702             1.337902
| 19>   H                      4.430615             3.687898             0.504427
| 20>   H                      6.572475             4.720490             0.510176
| 21>   H                      6.351289             5.166952             2.177800
| 22>   H                      6.768153             3.547680             1.813746
| 23> *
| 24>
| 25> #Run DFT-D3 single point of the molecule with dimer basis set
| 26> $new_job
| 27> %base "11-82_DFT_A"
| 28> ! wB97X-D3 def2-TZVP TIGHTSCF CHELPG PMODEL
| 29>
| 30> %scf
| 31> MaxIter 1000
| 32> end
| 33>
| 34> * xyz 0 1
| 35>   C                      8.208089             3.975349             -1.861267
| 36>   O                      7.813825             2.619600             -2.292651
| 37>   H                      7.000944             2.319256             -1.900115
| 38>   H                      8.304451             4.108650             -0.728916
| 39>   H                      9.262322             4.143959             -2.354098
| 40>   H                      7.514508             4.812777             -2.164203
| 41>   C                    : 6.148318             4.366646             1.432052
| 42>   O                    : 4.770829             4.087702             1.337902
| 43>   H                    : 4.430615             3.687898             0.504427
| 44>   H                    : 6.572475             4.720490             0.510176
| 45>   H                    : 6.351289             5.166952             2.177800
| 46>   H                    : 6.768153             3.547680             1.813746
| 47> *
| 48>
| 49> #Run DFT-D3 single point of the particle with dimer basis set
| 50> $new_job
| 51> %base "11-82_DFT_B"
| 52> ! wB97X-D3 def2-TZVP TIGHTSCF CHELPG PMODEL
| 53>
| 54> %scf
| 55> MaxIter 1000
| 56> end
| 57>
| 58> * xyz 0 1
| 59>   C                    : 8.208089             3.975349             -1.861267
| 60>   O                    : 7.813825             2.619600             -2.292651
| 61>   H                    : 7.000944             2.319256             -1.900115
| 62>   H                    : 8.304451             4.108650             -0.728916
| 63>   H                    : 9.262322             4.143959             -2.354098
| 64>   H                    : 7.514508             4.812777             -2.164203
| 65>   C                      6.148318             4.366646             1.432052
| 66>   O                      4.770829             4.087702             1.337902
| 67>   H                      4.430615             3.687898             0.504427
| 68>   H                      6.572475             4.720490             0.510176
| 69>   H                      6.351289             5.166952             2.177800
| 70>   H                      6.768153             3.547680             1.813746
| 71> *
| 72>
| 73>                          ****END OF INPUT****
 Total Charge           Charge          ....    0
 Multiplicity           Mult            ....    1
 Number of Electrons    NEL             ....   36
Dispersion correction           -0.001694734
FINAL SINGLE POINT ENERGY      -231.457673682859
Dispersion correction           -0.000325897
FINAL SINGLE POINT ENERGY      -115.726445735057

CARTESIAN COORDINATES (ANGSTROEM)
---------------------------------
  C      8.208089    3.975349   -1.861267
  O      7.813825    2.619600   -2.292651
  H      7.000944    2.319256   -1.900115
  H      8.304451    4.108650   -0.728916
  H      9.262322    4.143959   -2.354098
  H      7.514508    4.812777   -2.164203
  C      6.148318    4.366646    1.432052
  O      4.770829    4.087702    1.337902
  H      4.430615    3.687898    0.504427
  H      6.572475    4.720490    0.510176
  H      6.351289    5.166952    2.177800
  H      6.768153    3.547680    1.813746

 Multiplicity           Mult            ....    1
 Number of Electrons    NEL             ....   18
 Basis Dimension        Dim             ....  172

ORBITAL ENERGIES
----------------

  NO   OCC          E(Eh)            E(eV)
   0   2.0000     -19.230268      -523.2822
   1   2.0000     -10.313609      -280.6476
   2   2.0000      -1.127027       -30.6680
   3   2.0000      -0.798867       -21.7383
   4   2.0000      -0.613933       -16.7060
   5   2.0000      -0.540446       -14.7063
   6   2.0000      -0.524812       -14.2809
   7   2.0000      -0.419403       -11.4125
   8   2.0000      -0.372268       -10.1299
   9   0.0000       0.076863         2.0916
  10   0.0000       0.118222         3.2170
  11   0.0000       0.151275         4.1164
  12   0.0000       0.160324         4.3626
  13   0.0000       0.187566         5.1039

MULLIKEN ATOMIC CHARGES
-----------------------
   0 C :    0.004098
   1 O :   -0.000098
   2 H :    0.000018
   3 H :   -0.005710
   4 H :   -0.000065
   5 H :   -0.000579
   6 C :   -0.137740
   7 O :   -0.501394
   8 H :    0.326011
   9 H :    0.101082
  10 H :    0.114145
  11 H :    0.100230
Sum of atomic charges:    0.0000000

LOEWDIN ATOMIC CHARGES
----------------------
   0 C :   -0.005689
   1 O :   -0.000013
   2 H :   -0.000135
   3 H :   -0.006709
   4 H :   -0.000023
   5 H :   -0.000812
   6 C :   -0.387061
   7 O :   -0.086206
   8 H :    0.182912
   9 H :    0.095797
  10 H :    0.112075
  11 H :    0.095864

  Mayer bond orders larger than 0.1
B(  6-C ,  7-O ) :   1.0011 B(  6-C ,  9-H ) :   0.9822 B(  6-C , 10-H ) :   0.9697
B(  6-C , 11-H ) :   0.9746 B(  7-O ,  8-H ) :   0.8834

Dispersion correction           -0.000278598
FINAL SINGLE POINT ENERGY      -115.731512992167

DIPOLE MOMENT
-------------
                                X             Y             Z
Electronic contribution:     -1.84342      -0.37031      -0.10353
Nuclear contribution   :      2.18506       0.23901      -0.41612
                        -----------------------------------------
Total Dipole Moment    :      0.34165      -0.13130      -0.51965
                        -----------------------------------------
Magnitude (a.u.)       :      0.63561
Magnitude (Debye)      :      1.61559

Rotational constants in cm-1:     4.537746     0.810980     0.785816
Rotational constants in MHz : 136038.200452 24312.569709 23558.178583

                             ****ORCA TERMINATED NORMALLY****
TOTAL RUN TIME: 0 days 0 hours 1 minutes 11 seconds 581 msec
