                         Program Version 4.1.2  - RELEASE  -
|  1> #Run DFT-D3 single point of the dimer
|  2> ! wB97X-D3 def2-TZVP TIGHTSCF CHELPG PMODEL PAL8
|  3>
|  4> %base "19-143_DFT_AB"
|  5>
|  6> %scf
|  7> MaxIter 1000
|  8> end
|  9>
| 10> * xyz 0 1
| 11>   C                      -10.501976           9.789601             2.959882
| 12>   O                      -9.241113            10.360364            2.734329
| 13>   H                      -8.514273            9.777568             2.605949
| 14>   H                      -10.484935           9.562159             3.977138
| 15>   H                      -11.403915           10.364180            2.707478
| 16>   H                      -10.549790           8.780095             2.542474
| 17>   C                      -7.096855            8.724594             5.735688
| 18>   O                      -7.076103            8.639328             4.278514
| 19>   H                      -6.413366            8.057978             3.966894
| 20>   H                      -8.040028            9.054440             6.056530
| 21>   H                      -6.900714            7.816340             6.248448
| 22>   H                      -6.306886            9.314177             6.101824
| 23> *
| 24>
| 25> #Run DFT-D3 single point of the molecule with dimer basis set
| 26> $new_job
| 27> %base "19-143_DFT_A"
| 28> ! wB97X-D3 def2-TZVP TIGHTSCF CHELPG PMODEL
| 29>
| 30> %scf
| 31> MaxIter 1000
| 32> end
| 33>
| 34> * xyz 0 1
| 35>   C                      -10.501976           9.789601             2.959882
| 36>   O                      -9.241113            10.360364            2.734329
| 37>   H                      -8.514273            9.777568             2.605949
| 38>   H                      -10.484935           9.562159             3.977138
| 39>   H                      -11.403915           10.364180            2.707478
| 40>   H                      -10.549790           8.780095             2.542474
| 41>   C                    : -7.096855            8.724594             5.735688
| 42>   O                    : -7.076103            8.639328             4.278514
| 43>   H                    : -6.413366            8.057978             3.966894
| 44>   H                    : -8.040028            9.054440             6.056530
| 45>   H                    : -6.900714            7.816340             6.248448
| 46>   H                    : -6.306886            9.314177             6.101824
| 47> *
| 48>
| 49> #Run DFT-D3 single point of the particle with dimer basis set
| 50> $new_job
| 51> %base "19-143_DFT_B"
| 52> ! wB97X-D3 def2-TZVP TIGHTSCF CHELPG PMODEL
| 53>
| 54> %scf
| 55> MaxIter 1000
| 56> end
| 57>
| 58> * xyz 0 1
| 59>   C                    : -10.501976           9.789601             2.959882
| 60>   O                    : -9.241113            10.360364            2.734329
| 61>   H                    : -8.514273            9.777568             2.605949
| 62>   H                    : -10.484935           9.562159             3.977138
| 63>   H                    : -11.403915           10.364180            2.707478
| 64>   H                    : -10.549790           8.780095             2.542474
| 65>   C                      -7.096855            8.724594             5.735688
| 66>   O                      -7.076103            8.639328             4.278514
| 67>   H                      -6.413366            8.057978             3.966894
| 68>   H                      -8.040028            9.054440             6.056530
| 69>   H                      -6.900714            7.816340             6.248448
| 70>   H                      -6.306886            9.314177             6.101824
| 71> *
| 72>
| 73>                          ****END OF INPUT****
 Total Charge           Charge          ....    0
 Multiplicity           Mult            ....    1
 Number of Electrons    NEL             ....   36
Dispersion correction           -0.001657839
FINAL SINGLE POINT ENERGY      -231.457640611951
Dispersion correction           -0.000235095
FINAL SINGLE POINT ENERGY      -115.724077072531

CARTESIAN COORDINATES (ANGSTROEM)
---------------------------------
  C    -10.501976    9.789601    2.959882
  O     -9.241113   10.360364    2.734329
  H     -8.514273    9.777568    2.605949
  H    -10.484935    9.562159    3.977138
  H    -11.403915   10.364180    2.707478
  H    -10.549790    8.780095    2.542474
  C     -7.096855    8.724594    5.735688
  O     -7.076103    8.639328    4.278514
  H     -6.413366    8.057978    3.966894
  H     -8.040028    9.054440    6.056530
  H     -6.900714    7.816340    6.248448
  H     -6.306886    9.314177    6.101824

 Multiplicity           Mult            ....    1
 Number of Electrons    NEL             ....   18
 Basis Dimension        Dim             ....  172

ORBITAL ENERGIES
----------------

  NO   OCC          E(Eh)            E(eV)
   0   2.0000     -19.226486      -523.1793
   1   2.0000     -10.305155      -280.4175
   2   2.0000      -1.124688       -30.6043
   3   2.0000      -0.812916       -22.1206
   4   2.0000      -0.614420       -16.7192
   5   2.0000      -0.542623       -14.7655
   6   2.0000      -0.520785       -14.1713
   7   2.0000      -0.439106       -11.9487
   8   2.0000      -0.375662       -10.2223
   9   0.0000       0.098927         2.6919
  10   0.0000       0.126288         3.4365
  11   0.0000       0.150973         4.1082
  12   0.0000       0.187921         5.1136
  13   0.0000       0.196322         5.3422

MULLIKEN ATOMIC CHARGES
-----------------------
   0 C :    0.000029
   1 O :    0.000924
   2 H :   -0.006438
   3 H :   -0.001038
   4 H :   -0.000159
   5 H :   -0.000647
   6 C :   -0.159990
   7 O :   -0.480264
   8 H :    0.307212
   9 H :    0.124050
  10 H :    0.105629
  11 H :    0.110693
Sum of atomic charges:   -0.0000000

LOEWDIN ATOMIC CHARGES
----------------------
   0 C :   -0.001780
   1 O :   -0.002428
   2 H :   -0.013995
   3 H :   -0.000343
   4 H :   -0.000035
   5 H :   -0.000239
   6 C :   -0.332070
   7 O :   -0.078671
   8 H :    0.146443
   9 H :    0.100091
  10 H :    0.092576
  11 H :    0.090451

  Mayer bond orders larger than 0.1
B(  6-C ,  7-O ) :   0.9912 B(  6-C ,  9-H ) :   0.9782 B(  6-C , 10-H ) :   0.9741
B(  6-C , 11-H ) :   0.9772 B(  7-O ,  8-H ) :   0.9047

Dispersion correction           -0.000260703
FINAL SINGLE POINT ENERGY      -115.729185322325

DIPOLE MOMENT
-------------
                                X             Y             Z
Electronic contribution:     -0.11312       0.00915      -1.79268
Nuclear contribution   :      0.55669      -0.37810       2.25320
                        -----------------------------------------
Total Dipole Moment    :      0.44357      -0.36895       0.46052
                        -----------------------------------------
Magnitude (a.u.)       :      0.73821
Magnitude (Debye)      :      1.87639

Rotational constants in cm-1:     4.725935     0.789326     0.759729
Rotational constants in MHz : 141679.963224 23663.386356 22776.106281

                             ****ORCA TERMINATED NORMALLY****
TOTAL RUN TIME: 0 days 0 hours 1 minutes 37 seconds 608 msec
