                         Program Version 4.1.2  - RELEASE  -
|  1> #Run DFT-D3 single point of the dimer
|  2> ! wB97X-D3 def2-TZVP TIGHTSCF CHELPG PMODEL PAL8
|  3>
|  4> %base "2-125_DFT_AB"
|  5>
|  6> %scf
|  7> MaxIter 1000
|  8> end
|  9>
| 10> * xyz 0 1
| 11>   C                      -10.353476           -3.644243            -1.666090
| 12>   O                      -10.961982           -3.131352            -2.793197
| 13>   H                      -10.428086           -2.428784            -3.211941
| 14>   H                      -9.308761            -3.229230            -1.545156
| 15>   H                      -10.916785           -3.388706            -0.756654
| 16>   H                      -10.260516           -4.742474            -1.658339
| 17>   C                      -5.568254            -3.555992            -1.520205
| 18>   O                      -6.828211            -4.070535            -1.896259
| 19>   H                      -6.816307            -4.100120            -2.846826
| 20>   H                      -5.608315            -2.703405            -0.819243
| 21>   H                      -5.009974            -4.353165            -0.938864
| 22>   H                      -4.857457            -3.366552            -2.418763
| 23> *
| 24>
| 25> #Run DFT-D3 single point of the molecule with dimer basis set
| 26> $new_job
| 27> %base "2-125_DFT_A"
| 28> ! wB97X-D3 def2-TZVP TIGHTSCF CHELPG PMODEL
| 29>
| 30> %scf
| 31> MaxIter 1000
| 32> end
| 33>
| 34> * xyz 0 1
| 35>   C                      -10.353476           -3.644243            -1.666090
| 36>   O                      -10.961982           -3.131352            -2.793197
| 37>   H                      -10.428086           -2.428784            -3.211941
| 38>   H                      -9.308761            -3.229230            -1.545156
| 39>   H                      -10.916785           -3.388706            -0.756654
| 40>   H                      -10.260516           -4.742474            -1.658339
| 41>   C                    : -5.568254            -3.555992            -1.520205
| 42>   O                    : -6.828211            -4.070535            -1.896259
| 43>   H                    : -6.816307            -4.100120            -2.846826
| 44>   H                    : -5.608315            -2.703405            -0.819243
| 45>   H                    : -5.009974            -4.353165            -0.938864
| 46>   H                    : -4.857457            -3.366552            -2.418763
| 47> *
| 48>
| 49> #Run DFT-D3 single point of the particle with dimer basis set
| 50> $new_job
| 51> %base "2-125_DFT_B"
| 52> ! wB97X-D3 def2-TZVP TIGHTSCF CHELPG PMODEL
| 53>
| 54> %scf
| 55> MaxIter 1000
| 56> end
| 57>
| 58> * xyz 0 1
| 59>   C                    : -10.353476           -3.644243            -1.666090
| 60>   O                    : -10.961982           -3.131352            -2.793197
| 61>   H                    : -10.428086           -2.428784            -3.211941
| 62>   H                    : -9.308761            -3.229230            -1.545156
| 63>   H                    : -10.916785           -3.388706            -0.756654
| 64>   H                    : -10.260516           -4.742474            -1.658339
| 65>   C                      -5.568254            -3.555992            -1.520205
| 66>   O                      -6.828211            -4.070535            -1.896259
| 67>   H                      -6.816307            -4.100120            -2.846826
| 68>   H                      -5.608315            -2.703405            -0.819243
| 69>   H                      -5.009974            -4.353165            -0.938864
| 70>   H                      -4.857457            -3.366552            -2.418763
| 71> *
| 72>
| 73>                          ****END OF INPUT****
 Total Charge           Charge          ....    0
 Multiplicity           Mult            ....    1
 Number of Electrons    NEL             ....   36
Dispersion correction           -0.001385737
FINAL SINGLE POINT ENERGY      -231.464496941113
Dispersion correction           -0.000252607
FINAL SINGLE POINT ENERGY      -115.733184260597

CARTESIAN COORDINATES (ANGSTROEM)
---------------------------------
  C    -10.353476   -3.644243   -1.666090
  O    -10.961982   -3.131352   -2.793197
  H    -10.428086   -2.428784   -3.211941
  H     -9.308761   -3.229230   -1.545156
  H    -10.916785   -3.388706   -0.756654
  H    -10.260516   -4.742474   -1.658339
  C     -5.568254   -3.555992   -1.520205
  O     -6.828211   -4.070535   -1.896259
  H     -6.816307   -4.100120   -2.846826
  H     -5.608315   -2.703405   -0.819243
  H     -5.009974   -4.353165   -0.938864
  H     -4.857457   -3.366552   -2.418763

 Multiplicity           Mult            ....    1
 Number of Electrons    NEL             ....   18
 Basis Dimension        Dim             ....  172

ORBITAL ENERGIES
----------------

  NO   OCC          E(Eh)            E(eV)
   0   2.0000     -19.234892      -523.4080
   1   2.0000     -10.326105      -280.9876
   2   2.0000      -1.143275       -31.1101
   3   2.0000      -0.788456       -21.4550
   4   2.0000      -0.612110       -16.6564
   5   2.0000      -0.537557       -14.6277
   6   2.0000      -0.524739       -14.2789
   7   2.0000      -0.436530       -11.8786
   8   2.0000      -0.372082       -10.1249
   9   0.0000       0.094376         2.5681
  10   0.0000       0.118852         3.2341
  11   0.0000       0.151352         4.1185
  12   0.0000       0.173671         4.7258
  13   0.0000       0.185734         5.0541

MULLIKEN ATOMIC CHARGES
-----------------------
   0 C :    0.004205
   1 O :   -0.000052
   2 H :   -0.000224
   3 H :   -0.010815
   4 H :   -0.000432
   5 H :   -0.001026
   6 C :   -0.187786
   7 O :   -0.446891
   8 H :    0.317825
   9 H :    0.116869
  10 H :    0.104554
  11 H :    0.103775
Sum of atomic charges:   -0.0000000

LOEWDIN ATOMIC CHARGES
----------------------
   0 C :   -0.004989
   1 O :   -0.000027
   2 H :   -0.000094
   3 H :   -0.010355
   4 H :   -0.000035
   5 H :   -0.000542
   6 C :   -0.406076
   7 O :   -0.057505
   8 H :    0.167520
   9 H :    0.100838
  10 H :    0.103526
  11 H :    0.107739

  Mayer bond orders larger than 0.1
B(  6-C ,  7-O ) :   1.0128 B(  6-C ,  9-H ) :   0.9709 B(  6-C , 10-H ) :   0.9750
B(  6-C , 11-H ) :   0.9784 B(  7-O ,  8-H ) :   0.9001

Dispersion correction           -0.000267343
FINAL SINGLE POINT ENERGY      -115.729881591505

DIPOLE MOMENT
-------------
                                X             Y             Z
Electronic contribution:     -1.84070      -0.55401      -0.40248
Nuclear contribution   :      2.33594       0.71503      -0.07098
                        -----------------------------------------
Total Dipole Moment    :      0.49524       0.16101      -0.47346
                        -----------------------------------------
Magnitude (a.u.)       :      0.70381
Magnitude (Debye)      :      1.78895

Rotational constants in cm-1:     4.119196     0.826951     0.788397
Rotational constants in MHz : 123490.401099 24791.374362 23635.547383

                             ****ORCA TERMINATED NORMALLY****
TOTAL RUN TIME: 0 days 0 hours 6 minutes 23 seconds 722 msec
