                         Program Version 4.1.2  - RELEASE  -
|  1> #Run DFT-D3 single point of the dimer
|  2> ! wB97X-D3 def2-TZVP TIGHTSCF CHELPG PMODEL PAL8
|  3>
|  4> %base "5-0_DFT_AB"
|  5>
|  6> %scf
|  7> MaxIter 1000
|  8> end
|  9>
| 10> * xyz 0 1
| 11>   C                      7.637502             -1.565497            0.430449
| 12>   O                      6.279459             -1.591730            0.075538
| 13>   H                      6.138315             -2.503580            0.236057
| 14>   H                      8.043561             -0.510717            0.303914
| 15>   H                      7.798157             -1.853950            1.427963
| 16>   H                      8.171181             -2.284390            -0.145285
| 17>   C                      2.739132             -3.942480            -1.008213
| 18>   O                      1.753076             -3.898102            -0.067553
| 19>   H                      2.322324             -4.076974            0.640020
| 20>   H                      3.466281             -4.735064            -0.636827
| 21>   H                      2.402265             -4.144417            -2.020121
| 22>   H                      3.256188             -3.012980            -0.955926
| 23> *
| 24>
| 25> #Run DFT-D3 single point of the molecule with dimer basis set
| 26> $new_job
| 27> %base "5-0_DFT_A"
| 28> ! wB97X-D3 def2-TZVP TIGHTSCF CHELPG PMODEL
| 29>
| 30> %scf
| 31> MaxIter 1000
| 32> end
| 33>
| 34> * xyz 0 1
| 35>   C                      7.637502             -1.565497            0.430449
| 36>   O                      6.279459             -1.591730            0.075538
| 37>   H                      6.138315             -2.503580            0.236057
| 38>   H                      8.043561             -0.510717            0.303914
| 39>   H                      7.798157             -1.853950            1.427963
| 40>   H                      8.171181             -2.284390            -0.145285
| 41>   C                    : 2.739132             -3.942480            -1.008213
| 42>   O                    : 1.753076             -3.898102            -0.067553
| 43>   H                    : 2.322324             -4.076974            0.640020
| 44>   H                    : 3.466281             -4.735064            -0.636827
| 45>   H                    : 2.402265             -4.144417            -2.020121
| 46>   H                    : 3.256188             -3.012980            -0.955926
| 47> *
| 48>
| 49> #Run DFT-D3 single point of the particle with dimer basis set
| 50> $new_job
| 51> %base "5-0_DFT_B"
| 52> ! wB97X-D3 def2-TZVP TIGHTSCF CHELPG PMODEL
| 53>
| 54> %scf
| 55> MaxIter 1000
| 56> end
| 57>
| 58> * xyz 0 1
| 59>   C                    : 7.637502             -1.565497            0.430449
| 60>   O                    : 6.279459             -1.591730            0.075538
| 61>   H                    : 6.138315             -2.503580            0.236057
| 62>   H                    : 8.043561             -0.510717            0.303914
| 63>   H                    : 7.798157             -1.853950            1.427963
| 64>   H                    : 8.171181             -2.284390            -0.145285
| 65>   C                      2.739132             -3.942480            -1.008213
| 66>   O                      1.753076             -3.898102            -0.067553
| 67>   H                      2.322324             -4.076974            0.640020
| 68>   H                      3.466281             -4.735064            -0.636827
| 69>   H                      2.402265             -4.144417            -2.020121
| 70>   H                      3.256188             -3.012980            -0.955926
| 71> *
| 72>
| 73>                          ****END OF INPUT****
 Total Charge           Charge          ....    0
 Multiplicity           Mult            ....    1
 Number of Electrons    NEL             ....   36
Dispersion correction           -0.000825904
FINAL SINGLE POINT ENERGY      -231.448234488882
Dispersion correction           -0.000194780
FINAL SINGLE POINT ENERGY      -115.728274609509

CARTESIAN COORDINATES (ANGSTROEM)
---------------------------------
  C      7.637502   -1.565497    0.430449
  O      6.279459   -1.591730    0.075538
  H      6.138315   -2.503580    0.236057
  H      8.043561   -0.510717    0.303914
  H      7.798157   -1.853950    1.427963
  H      8.171181   -2.284390   -0.145285
  C      2.739132   -3.942480   -1.008213
  O      1.753076   -3.898102   -0.067553
  H      2.322324   -4.076974    0.640020
  H      3.466281   -4.735064   -0.636827
  H      2.402265   -4.144417   -2.020121
  H      3.256188   -3.012980   -0.955926

 Multiplicity           Mult            ....    1
 Number of Electrons    NEL             ....   18
 Basis Dimension        Dim             ....  172

ORBITAL ENERGIES
----------------

  NO   OCC          E(Eh)            E(eV)
   0   2.0000     -19.226227      -523.1722
   1   2.0000     -10.311471      -280.5894
   2   2.0000      -1.171640       -31.8820
   3   2.0000      -0.786888       -21.4123
   4   2.0000      -0.624668       -16.9981
   5   2.0000      -0.555189       -15.1075
   6   2.0000      -0.537872       -14.6363
   7   2.0000      -0.441358       -12.0100
   8   2.0000      -0.368246       -10.0205
   9   0.0000       0.080581         2.1927
  10   0.0000       0.109887         2.9902
  11   0.0000       0.153588         4.1794
  12   0.0000       0.181316         4.9339
  13   0.0000       0.184732         5.0268

MULLIKEN ATOMIC CHARGES
-----------------------
   0 C :   -0.000008
   1 O :   -0.000040
   2 H :   -0.000367
   3 H :    0.000003
   4 H :   -0.000001
   5 H :   -0.000004
   6 C :   -0.180293
   7 O :   -0.430644
   8 H :    0.310216
   9 H :    0.083852
  10 H :    0.114158
  11 H :    0.103129
Sum of atomic charges:    0.0000000

LOEWDIN ATOMIC CHARGES
----------------------
   0 C :   -0.000024
   1 O :   -0.000335
   2 H :   -0.000637
   3 H :   -0.000000
   4 H :   -0.000001
   5 H :   -0.000001
   6 C :   -0.424905
   7 O :   -0.025842
   8 H :    0.159709
   9 H :    0.101482
  10 H :    0.102354
  11 H :    0.088200

  Mayer bond orders larger than 0.1
B(  6-C ,  7-O ) :   0.9973 B(  6-C ,  9-H ) :   1.0015 B(  6-C , 10-H ) :   0.9699
B(  6-C , 11-H ) :   0.9774 B(  7-O ,  8-H ) :   0.9108

Dispersion correction           -0.000170215
FINAL SINGLE POINT ENERGY      -115.719824834257

DIPOLE MOMENT
-------------
                                X             Y             Z
Electronic contribution:     -1.56198       0.13215       0.98655
Nuclear contribution   :      2.24241      -0.24636      -0.88679
                        -----------------------------------------
Total Dipole Moment    :      0.68043      -0.11421       0.09976
                        -----------------------------------------
Magnitude (a.u.)       :      0.69712
Magnitude (Debye)      :      1.77195

Rotational constants in cm-1:     4.184824     0.915733     0.869922
Rotational constants in MHz : 125457.860293 27452.991127 26079.614049

                             ****ORCA TERMINATED NORMALLY****
TOTAL RUN TIME: 0 days 0 hours 0 minutes 58 seconds 167 msec
