                         Program Version 4.1.2  - RELEASE  -
|  1> #Run DFT-D3 single point of the dimer
|  2> ! wB97X-D3 def2-TZVP TIGHTSCF CHELPG PMODEL PAL8
|  3>
|  4> %base "6-7_DFT_AB"
|  5>
|  6> %scf
|  7> MaxIter 1000
|  8> end
|  9>
| 10> * xyz 0 1
| 11>   C                      -8.943252            -7.348248            2.064146
| 12>   O                      -8.854877            -8.616783            1.511822
| 13>   H                      -9.785357            -8.938947            1.557192
| 14>   H                      -7.983475            -6.876313            1.956709
| 15>   H                      -9.635888            -6.670991            1.500144
| 16>   H                      -9.236388            -7.364689            3.074729
| 17>   C                      -8.806139            -3.804200            -0.537785
| 18>   O                      -9.024071            -2.496550            -1.017201
| 19>   H                      -9.353899            -2.559543            -1.944128
| 20>   H                      -8.922862            -3.712289            0.568426
| 21>   H                      -9.480058            -4.616308            -0.979368
| 22>   H                      -7.833328            -4.174835            -0.732438
| 23> *
| 24>
| 25> #Run DFT-D3 single point of the molecule with dimer basis set
| 26> $new_job
| 27> %base "6-7_DFT_A"
| 28> ! wB97X-D3 def2-TZVP TIGHTSCF CHELPG PMODEL
| 29>
| 30> %scf
| 31> MaxIter 1000
| 32> end
| 33>
| 34> * xyz 0 1
| 35>   C                      -8.943252            -7.348248            2.064146
| 36>   O                      -8.854877            -8.616783            1.511822
| 37>   H                      -9.785357            -8.938947            1.557192
| 38>   H                      -7.983475            -6.876313            1.956709
| 39>   H                      -9.635888            -6.670991            1.500144
| 40>   H                      -9.236388            -7.364689            3.074729
| 41>   C                    : -8.806139            -3.804200            -0.537785
| 42>   O                    : -9.024071            -2.496550            -1.017201
| 43>   H                    : -9.353899            -2.559543            -1.944128
| 44>   H                    : -8.922862            -3.712289            0.568426
| 45>   H                    : -9.480058            -4.616308            -0.979368
| 46>   H                    : -7.833328            -4.174835            -0.732438
| 47> *
| 48>
| 49> #Run DFT-D3 single point of the particle with dimer basis set
| 50> $new_job
| 51> %base "6-7_DFT_B"
| 52> ! wB97X-D3 def2-TZVP TIGHTSCF CHELPG PMODEL
| 53>
| 54> %scf
| 55> MaxIter 1000
| 56> end
| 57>
| 58> * xyz 0 1
| 59>   C                    : -8.943252            -7.348248            2.064146
| 60>   O                    : -8.854877            -8.616783            1.511822
| 61>   H                    : -9.785357            -8.938947            1.557192
| 62>   H                    : -7.983475            -6.876313            1.956709
| 63>   H                    : -9.635888            -6.670991            1.500144
| 64>   H                    : -9.236388            -7.364689            3.074729
| 65>   C                      -8.806139            -3.804200            -0.537785
| 66>   O                      -9.024071            -2.496550            -1.017201
| 67>   H                      -9.353899            -2.559543            -1.944128
| 68>   H                      -8.922862            -3.712289            0.568426
| 69>   H                      -9.480058            -4.616308            -0.979368
| 70>   H                      -7.833328            -4.174835            -0.732438
| 71> *
| 72>
| 73>                          ****END OF INPUT****
 Total Charge           Charge          ....    0
 Multiplicity           Mult            ....    1
 Number of Electrons    NEL             ....   36
Dispersion correction           -0.001110020
FINAL SINGLE POINT ENERGY      -231.465687371032
Dispersion correction           -0.000214062
FINAL SINGLE POINT ENERGY      -115.733290215561

CARTESIAN COORDINATES (ANGSTROEM)
---------------------------------
  C     -8.943252   -7.348248    2.064146
  O     -8.854877   -8.616783    1.511822
  H     -9.785357   -8.938947    1.557192
  H     -7.983475   -6.876313    1.956709
  H     -9.635888   -6.670991    1.500144
  H     -9.236388   -7.364689    3.074729
  C     -8.806139   -3.804200   -0.537785
  O     -9.024071   -2.496550   -1.017201
  H     -9.353899   -2.559543   -1.944128
  H     -8.922862   -3.712289    0.568426
  H     -9.480058   -4.616308   -0.979368
  H     -7.833328   -4.174835   -0.732438

 Multiplicity           Mult            ....    1
 Number of Electrons    NEL             ....   18
 Basis Dimension        Dim             ....  172

ORBITAL ENERGIES
----------------

  NO   OCC          E(Eh)            E(eV)
   0   2.0000     -19.234064      -523.3855
   1   2.0000     -10.315855      -280.7087
   2   2.0000      -1.133656       -30.8483
   3   2.0000      -0.791298       -21.5323
   4   2.0000      -0.612925       -16.6785
   5   2.0000      -0.535447       -14.5702
   6   2.0000      -0.521920       -14.2022
   7   2.0000      -0.436027       -11.8649
   8   2.0000      -0.371974       -10.1219
   9   0.0000       0.083354         2.2682
  10   0.0000       0.111343         3.0298
  11   0.0000       0.142067         3.8658
  12   0.0000       0.171315         4.6617
  13   0.0000       0.185372         5.0442

MULLIKEN ATOMIC CHARGES
-----------------------
   0 C :    0.000963
   1 O :   -0.000016
   2 H :   -0.000009
   3 H :   -0.000090
   4 H :   -0.001779
   5 H :   -0.000011
   6 C :   -0.163786
   7 O :   -0.472651
   8 H :    0.317431
   9 H :    0.118653
  10 H :    0.097488
  11 H :    0.103805
Sum of atomic charges:    0.0000000

LOEWDIN ATOMIC CHARGES
----------------------
   0 C :   -0.000518
   1 O :   -0.000006
   2 H :   -0.000001
   3 H :   -0.000102
   4 H :   -0.001000
   5 H :   -0.000004
   6 C :   -0.398555
   7 O :   -0.084233
   8 H :    0.183863
   9 H :    0.113427
  10 H :    0.102672
  11 H :    0.084455

  Mayer bond orders larger than 0.1
B(  6-C ,  7-O ) :   1.0069 B(  6-C ,  9-H ) :   0.9782 B(  6-C , 10-H ) :   0.9752
B(  6-C , 11-H ) :   0.9676 B(  7-O ,  8-H ) :   0.8950

Dispersion correction           -0.000258192
FINAL SINGLE POINT ENERGY      -115.731634968886

DIPOLE MOMENT
-------------
                                X             Y             Z
Electronic contribution:     -0.21583       1.77703      -0.53783
Nuclear contribution   :      0.10708      -2.31448       0.12727
                        -----------------------------------------
Total Dipole Moment    :     -0.10875      -0.53744      -0.41056
                        -----------------------------------------
Magnitude (a.u.)       :      0.68500
Magnitude (Debye)      :      1.74114

Rotational constants in cm-1:     4.198418     0.836975     0.792431
Rotational constants in MHz : 125865.409381 25091.892927 23756.475239

                             ****ORCA TERMINATED NORMALLY****
TOTAL RUN TIME: 0 days 0 hours 1 minutes 5 seconds 840 msec
