                         Program Version 4.1.2  - RELEASE  -
|  1> #Run DFT-D3 single point of the dimer
|  2> ! wB97X-D3 def2-TZVP TIGHTSCF CHELPG PMODEL PAL8
|  3>
|  4> %base "13-200_DFT_AB"
|  5>
|  6> %scf
|  7> MaxIter 1000
|  8> end
|  9>
| 10> * xyz 0 1
| 11>   C                      -10.204970           7.615686             2.738602
| 12>   O                      -9.690328            8.291197             3.957859
| 13>   H                      -8.772755            8.499973             3.921221
| 14>   H                      -9.407760            7.280991             2.087798
| 15>   H                      -10.925905           6.792328             2.886304
| 16>   H                      -10.817833           8.344414             2.173466
| 17>   C                      -6.157454            10.005180            5.000635
| 18>   O                      -7.012671            9.226287             4.226335
| 19>   H                      -6.640607            8.534934             3.691516
| 20>   H                      -5.172978            10.178861            4.437589
| 21>   H                      -6.692269            10.953788            5.047580
| 22>   H                      -5.897147            9.620161             5.962352
| 23> *
| 24>
| 25> #Run DFT-D3 single point of the molecule with dimer basis set
| 26> $new_job
| 27> %base "13-200_DFT_A"
| 28> ! wB97X-D3 def2-TZVP TIGHTSCF CHELPG PMODEL
| 29>
| 30> %scf
| 31> MaxIter 1000
| 32> end
| 33>
| 34> * xyz 0 1
| 35>   C                      -10.204970           7.615686             2.738602
| 36>   O                      -9.690328            8.291197             3.957859
| 37>   H                      -8.772755            8.499973             3.921221
| 38>   H                      -9.407760            7.280991             2.087798
| 39>   H                      -10.925905           6.792328             2.886304
| 40>   H                      -10.817833           8.344414             2.173466
| 41>   C                    : -6.157454            10.005180            5.000635
| 42>   O                    : -7.012671            9.226287             4.226335
| 43>   H                    : -6.640607            8.534934             3.691516
| 44>   H                    : -5.172978            10.178861            4.437589
| 45>   H                    : -6.692269            10.953788            5.047580
| 46>   H                    : -5.897147            9.620161             5.962352
| 47> *
| 48>
| 49> #Run DFT-D3 single point of the particle with dimer basis set
| 50> $new_job
| 51> %base "13-200_DFT_B"
| 52> ! wB97X-D3 def2-TZVP TIGHTSCF CHELPG PMODEL
| 53>
| 54> %scf
| 55> MaxIter 1000
| 56> end
| 57>
| 58> * xyz 0 1
| 59>   C                    : -10.204970           7.615686             2.738602
| 60>   O                    : -9.690328            8.291197             3.957859
| 61>   H                    : -8.772755            8.499973             3.921221
| 62>   H                    : -9.407760            7.280991             2.087798
| 63>   H                    : -10.925905           6.792328             2.886304
| 64>   H                    : -10.817833           8.344414             2.173466
| 65>   C                      -6.157454            10.005180            5.000635
| 66>   O                      -7.012671            9.226287             4.226335
| 67>   H                      -6.640607            8.534934             3.691516
| 68>   H                      -5.172978            10.178861            4.437589
| 69>   H                      -6.692269            10.953788            5.047580
| 70>   H                      -5.897147            9.620161             5.962352
| 71> *
| 72>
| 73>                          ****END OF INPUT****
 Total Charge           Charge          ....    0
 Multiplicity           Mult            ....    1
 Number of Electrons    NEL             ....   36
Dispersion correction           -0.001483026
FINAL SINGLE POINT ENERGY      -231.463393984593
Dispersion correction           -0.000297422
FINAL SINGLE POINT ENERGY      -115.727869353255

CARTESIAN COORDINATES (ANGSTROEM)
---------------------------------
  C    -10.204970    7.615686    2.738602
  O     -9.690328    8.291197    3.957859
  H     -8.772755    8.499973    3.921221
  H     -9.407760    7.280991    2.087798
  H    -10.925905    6.792328    2.886304
  H    -10.817833    8.344414    2.173466
  C     -6.157454   10.005180    5.000635
  O     -7.012671    9.226287    4.226335
  H     -6.640607    8.534934    3.691516
  H     -5.172978   10.178861    4.437589
  H     -6.692269   10.953788    5.047580
  H     -5.897147    9.620161    5.962352

 Multiplicity           Mult            ....    1
 Number of Electrons    NEL             ....   18
 Basis Dimension        Dim             ....  172

ORBITAL ENERGIES
----------------

  NO   OCC          E(Eh)            E(eV)
   0   2.0000     -19.225108      -523.1418
   1   2.0000     -10.314296      -280.6663
   2   2.0000      -1.138460       -30.9791
   3   2.0000      -0.799376       -21.7521
   4   2.0000      -0.618377       -16.8269
   5   2.0000      -0.544292       -14.8110
   6   2.0000      -0.527743       -14.3606
   7   2.0000      -0.418216       -11.3802
   8   2.0000      -0.372792       -10.1442
   9   0.0000       0.093967         2.5570
  10   0.0000       0.123003         3.3471
  11   0.0000       0.155567         4.2332
  12   0.0000       0.185218         5.0400
  13   0.0000       0.202670         5.5149

MULLIKEN ATOMIC CHARGES
-----------------------
   0 C :    0.001280
   1 O :    0.002712
   2 H :   -0.017759
   3 H :   -0.000300
   4 H :   -0.000032
   5 H :   -0.000055
   6 C :   -0.134340
   7 O :   -0.479007
   8 H :    0.320294
   9 H :    0.086889
  10 H :    0.121034
  11 H :    0.099283
Sum of atomic charges:    0.0000000

LOEWDIN ATOMIC CHARGES
----------------------
   0 C :   -0.000813
   1 O :   -0.006685
   2 H :   -0.043702
   3 H :   -0.000091
   4 H :   -0.000017
   5 H :   -0.000014
   6 C :   -0.392119
   7 O :   -0.020201
   8 H :    0.162356
   9 H :    0.103542
  10 H :    0.111092
  11 H :    0.086653

  Mayer bond orders larger than 0.1
B(  6-C ,  7-O ) :   0.9943 B(  6-C ,  9-H ) :   0.9770 B(  6-C , 10-H ) :   0.9818
B(  6-C , 11-H ) :   0.9663 B(  7-O ,  8-H ) :   0.8890

Dispersion correction           -0.000257054
FINAL SINGLE POINT ENERGY      -115.731010393318

DIPOLE MOMENT
-------------
                                X             Y             Z
Electronic contribution:     -1.18633      -0.99928      -0.78906
Nuclear contribution   :      1.78206       0.85292       0.73736
                        -----------------------------------------
Total Dipole Moment    :      0.59573      -0.14636      -0.05170
                        -----------------------------------------
Magnitude (a.u.)       :      0.61562
Magnitude (Debye)      :      1.56479

Rotational constants in cm-1:     4.348561     0.844545     0.816424
Rotational constants in MHz : 130366.582883 25318.834828 24475.779262

                             ****ORCA TERMINATED NORMALLY****
TOTAL RUN TIME: 0 days 0 hours 1 minutes 1 seconds 267 msec
