                         Program Version 4.1.2  - RELEASE  -
|  1> #Run DFT-D3 single point of the dimer
|  2> ! wB97X-D3 def2-TZVP TIGHTSCF CHELPG PMODEL PAL8
|  3>
|  4> %base "12-87_DFT_AB"
|  5>
|  6> %scf
|  7> MaxIter 1000
|  8> end
|  9>
| 10> * xyz 0 1
| 11>   C                      -4.658780            -2.037883            7.649658
| 12>   O                      -5.337638            -1.572166            6.540238
| 13>   H                      -6.235660            -1.469603            6.901389
| 14>   H                      -3.612432            -1.652803            7.614765
| 15>   H                      -5.188026            -1.588476            8.460927
| 16>   H                      -4.629709            -3.094023            7.716798
| 17>   C                      -8.782069            -0.807775            7.570743
| 18>   O                      -8.483144            -2.095420            6.950535
| 19>   H                      -9.023656            -2.821554            7.231701
| 20>   H                      -8.608050            -0.917514            8.626769
| 21>   H                      -8.249451            0.079255             7.182491
| 22>   H                      -9.872292            -0.605238            7.324622
| 23> *
| 24>
| 25> #Run DFT-D3 single point of the molecule with dimer basis set
| 26> $new_job
| 27> %base "12-87_DFT_A"
| 28> ! wB97X-D3 def2-TZVP TIGHTSCF CHELPG PMODEL
| 29>
| 30> %scf
| 31> MaxIter 1000
| 32> end
| 33>
| 34> * xyz 0 1
| 35>   C                      -4.658780            -2.037883            7.649658
| 36>   O                      -5.337638            -1.572166            6.540238
| 37>   H                      -6.235660            -1.469603            6.901389
| 38>   H                      -3.612432            -1.652803            7.614765
| 39>   H                      -5.188026            -1.588476            8.460927
| 40>   H                      -4.629709            -3.094023            7.716798
| 41>   C                    : -8.782069            -0.807775            7.570743
| 42>   O                    : -8.483144            -2.095420            6.950535
| 43>   H                    : -9.023656            -2.821554            7.231701
| 44>   H                    : -8.608050            -0.917514            8.626769
| 45>   H                    : -8.249451            0.079255             7.182491
| 46>   H                    : -9.872292            -0.605238            7.324622
| 47> *
| 48>
| 49> #Run DFT-D3 single point of the particle with dimer basis set
| 50> $new_job
| 51> %base "12-87_DFT_B"
| 52> ! wB97X-D3 def2-TZVP TIGHTSCF CHELPG PMODEL
| 53>
| 54> %scf
| 55> MaxIter 1000
| 56> end
| 57>
| 58> * xyz 0 1
| 59>   C                    : -4.658780            -2.037883            7.649658
| 60>   O                    : -5.337638            -1.572166            6.540238
| 61>   H                    : -6.235660            -1.469603            6.901389
| 62>   H                    : -3.612432            -1.652803            7.614765
| 63>   H                    : -5.188026            -1.588476            8.460927
| 64>   H                    : -4.629709            -3.094023            7.716798
| 65>   C                      -8.782069            -0.807775            7.570743
| 66>   O                      -8.483144            -2.095420            6.950535
| 67>   H                      -9.023656            -2.821554            7.231701
| 68>   H                      -8.608050            -0.917514            8.626769
| 69>   H                      -8.249451            0.079255             7.182491
| 70>   H                      -9.872292            -0.605238            7.324622
| 71> *
| 72>
| 73>                          ****END OF INPUT****
 Total Charge           Charge          ....    0
 Multiplicity           Mult            ....    1
 Number of Electrons    NEL             ....   36
Dispersion correction           -0.001764961
FINAL SINGLE POINT ENERGY      -231.460051411419
Dispersion correction           -0.000197371
FINAL SINGLE POINT ENERGY      -115.728359147175

CARTESIAN COORDINATES (ANGSTROEM)
---------------------------------
  C     -4.658780   -2.037883    7.649658
  O     -5.337638   -1.572166    6.540238
  H     -6.235660   -1.469603    6.901389
  H     -3.612432   -1.652803    7.614765
  H     -5.188026   -1.588476    8.460927
  H     -4.629709   -3.094023    7.716798
  C     -8.782069   -0.807775    7.570743
  O     -8.483144   -2.095420    6.950535
  H     -9.023656   -2.821554    7.231701
  H     -8.608050   -0.917514    8.626769
  H     -8.249451    0.079255    7.182491
  H     -9.872292   -0.605238    7.324622

 Multiplicity           Mult            ....    1
 Number of Electrons    NEL             ....   18
 Basis Dimension        Dim             ....  172

ORBITAL ENERGIES
----------------

  NO   OCC          E(Eh)            E(eV)
   0   2.0000     -19.222486      -523.0704
   1   2.0000     -10.323435      -280.9150
   2   2.0000      -1.119039       -30.4506
   3   2.0000      -0.798460       -21.7272
   4   2.0000      -0.599325       -16.3085
   5   2.0000      -0.544685       -14.8216
   6   2.0000      -0.527389       -14.3510
   7   2.0000      -0.417924       -11.3723
   8   2.0000      -0.371712       -10.1148
   9   0.0000       0.096572         2.6279
  10   0.0000       0.125123         3.4048
  11   0.0000       0.145547         3.9605
  12   0.0000       0.186594         5.0775
  13   0.0000       0.194444         5.2911

MULLIKEN ATOMIC CHARGES
-----------------------
   0 C :   -0.005364
   1 O :   -0.000769
   2 H :    0.005956
   3 H :   -0.000155
   4 H :    0.000399
   5 H :    0.000189
   6 C :   -0.172692
   7 O :   -0.506359
   8 H :    0.316684
   9 H :    0.119768
  10 H :    0.131320
  11 H :    0.111023
Sum of atomic charges:   -0.0000000

LOEWDIN ATOMIC CHARGES
----------------------
   0 C :   -0.002205
   1 O :   -0.001932
   2 H :   -0.014928
   3 H :   -0.000056
   4 H :   -0.000219
   5 H :   -0.000138
   6 C :   -0.346787
   7 O :   -0.102843
   8 H :    0.154974
   9 H :    0.094270
  10 H :    0.113238
  11 H :    0.106625

  Mayer bond orders larger than 0.1
B(  6-C ,  7-O ) :   0.9702 B(  6-C ,  9-H ) :   0.9775 B(  6-C , 10-H ) :   0.9687
B(  6-C , 11-H ) :   0.9783 B(  7-O ,  8-H ) :   0.8936

Dispersion correction           -0.000264647
FINAL SINGLE POINT ENERGY      -115.727282876317

DIPOLE MOMENT
-------------
                                X             Y             Z
Electronic contribution:      0.57892      -1.44428      -0.76952
Nuclear contribution   :     -1.07033       1.55574       1.22525
                        -----------------------------------------
Total Dipole Moment    :     -0.49141       0.11146       0.45573
                        -----------------------------------------
Magnitude (a.u.)       :      0.67941
Magnitude (Debye)      :      1.72692

Rotational constants in cm-1:     4.333868     0.776175     0.760164
Rotational constants in MHz : 129926.089080 23269.155318 22789.157120

                             ****ORCA TERMINATED NORMALLY****
TOTAL RUN TIME: 0 days 0 hours 1 minutes 7 seconds 29 msec
