                         Program Version 4.1.2  - RELEASE  -
|  1> #Run DFT-D3 single point of the dimer
|  2> ! wB97X-D3 def2-TZVP TIGHTSCF CHELPG PMODEL PAL8
|  3>
|  4> %base "21-188_DFT_AB"
|  5>
|  6> %scf
|  7> MaxIter 1000
|  8> end
|  9>
| 10> * xyz 0 1
| 11>   C                      -4.908087            6.816768             11.498828
| 12>   O                      -5.132093            5.907336             10.452806
| 13>   H                      -4.532943            5.219039             10.659425
| 14>   H                      -4.152634            6.339868             12.203076
| 15>   H                      -4.509122            7.754488             11.182575
| 16>   H                      -5.826004            7.030782             12.144233
| 17>   C                      -3.176130            2.800931             11.688578
| 18>   O                      -3.653896            3.525081             10.601959
| 19>   H                      -4.002284            2.830228             10.011412
| 20>   H                      -2.122953            2.613890             11.649572
| 21>   H                      -3.325112            3.347833             12.639008
| 22>   H                      -3.590923            1.782619             11.774052
| 23> *
| 24>
| 25> #Run DFT-D3 single point of the molecule with dimer basis set
| 26> $new_job
| 27> %base "21-188_DFT_A"
| 28> ! wB97X-D3 def2-TZVP TIGHTSCF CHELPG PMODEL
| 29>
| 30> %scf
| 31> MaxIter 1000
| 32> end
| 33>
| 34> * xyz 0 1
| 35>   C                      -4.908087            6.816768             11.498828
| 36>   O                      -5.132093            5.907336             10.452806
| 37>   H                      -4.532943            5.219039             10.659425
| 38>   H                      -4.152634            6.339868             12.203076
| 39>   H                      -4.509122            7.754488             11.182575
| 40>   H                      -5.826004            7.030782             12.144233
| 41>   C                    : -3.176130            2.800931             11.688578
| 42>   O                    : -3.653896            3.525081             10.601959
| 43>   H                    : -4.002284            2.830228             10.011412
| 44>   H                    : -2.122953            2.613890             11.649572
| 45>   H                    : -3.325112            3.347833             12.639008
| 46>   H                    : -3.590923            1.782619             11.774052
| 47> *
| 48>
| 49> #Run DFT-D3 single point of the particle with dimer basis set
| 50> $new_job
| 51> %base "21-188_DFT_B"
| 52> ! wB97X-D3 def2-TZVP TIGHTSCF CHELPG PMODEL
| 53>
| 54> %scf
| 55> MaxIter 1000
| 56> end
| 57>
| 58> * xyz 0 1
| 59>   C                    : -4.908087            6.816768             11.498828
| 60>   O                    : -5.132093            5.907336             10.452806
| 61>   H                    : -4.532943            5.219039             10.659425
| 62>   H                    : -4.152634            6.339868             12.203076
| 63>   H                    : -4.509122            7.754488             11.182575
| 64>   H                    : -5.826004            7.030782             12.144233
| 65>   C                      -3.176130            2.800931             11.688578
| 66>   O                      -3.653896            3.525081             10.601959
| 67>   H                      -4.002284            2.830228             10.011412
| 68>   H                      -2.122953            2.613890             11.649572
| 69>   H                      -3.325112            3.347833             12.639008
| 70>   H                      -3.590923            1.782619             11.774052
| 71> *
| 72>
| 73>                          ****END OF INPUT****
 Total Charge           Charge          ....    0
 Multiplicity           Mult            ....    1
 Number of Electrons    NEL             ....   36
Dispersion correction           -0.001716630
FINAL SINGLE POINT ENERGY      -231.470013023076
Dispersion correction           -0.000241523
FINAL SINGLE POINT ENERGY      -115.729650401225

CARTESIAN COORDINATES (ANGSTROEM)
---------------------------------
  C     -4.908087    6.816768   11.498828
  O     -5.132093    5.907336   10.452806
  H     -4.532943    5.219039   10.659425
  H     -4.152634    6.339868   12.203076
  H     -4.509122    7.754488   11.182575
  H     -5.826004    7.030782   12.144233
  C     -3.176130    2.800931   11.688578
  O     -3.653896    3.525081   10.601959
  H     -4.002284    2.830228   10.011412
  H     -2.122953    2.613890   11.649572
  H     -3.325112    3.347833   12.639008
  H     -3.590923    1.782619   11.774052

 Multiplicity           Mult            ....    1
 Number of Electrons    NEL             ....   18
 Basis Dimension        Dim             ....  172

ORBITAL ENERGIES
----------------

  NO   OCC          E(Eh)            E(eV)
   0   2.0000     -19.236321      -523.4469
   1   2.0000     -10.310414      -280.5606
   2   2.0000      -1.145929       -31.1823
   3   2.0000      -0.792976       -21.5780
   4   2.0000      -0.618289       -16.8245
   5   2.0000      -0.538086       -14.6421
   6   2.0000      -0.531644       -14.4668
   7   2.0000      -0.440356       -11.9827
   8   2.0000      -0.371981       -10.1221
   9   0.0000       0.098616         2.6835
  10   0.0000       0.119257         3.2451
  11   0.0000       0.152092         4.1386
  12   0.0000       0.187386         5.0990
  13   0.0000       0.201505         5.4832

MULLIKEN ATOMIC CHARGES
-----------------------
   0 C :    0.000786
   1 O :    0.000005
   2 H :   -0.011175
   3 H :   -0.000406
   4 H :   -0.000120
   5 H :    0.000006
   6 C :   -0.173836
   7 O :   -0.450197
   8 H :    0.318016
   9 H :    0.101567
  10 H :    0.115258
  11 H :    0.100097
Sum of atomic charges:   -0.0000000

LOEWDIN ATOMIC CHARGES
----------------------
   0 C :   -0.001732
   1 O :   -0.007455
   2 H :   -0.045085
   3 H :   -0.000431
   4 H :   -0.000026
   5 H :   -0.000014
   6 C :   -0.410102
   7 O :   -0.016784
   8 H :    0.186712
   9 H :    0.089727
  10 H :    0.107509
  11 H :    0.097679

  Mayer bond orders larger than 0.1
B(  6-C ,  7-O ) :   1.0056 B(  6-C ,  9-H ) :   0.9710 B(  6-C , 10-H ) :   0.9801
B(  6-C , 11-H ) :   0.9821 B(  7-O ,  8-H ) :   0.8954

Dispersion correction           -0.000235325
FINAL SINGLE POINT ENERGY      -115.732815951462

DIPOLE MOMENT
-------------
                                X             Y             Z
Electronic contribution:     -0.65050       1.14642      -1.44162
Nuclear contribution   :      0.61567      -1.86722       1.47045
                        -----------------------------------------
Total Dipole Moment    :     -0.03483      -0.72081       0.02883
                        -----------------------------------------
Magnitude (a.u.)       :      0.72222
Magnitude (Debye)      :      1.83575

Rotational constants in cm-1:     4.329573     0.856938     0.813125
Rotational constants in MHz : 129797.321657 25690.364440 24376.860576

                             ****ORCA TERMINATED NORMALLY****
TOTAL RUN TIME: 0 days 0 hours 1 minutes 6 seconds 266 msec
