                         Program Version 4.1.2  - RELEASE  -
|  1> #Run DFT-D3 single point of the dimer
|  2> ! wB97X-D3 def2-TZVP TIGHTSCF CHELPG PMODEL PAL8
|  3>
|  4> %base "4-136_DFT_AB"
|  5>
|  6> %scf
|  7> MaxIter 1000
|  8> end
|  9>
| 10> * xyz 0 1
| 11>   C                      2.765020             -4.179074            5.805482
| 12>   O                      3.311683             -5.446056            6.177687
| 13>   H                      3.331339             -5.364676            7.148464
| 14>   H                      2.715584             -4.021929            4.701500
| 15>   H                      1.758848             -4.116859            6.285104
| 16>   H                      3.338024             -3.374553            6.326295
| 17>   C                      2.191472             -5.128815            10.041992
| 18>   O                      1.236510             -5.513554            9.087137
| 19>   H                      1.192903             -4.907136            8.299144
| 20>   H                      2.415873             -6.001213            10.742687
| 21>   H                      3.203520             -5.021277            9.536058
| 22>   H                      2.051826             -4.189256            10.544379
| 23> *
| 24>
| 25> #Run DFT-D3 single point of the molecule with dimer basis set
| 26> $new_job
| 27> %base "4-136_DFT_A"
| 28> ! wB97X-D3 def2-TZVP TIGHTSCF CHELPG PMODEL
| 29>
| 30> %scf
| 31> MaxIter 1000
| 32> end
| 33>
| 34> * xyz 0 1
| 35>   C                      2.765020             -4.179074            5.805482
| 36>   O                      3.311683             -5.446056            6.177687
| 37>   H                      3.331339             -5.364676            7.148464
| 38>   H                      2.715584             -4.021929            4.701500
| 39>   H                      1.758848             -4.116859            6.285104
| 40>   H                      3.338024             -3.374553            6.326295
| 41>   C                    : 2.191472             -5.128815            10.041992
| 42>   O                    : 1.236510             -5.513554            9.087137
| 43>   H                    : 1.192903             -4.907136            8.299144
| 44>   H                    : 2.415873             -6.001213            10.742687
| 45>   H                    : 3.203520             -5.021277            9.536058
| 46>   H                    : 2.051826             -4.189256            10.544379
| 47> *
| 48>
| 49> #Run DFT-D3 single point of the particle with dimer basis set
| 50> $new_job
| 51> %base "4-136_DFT_B"
| 52> ! wB97X-D3 def2-TZVP TIGHTSCF CHELPG PMODEL
| 53>
| 54> %scf
| 55> MaxIter 1000
| 56> end
| 57>
| 58> * xyz 0 1
| 59>   C                    : 2.765020             -4.179074            5.805482
| 60>   O                    : 3.311683             -5.446056            6.177687
| 61>   H                    : 3.331339             -5.364676            7.148464
| 62>   H                    : 2.715584             -4.021929            4.701500
| 63>   H                    : 1.758848             -4.116859            6.285104
| 64>   H                    : 3.338024             -3.374553            6.326295
| 65>   C                      2.191472             -5.128815            10.041992
| 66>   O                      1.236510             -5.513554            9.087137
| 67>   H                      1.192903             -4.907136            8.299144
| 68>   H                      2.415873             -6.001213            10.742687
| 69>   H                      3.203520             -5.021277            9.536058
| 70>   H                      2.051826             -4.189256            10.544379
| 71> *
| 72>
| 73>                          ****END OF INPUT****
 Total Charge           Charge          ....    0
 Multiplicity           Mult            ....    1
 Number of Electrons    NEL             ....   36
Dispersion correction           -0.002007847
FINAL SINGLE POINT ENERGY      -231.460511115360
Dispersion correction           -0.000218761
FINAL SINGLE POINT ENERGY      -115.731180905060

CARTESIAN COORDINATES (ANGSTROEM)
---------------------------------
  C      2.765020   -4.179074    5.805482
  O      3.311683   -5.446056    6.177687
  H      3.331339   -5.364676    7.148464
  H      2.715584   -4.021929    4.701500
  H      1.758848   -4.116859    6.285104
  H      3.338024   -3.374553    6.326295
  C      2.191472   -5.128815   10.041992
  O      1.236510   -5.513554    9.087137
  H      1.192903   -4.907136    8.299144
  H      2.415873   -6.001213   10.742687
  H      3.203520   -5.021277    9.536058
  H      2.051826   -4.189256   10.544379

 Multiplicity           Mult            ....    1
 Number of Electrons    NEL             ....   18
 Basis Dimension        Dim             ....  172

ORBITAL ENERGIES
----------------

  NO   OCC          E(Eh)            E(eV)
   0   2.0000     -19.234909      -523.4085
   1   2.0000     -10.320134      -280.8251
   2   2.0000      -1.131311       -30.7845
   3   2.0000      -0.790677       -21.5154
   4   2.0000      -0.613743       -16.7008
   5   2.0000      -0.541202       -14.7269
   6   2.0000      -0.519992       -14.1497
   7   2.0000      -0.423414       -11.5217
   8   2.0000      -0.371850       -10.1186
   9   0.0000       0.072007         1.9594
  10   0.0000       0.137183         3.7329
  11   0.0000       0.142509         3.8779
  12   0.0000       0.167541         4.5590
  13   0.0000       0.190838         5.1930

MULLIKEN ATOMIC CHARGES
-----------------------
   0 C :   -0.001561
   1 O :    0.000358
   2 H :   -0.001715
   3 H :   -0.000191
   4 H :   -0.001747
   5 H :    0.000167
   6 C :   -0.166154
   7 O :   -0.479714
   8 H :    0.322943
   9 H :    0.124376
  10 H :    0.089355
  11 H :    0.113884
Sum of atomic charges:   -0.0000000

LOEWDIN ATOMIC CHARGES
----------------------
   0 C :   -0.003454
   1 O :   -0.000918
   2 H :   -0.005729
   3 H :   -0.000045
   4 H :   -0.003878
   5 H :   -0.000116
   6 C :   -0.405183
   7 O :   -0.079777
   8 H :    0.191104
   9 H :    0.120365
  10 H :    0.099040
  11 H :    0.088591

  Mayer bond orders larger than 0.1
B(  6-C ,  7-O ) :   1.0022 B(  6-C ,  9-H ) :   0.9685 B(  6-C , 10-H ) :   0.9789
B(  6-C , 11-H ) :   0.9695 B(  7-O ,  8-H ) :   0.8882

Dispersion correction           -0.000268272
FINAL SINGLE POINT ENERGY      -115.729235965720

DIPOLE MOMENT
-------------
                                X             Y             Z
Electronic contribution:     -1.51104      -0.50853      -1.06022
Nuclear contribution   :      1.86283       1.04296       0.92500
                        -----------------------------------------
Total Dipole Moment    :      0.35179       0.53443      -0.13522
                        -----------------------------------------
Magnitude (a.u.)       :      0.65395
Magnitude (Debye)      :      1.66222

Rotational constants in cm-1:     4.238270     0.822878     0.790635
Rotational constants in MHz : 127060.146344 24669.270936 23702.652075

                             ****ORCA TERMINATED NORMALLY****
TOTAL RUN TIME: 0 days 0 hours 1 minutes 30 seconds 827 msec
