                         Program Version 4.1.2  - RELEASE  -
|  1> #Run DFT-D3 single point of the dimer
|  2> ! wB97X-D3 def2-TZVP TIGHTSCF CHELPG PMODEL PAL8
|  3>
|  4> %base "21-32_DFT_AB"
|  5>
|  6> %scf
|  7> MaxIter 1000
|  8> end
|  9>
| 10> * xyz 0 1
| 11>   C                      2.453454             1.166860             -5.874115
| 12>   O                      3.686145             1.240109             -5.184784
| 13>   H                      3.920853             2.166736             -5.242162
| 14>   H                      1.624176             1.779049             -5.362332
| 15>   H                      2.542419             1.779453             -6.767790
| 16>   H                      2.112095             0.179773             -6.170195
| 17>   C                      -0.411546            4.687511             -8.903536
| 18>   O                      -0.678299            5.400739             -10.086564
| 19>   H                      -0.546198            4.894099             -10.882617
| 20>   H                      -0.136972            5.398320             -8.128632
| 21>   H                      -1.162960            4.005270             -8.509791
| 22>   H                      0.489109             4.041766             -8.921315
| 23> *
| 24>
| 25> #Run DFT-D3 single point of the molecule with dimer basis set
| 26> $new_job
| 27> %base "21-32_DFT_A"
| 28> ! wB97X-D3 def2-TZVP TIGHTSCF CHELPG PMODEL
| 29>
| 30> %scf
| 31> MaxIter 1000
| 32> end
| 33>
| 34> * xyz 0 1
| 35>   C                      2.453454             1.166860             -5.874115
| 36>   O                      3.686145             1.240109             -5.184784
| 37>   H                      3.920853             2.166736             -5.242162
| 38>   H                      1.624176             1.779049             -5.362332
| 39>   H                      2.542419             1.779453             -6.767790
| 40>   H                      2.112095             0.179773             -6.170195
| 41>   C                    : -0.411546            4.687511             -8.903536
| 42>   O                    : -0.678299            5.400739             -10.086564
| 43>   H                    : -0.546198            4.894099             -10.882617
| 44>   H                    : -0.136972            5.398320             -8.128632
| 45>   H                    : -1.162960            4.005270             -8.509791
| 46>   H                    : 0.489109             4.041766             -8.921315
| 47> *
| 48>
| 49> #Run DFT-D3 single point of the particle with dimer basis set
| 50> $new_job
| 51> %base "21-32_DFT_B"
| 52> ! wB97X-D3 def2-TZVP TIGHTSCF CHELPG PMODEL
| 53>
| 54> %scf
| 55> MaxIter 1000
| 56> end
| 57>
| 58> * xyz 0 1
| 59>   C                    : 2.453454             1.166860             -5.874115
| 60>   O                    : 3.686145             1.240109             -5.184784
| 61>   H                    : 3.920853             2.166736             -5.242162
| 62>   H                    : 1.624176             1.779049             -5.362332
| 63>   H                    : 2.542419             1.779453             -6.767790
| 64>   H                    : 2.112095             0.179773             -6.170195
| 65>   C                      -0.411546            4.687511             -8.903536
| 66>   O                      -0.678299            5.400739             -10.086564
| 67>   H                      -0.546198            4.894099             -10.882617
| 68>   H                      -0.136972            5.398320             -8.128632
| 69>   H                      -1.162960            4.005270             -8.509791
| 70>   H                      0.489109             4.041766             -8.921315
| 71> *
| 72>
| 73>                          ****END OF INPUT****
 Total Charge           Charge          ....    0
 Multiplicity           Mult            ....    1
 Number of Electrons    NEL             ....   36
Dispersion correction           -0.000717484
FINAL SINGLE POINT ENERGY      -231.460976191425
Dispersion correction           -0.000230652
FINAL SINGLE POINT ENERGY      -115.728320838344

CARTESIAN COORDINATES (ANGSTROEM)
---------------------------------
  C      2.453454    1.166860   -5.874115
  O      3.686145    1.240109   -5.184784
  H      3.920853    2.166736   -5.242162
  H      1.624176    1.779049   -5.362332
  H      2.542419    1.779453   -6.767790
  H      2.112095    0.179773   -6.170195
  C     -0.411546    4.687511   -8.903536
  O     -0.678299    5.400739  -10.086564
  H     -0.546198    4.894099  -10.882617
  H     -0.136972    5.398320   -8.128632
  H     -1.162960    4.005270   -8.509791
  H      0.489109    4.041766   -8.921315

 Multiplicity           Mult            ....    1
 Number of Electrons    NEL             ....   18
 Basis Dimension        Dim             ....  172

ORBITAL ENERGIES
----------------

  NO   OCC          E(Eh)            E(eV)
   0   2.0000     -19.232569      -523.3448
   1   2.0000     -10.313038      -280.6320
   2   2.0000      -1.137734       -30.9593
   3   2.0000      -0.801619       -21.8132
   4   2.0000      -0.621448       -16.9105
   5   2.0000      -0.538241       -14.6463
   6   2.0000      -0.523071       -14.2335
   7   2.0000      -0.427211       -11.6250
   8   2.0000      -0.376629       -10.2486
   9   0.0000       0.081556         2.2193
  10   0.0000       0.118294         3.2190
  11   0.0000       0.140529         3.8240
  12   0.0000       0.166232         4.5234
  13   0.0000       0.184014         5.0073

MULLIKEN ATOMIC CHARGES
-----------------------
   0 C :    0.000141
   1 O :   -0.000002
   2 H :   -0.000002
   3 H :   -0.000020
   4 H :   -0.000295
   5 H :   -0.000006
   6 C :   -0.161980
   7 O :   -0.479514
   8 H :    0.317980
   9 H :    0.121871
  10 H :    0.103844
  11 H :    0.097983
Sum of atomic charges:   -0.0000000

LOEWDIN ATOMIC CHARGES
----------------------
   0 C :   -0.000062
   1 O :   -0.000002
   2 H :   -0.000000
   3 H :   -0.000009
   4 H :   -0.000214
   5 H :   -0.000001
   6 C :   -0.397854
   7 O :   -0.063888
   8 H :    0.163924
   9 H :    0.108592
  10 H :    0.092779
  11 H :    0.096735

  Mayer bond orders larger than 0.1
B(  6-C ,  7-O ) :   1.0067 B(  6-C ,  9-H ) :   0.9754 B(  6-C , 10-H ) :   0.9664
B(  6-C , 11-H ) :   0.9778 B(  7-O ,  8-H ) :   0.8956

Dispersion correction           -0.000279661
FINAL SINGLE POINT ENERGY      -115.732575679437

DIPOLE MOMENT
-------------
                                X             Y             Z
Electronic contribution:     -0.51548       1.05218      -1.58049
Nuclear contribution   :      0.73487      -1.66769       1.52912
                        -----------------------------------------
Total Dipole Moment    :      0.21939      -0.61551      -0.05137
                        -----------------------------------------
Magnitude (a.u.)       :      0.65546
Magnitude (Debye)      :      1.66604

Rotational constants in cm-1:     4.581382     0.814967     0.790479
Rotational constants in MHz : 137346.386372 24432.102232 23697.951168

                             ****ORCA TERMINATED NORMALLY****
TOTAL RUN TIME: 0 days 0 hours 0 minutes 52 seconds 715 msec
