                         Program Version 4.1.2  - RELEASE  -
|  1> #Run DFT-D3 single point of the dimer
|  2> ! wB97X-D3 def2-TZVP TIGHTSCF CHELPG PMODEL PAL8
|  3>
|  4> %base "14-121_DFT_AB"
|  5>
|  6> %scf
|  7> MaxIter 1000
|  8> end
|  9>
| 10> * xyz 0 1
| 11>   C                      -1.362543            6.784930             3.679058
| 12>   O                      -0.219741            7.521161             3.879493
| 13>   H                      0.185538             7.018371             4.576261
| 14>   H                      -1.285645            5.847294             3.067514
| 15>   H                      -1.664286            6.494515             4.688009
| 16>   H                      -2.131244            7.378088             3.241805
| 17>   C                      -2.110928            11.390825            7.574175
| 18>   O                      -1.303257            10.316187            7.707575
| 19>   H                      -1.872668            9.562282             7.848446
| 20>   H                      -1.498166            12.268386            7.471384
| 21>   H                      -2.755923            11.272451            6.697372
| 22>   H                      -2.764465            11.399083            8.410064
| 23> *
| 24>
| 25> #Run DFT-D3 single point of the molecule with dimer basis set
| 26> $new_job
| 27> %base "14-121_DFT_A"
| 28> ! wB97X-D3 def2-TZVP TIGHTSCF CHELPG PMODEL
| 29>
| 30> %scf
| 31> MaxIter 1000
| 32> end
| 33>
| 34> * xyz 0 1
| 35>   C                      -1.362543            6.784930             3.679058
| 36>   O                      -0.219741            7.521161             3.879493
| 37>   H                      0.185538             7.018371             4.576261
| 38>   H                      -1.285645            5.847294             3.067514
| 39>   H                      -1.664286            6.494515             4.688009
| 40>   H                      -2.131244            7.378088             3.241805
| 41>   C                    : -2.110928            11.390825            7.574175
| 42>   O                    : -1.303257            10.316187            7.707575
| 43>   H                    : -1.872668            9.562282             7.848446
| 44>   H                    : -1.498166            12.268386            7.471384
| 45>   H                    : -2.755923            11.272451            6.697372
| 46>   H                    : -2.764465            11.399083            8.410064
| 47> *
| 48>
| 49> #Run DFT-D3 single point of the particle with dimer basis set
| 50> $new_job
| 51> %base "14-121_DFT_B"
| 52> ! wB97X-D3 def2-TZVP TIGHTSCF CHELPG PMODEL
| 53>
| 54> %scf
| 55> MaxIter 1000
| 56> end
| 57>
| 58> * xyz 0 1
| 59>   C                    : -1.362543            6.784930             3.679058
| 60>   O                    : -0.219741            7.521161             3.879493
| 61>   H                    : 0.185538             7.018371             4.576261
| 62>   H                    : -1.285645            5.847294             3.067514
| 63>   H                    : -1.664286            6.494515             4.688009
| 64>   H                    : -2.131244            7.378088             3.241805
| 65>   C                      -2.110928            11.390825            7.574175
| 66>   O                      -1.303257            10.316187            7.707575
| 67>   H                      -1.872668            9.562282             7.848446
| 68>   H                      -1.498166            12.268386            7.471384
| 69>   H                      -2.755923            11.272451            6.697372
| 70>   H                      -2.764465            11.399083            8.410064
| 71> *
| 72>
| 73>                          ****END OF INPUT****
 Total Charge           Charge          ....    0
 Multiplicity           Mult            ....    1
 Number of Electrons    NEL             ....   36
Dispersion correction           -0.000580828
FINAL SINGLE POINT ENERGY      -231.459059571459
Dispersion correction           -0.000207670
FINAL SINGLE POINT ENERGY      -115.728740152467

CARTESIAN COORDINATES (ANGSTROEM)
---------------------------------
  C     -1.362543    6.784930    3.679058
  O     -0.219741    7.521161    3.879493
  H      0.185538    7.018371    4.576261
  H     -1.285645    5.847294    3.067514
  H     -1.664286    6.494515    4.688009
  H     -2.131244    7.378088    3.241805
  C     -2.110928   11.390825    7.574175
  O     -1.303257   10.316187    7.707575
  H     -1.872668    9.562282    7.848446
  H     -1.498166   12.268386    7.471384
  H     -2.755923   11.272451    6.697372
  H     -2.764465   11.399083    8.410064

 Multiplicity           Mult            ....    1
 Number of Electrons    NEL             ....   18
 Basis Dimension        Dim             ....  172

ORBITAL ENERGIES
----------------

  NO   OCC          E(Eh)            E(eV)
   0   2.0000     -19.224927      -523.1369
   1   2.0000     -10.301361      -280.3143
   2   2.0000      -1.158327       -31.5197
   3   2.0000      -0.793763       -21.5994
   4   2.0000      -0.625997       -17.0342
   5   2.0000      -0.551332       -15.0025
   6   2.0000      -0.537555       -14.6276
   7   2.0000      -0.434749       -11.8301
   8   2.0000      -0.364966        -9.9312
   9   0.0000       0.086708         2.3594
  10   0.0000       0.115753         3.1498
  11   0.0000       0.162502         4.4219
  12   0.0000       0.173772         4.7286
  13   0.0000       0.196558         5.3486

MULLIKEN ATOMIC CHARGES
-----------------------
   0 C :   -0.000161
   1 O :    0.000027
   2 H :   -0.000066
   3 H :   -0.000008
   4 H :   -0.000032
   5 H :    0.000024
   6 C :   -0.139063
   7 O :   -0.462597
   8 H :    0.312284
   9 H :    0.113594
  10 H :    0.084491
  11 H :    0.091508
Sum of atomic charges:   -0.0000000

LOEWDIN ATOMIC CHARGES
----------------------
   0 C :   -0.000065
   1 O :   -0.000019
   2 H :   -0.000050
   3 H :   -0.000004
   4 H :   -0.000025
   5 H :   -0.000002
   6 C :   -0.423999
   7 O :   -0.030980
   8 H :    0.171403
   9 H :    0.106235
  10 H :    0.090970
  11 H :    0.086536

  Mayer bond orders larger than 0.1
B(  6-C ,  7-O ) :   0.9988 B(  6-C ,  9-H ) :   0.9721 B(  6-C , 10-H ) :   0.9810
B(  6-C , 11-H ) :   0.9903 B(  7-O ,  8-H ) :   0.9007

Dispersion correction           -0.000183336
FINAL SINGLE POINT ENERGY      -115.730572402783

DIPOLE MOMENT
-------------
                                X             Y             Z
Electronic contribution:      1.22540      -1.22351       0.19479
Nuclear contribution   :     -1.87422       1.13594      -0.14195
                        -----------------------------------------
Total Dipole Moment    :     -0.64882      -0.08757       0.05284
                        -----------------------------------------
Magnitude (a.u.)       :      0.65683
Magnitude (Debye)      :      1.66952

Rotational constants in cm-1:     4.303172     0.918578     0.873256
Rotational constants in MHz : 129005.848940 27538.262928 26179.566501

                             ****ORCA TERMINATED NORMALLY****
TOTAL RUN TIME: 0 days 0 hours 1 minutes 4 seconds 205 msec
