                         Program Version 4.1.2  - RELEASE  -
|  1> #Run DFT-D3 single point of the dimer
|  2> ! wB97X-D3 def2-TZVP TIGHTSCF CHELPG PMODEL PAL8
|  3>
|  4> %base "19-141_DFT_AB"
|  5>
|  6> %scf
|  7> MaxIter 1000
|  8> end
|  9>
| 10> * xyz 0 1
| 11>   C                      4.711834             -8.345417            -1.787665
| 12>   O                      4.351505             -9.380712            -2.640933
| 13>   H                      4.436691             -10.246070           -2.192788
| 14>   H                      5.247250             -7.520029            -2.200052
| 15>   H                      3.785953             -7.910492            -1.349305
| 16>   H                      5.296892             -8.815568            -0.964432
| 17>   C                      4.786815             -6.918655            -5.102293
| 18>   O                      5.975221             -6.467177            -5.763916
| 19>   H                      5.586546             -5.956710            -6.485934
| 20>   H                      3.852278             -6.570519            -5.593039
| 21>   H                      4.767182             -8.010396            -5.028749
| 22>   H                      4.846948             -6.625967            -4.050205
| 23> *
| 24>
| 25> #Run DFT-D3 single point of the molecule with dimer basis set
| 26> $new_job
| 27> %base "19-141_DFT_A"
| 28> ! wB97X-D3 def2-TZVP TIGHTSCF CHELPG PMODEL
| 29>
| 30> %scf
| 31> MaxIter 1000
| 32> end
| 33>
| 34> * xyz 0 1
| 35>   C                      4.711834             -8.345417            -1.787665
| 36>   O                      4.351505             -9.380712            -2.640933
| 37>   H                      4.436691             -10.246070           -2.192788
| 38>   H                      5.247250             -7.520029            -2.200052
| 39>   H                      3.785953             -7.910492            -1.349305
| 40>   H                      5.296892             -8.815568            -0.964432
| 41>   C                    : 4.786815             -6.918655            -5.102293
| 42>   O                    : 5.975221             -6.467177            -5.763916
| 43>   H                    : 5.586546             -5.956710            -6.485934
| 44>   H                    : 3.852278             -6.570519            -5.593039
| 45>   H                    : 4.767182             -8.010396            -5.028749
| 46>   H                    : 4.846948             -6.625967            -4.050205
| 47> *
| 48>
| 49> #Run DFT-D3 single point of the particle with dimer basis set
| 50> $new_job
| 51> %base "19-141_DFT_B"
| 52> ! wB97X-D3 def2-TZVP TIGHTSCF CHELPG PMODEL
| 53>
| 54> %scf
| 55> MaxIter 1000
| 56> end
| 57>
| 58> * xyz 0 1
| 59>   C                    : 4.711834             -8.345417            -1.787665
| 60>   O                    : 4.351505             -9.380712            -2.640933
| 61>   H                    : 4.436691             -10.246070           -2.192788
| 62>   H                    : 5.247250             -7.520029            -2.200052
| 63>   H                    : 3.785953             -7.910492            -1.349305
| 64>   H                    : 5.296892             -8.815568            -0.964432
| 65>   C                      4.786815             -6.918655            -5.102293
| 66>   O                      5.975221             -6.467177            -5.763916
| 67>   H                      5.586546             -5.956710            -6.485934
| 68>   H                      3.852278             -6.570519            -5.593039
| 69>   H                      4.767182             -8.010396            -5.028749
| 70>   H                      4.846948             -6.625967            -4.050205
| 71> *
| 72>
| 73>                          ****END OF INPUT****
 Total Charge           Charge          ....    0
 Multiplicity           Mult            ....    1
 Number of Electrons    NEL             ....   36
Dispersion correction           -0.001783894
FINAL SINGLE POINT ENERGY      -231.463215163102
Dispersion correction           -0.000234336
FINAL SINGLE POINT ENERGY      -115.730343130098

CARTESIAN COORDINATES (ANGSTROEM)
---------------------------------
  C      4.711834   -8.345417   -1.787665
  O      4.351505   -9.380712   -2.640933
  H      4.436691  -10.246070   -2.192788
  H      5.247250   -7.520029   -2.200052
  H      3.785953   -7.910492   -1.349305
  H      5.296892   -8.815568   -0.964432
  C      4.786815   -6.918655   -5.102293
  O      5.975221   -6.467177   -5.763916
  H      5.586546   -5.956710   -6.485934
  H      3.852278   -6.570519   -5.593039
  H      4.767182   -8.010396   -5.028749
  H      4.846948   -6.625967   -4.050205

 Multiplicity           Mult            ....    1
 Number of Electrons    NEL             ....   18
 Basis Dimension        Dim             ....  172

ORBITAL ENERGIES
----------------

  NO   OCC          E(Eh)            E(eV)
   0   2.0000     -19.232723      -523.3490
   1   2.0000     -10.316328      -280.7216
   2   2.0000      -1.134599       -30.8740
   3   2.0000      -0.791663       -21.5423
   4   2.0000      -0.607859       -16.5407
   5   2.0000      -0.530702       -14.4411
   6   2.0000      -0.527712       -14.3598
   7   2.0000      -0.447947       -12.1893
   8   2.0000      -0.370985       -10.0950
   9   0.0000       0.087215         2.3732
  10   0.0000       0.112721         3.0673
  11   0.0000       0.158427         4.3110
  12   0.0000       0.162102         4.4110
  13   0.0000       0.188067         5.1176

MULLIKEN ATOMIC CHARGES
-----------------------
   0 C :   -0.003830
   1 O :   -0.000242
   2 H :   -0.000065
   3 H :    0.004869
   4 H :    0.000097
   5 H :    0.000080
   6 C :   -0.191022
   7 O :   -0.456554
   8 H :    0.314807
   9 H :    0.108348
  10 H :    0.111195
  11 H :    0.112317
Sum of atomic charges:   -0.0000000

LOEWDIN ATOMIC CHARGES
----------------------
   0 C :   -0.009027
   1 O :   -0.002428
   2 H :   -0.000115
   3 H :   -0.007235
   4 H :   -0.000209
   5 H :   -0.000052
   6 C :   -0.375347
   7 O :   -0.091209
   8 H :    0.174942
   9 H :    0.100909
  10 H :    0.101672
  11 H :    0.108099

  Mayer bond orders larger than 0.1
B(  6-C ,  7-O ) :   1.0140 B(  6-C ,  9-H ) :   0.9798 B(  6-C , 10-H ) :   0.9747
B(  6-C , 11-H ) :   0.9746 B(  7-O ,  8-H ) :   0.9041

Dispersion correction           -0.000246955
FINAL SINGLE POINT ENERGY      -115.731919137925

DIPOLE MOMENT
-------------
                                X             Y             Z
Electronic contribution:      1.59222       0.56164      -0.81049
Nuclear contribution   :     -2.29531      -0.42376       0.62111
                        -----------------------------------------
Total Dipole Moment    :     -0.70309       0.13788      -0.18938
                        -----------------------------------------
Magnitude (a.u.)       :      0.74108
Magnitude (Debye)      :      1.88369

Rotational constants in cm-1:     4.187381     0.826516     0.783148
Rotational constants in MHz : 125534.515977 24778.328866 23478.171702

                             ****ORCA TERMINATED NORMALLY****
TOTAL RUN TIME: 0 days 0 hours 1 minutes 45 seconds 206 msec
