                         Program Version 4.1.2  - RELEASE  -
|  1> #Run DFT-D3 single point of the dimer
|  2> ! wB97X-D3 def2-TZVP TIGHTSCF CHELPG PMODEL PAL8
|  3>
|  4> %base "7-207_DFT_AB"
|  5>
|  6> %scf
|  7> MaxIter 1000
|  8> end
|  9>
| 10> * xyz 0 1
| 11>   C                      -8.973832            -1.725023            0.140451
| 12>   O                      -7.958306            -1.866058            1.059234
| 13>   H                      -7.846690            -2.753810            1.444923
| 14>   H                      -9.118242            -2.696230            -0.308561
| 15>   H                      -9.973470            -1.537242            0.561683
| 16>   H                      -8.764028            -1.059650            -0.696033
| 17>   C                      -8.587811            -5.711729            1.015743
| 18>   O                      -8.651256            -4.413905            1.663705
| 19>   H                      -9.360045            -4.427384            2.373298
| 20>   H                      -8.050251            -6.443600            1.630989
| 21>   H                      -9.606779            -6.084682            0.823730
| 22>   H                      -8.036534            -5.691645            0.135173
| 23> *
| 24>
| 25> #Run DFT-D3 single point of the molecule with dimer basis set
| 26> $new_job
| 27> %base "7-207_DFT_A"
| 28> ! wB97X-D3 def2-TZVP TIGHTSCF CHELPG PMODEL
| 29>
| 30> %scf
| 31> MaxIter 1000
| 32> end
| 33>
| 34> * xyz 0 1
| 35>   C                      -8.973832            -1.725023            0.140451
| 36>   O                      -7.958306            -1.866058            1.059234
| 37>   H                      -7.846690            -2.753810            1.444923
| 38>   H                      -9.118242            -2.696230            -0.308561
| 39>   H                      -9.973470            -1.537242            0.561683
| 40>   H                      -8.764028            -1.059650            -0.696033
| 41>   C                    : -8.587811            -5.711729            1.015743
| 42>   O                    : -8.651256            -4.413905            1.663705
| 43>   H                    : -9.360045            -4.427384            2.373298
| 44>   H                    : -8.050251            -6.443600            1.630989
| 45>   H                    : -9.606779            -6.084682            0.823730
| 46>   H                    : -8.036534            -5.691645            0.135173
| 47> *
| 48>
| 49> #Run DFT-D3 single point of the particle with dimer basis set
| 50> $new_job
| 51> %base "7-207_DFT_B"
| 52> ! wB97X-D3 def2-TZVP TIGHTSCF CHELPG PMODEL
| 53>
| 54> %scf
| 55> MaxIter 1000
| 56> end
| 57>
| 58> * xyz 0 1
| 59>   C                    : -8.973832            -1.725023            0.140451
| 60>   O                    : -7.958306            -1.866058            1.059234
| 61>   H                    : -7.846690            -2.753810            1.444923
| 62>   H                    : -9.118242            -2.696230            -0.308561
| 63>   H                    : -9.973470            -1.537242            0.561683
| 64>   H                    : -8.764028            -1.059650            -0.696033
| 65>   C                      -8.587811            -5.711729            1.015743
| 66>   O                      -8.651256            -4.413905            1.663705
| 67>   H                      -9.360045            -4.427384            2.373298
| 68>   H                      -8.050251            -6.443600            1.630989
| 69>   H                      -9.606779            -6.084682            0.823730
| 70>   H                      -8.036534            -5.691645            0.135173
| 71> *
| 72>
| 73>                          ****END OF INPUT****
 Total Charge           Charge          ....    0
 Multiplicity           Mult            ....    1
 Number of Electrons    NEL             ....   36
Dispersion correction           -0.002047045
FINAL SINGLE POINT ENERGY      -231.468033338669
Dispersion correction           -0.000243590
FINAL SINGLE POINT ENERGY      -115.729148714840

CARTESIAN COORDINATES (ANGSTROEM)
---------------------------------
  C     -8.973832   -1.725023    0.140451
  O     -7.958306   -1.866058    1.059234
  H     -7.846690   -2.753810    1.444923
  H     -9.118242   -2.696230   -0.308561
  H     -9.973470   -1.537242    0.561683
  H     -8.764028   -1.059650   -0.696033
  C     -8.587811   -5.711729    1.015743
  O     -8.651256   -4.413905    1.663705
  H     -9.360045   -4.427384    2.373298
  H     -8.050251   -6.443600    1.630989
  H     -9.606779   -6.084682    0.823730
  H     -8.036534   -5.691645    0.135173

 Multiplicity           Mult            ....    1
 Number of Electrons    NEL             ....   18
 Basis Dimension        Dim             ....  172

ORBITAL ENERGIES
----------------

  NO   OCC          E(Eh)            E(eV)
   0   2.0000     -19.233758      -523.3772
   1   2.0000     -10.312208      -280.6095
   2   2.0000      -1.116043       -30.3691
   3   2.0000      -0.799876       -21.7657
   4   2.0000      -0.597834       -16.2679
   5   2.0000      -0.538901       -14.6642
   6   2.0000      -0.529852       -14.4180
   7   2.0000      -0.433583       -11.7984
   8   2.0000      -0.372931       -10.1480
   9   0.0000       0.095710         2.6044
  10   0.0000       0.129945         3.5360
  11   0.0000       0.148041         4.0284
  12   0.0000       0.189896         5.1673
  13   0.0000       0.204105         5.5540

MULLIKEN ATOMIC CHARGES
-----------------------
   0 C :    0.003637
   1 O :    0.003236
   2 H :   -0.011861
   3 H :   -0.006801
   4 H :   -0.002305
   5 H :   -0.000794
   6 C :   -0.158848
   7 O :   -0.480937
   8 H :    0.317727
   9 H :    0.104329
  10 H :    0.103595
  11 H :    0.129020
Sum of atomic charges:   -0.0000000

LOEWDIN ATOMIC CHARGES
----------------------
   0 C :   -0.014290
   1 O :   -0.008534
   2 H :   -0.048135
   3 H :   -0.006324
   4 H :   -0.001035
   5 H :   -0.000216
   6 C :   -0.350197
   7 O :   -0.056962
   8 H :    0.191646
   9 H :    0.098109
  10 H :    0.100324
  11 H :    0.095613

  Mayer bond orders larger than 0.1
B(  6-C ,  7-O ) :   0.9861 B(  6-C ,  9-H ) :   0.9722 B(  6-C , 10-H ) :   0.9788
B(  6-C , 11-H ) :   0.9770 B(  7-O ,  8-H ) :   0.8904

Dispersion correction           -0.000260540
FINAL SINGLE POINT ENERGY      -115.731453629499

DIPOLE MOMENT
-------------
                                X             Y             Z
Electronic contribution:      0.05532       1.68743       0.62402
Nuclear contribution   :     -0.45729      -2.25861      -0.47147
                        -----------------------------------------
Total Dipole Moment    :     -0.40197      -0.57118       0.15255
                        -----------------------------------------
Magnitude (a.u.)       :      0.71491
Magnitude (Debye)      :      1.81716

Rotational constants in cm-1:     4.350946     0.792759     0.764196
Rotational constants in MHz : 130438.093396 23766.310732 22910.020856

                             ****ORCA TERMINATED NORMALLY****
TOTAL RUN TIME: 0 days 0 hours 1 minutes 8 seconds 567 msec
