                         Program Version 4.1.2  - RELEASE  -
|  1> #Run DFT-D3 single point of the dimer
|  2> ! wB97X-D3 def2-TZVP TIGHTSCF CHELPG PMODEL PAL8
|  3>
|  4> %base "13-157_DFT_AB"
|  5>
|  6> %scf
|  7> MaxIter 1000
|  8> end
|  9>
| 10> * xyz 0 1
| 11>   C                      0.030164             -4.047049            -2.629038
| 12>   O                      -1.138071            -4.695708            -3.059685
| 13>   H                      -0.944249            -5.458277            -3.624393
| 14>   H                      0.284661             -4.359550            -1.576838
| 15>   H                      0.878129             -4.316467            -3.321165
| 16>   H                      -0.148044            -2.943190            -2.634008
| 17>   C                      0.843463             -7.556602            -5.269930
| 18>   O                      -0.109867            -6.530455            -4.969174
| 19>   H                      -0.426746            -6.366069            -5.815214
| 20>   H                      1.214126             -7.455543            -6.328356
| 21>   H                      1.683593             -7.813830            -4.603900
| 22>   H                      0.279311             -8.509770            -5.307224
| 23> *
| 24>
| 25> #Run DFT-D3 single point of the molecule with dimer basis set
| 26> $new_job
| 27> %base "13-157_DFT_A"
| 28> ! wB97X-D3 def2-TZVP TIGHTSCF CHELPG PMODEL
| 29>
| 30> %scf
| 31> MaxIter 1000
| 32> end
| 33>
| 34> * xyz 0 1
| 35>   C                      0.030164             -4.047049            -2.629038
| 36>   O                      -1.138071            -4.695708            -3.059685
| 37>   H                      -0.944249            -5.458277            -3.624393
| 38>   H                      0.284661             -4.359550            -1.576838
| 39>   H                      0.878129             -4.316467            -3.321165
| 40>   H                      -0.148044            -2.943190            -2.634008
| 41>   C                    : 0.843463             -7.556602            -5.269930
| 42>   O                    : -0.109867            -6.530455            -4.969174
| 43>   H                    : -0.426746            -6.366069            -5.815214
| 44>   H                    : 1.214126             -7.455543            -6.328356
| 45>   H                    : 1.683593             -7.813830            -4.603900
| 46>   H                    : 0.279311             -8.509770            -5.307224
| 47> *
| 48>
| 49> #Run DFT-D3 single point of the particle with dimer basis set
| 50> $new_job
| 51> %base "13-157_DFT_B"
| 52> ! wB97X-D3 def2-TZVP TIGHTSCF CHELPG PMODEL
| 53>
| 54> %scf
| 55> MaxIter 1000
| 56> end
| 57>
| 58> * xyz 0 1
| 59>   C                    : 0.030164             -4.047049            -2.629038
| 60>   O                    : -1.138071            -4.695708            -3.059685
| 61>   H                    : -0.944249            -5.458277            -3.624393
| 62>   H                    : 0.284661             -4.359550            -1.576838
| 63>   H                    : 0.878129             -4.316467            -3.321165
| 64>   H                    : -0.148044            -2.943190            -2.634008
| 65>   C                      0.843463             -7.556602            -5.269930
| 66>   O                      -0.109867            -6.530455            -4.969174
| 67>   H                      -0.426746            -6.366069            -5.815214
| 68>   H                      1.214126             -7.455543            -6.328356
| 69>   H                      1.683593             -7.813830            -4.603900
| 70>   H                      0.279311             -8.509770            -5.307224
| 71> *
| 72>
| 73>                          ****END OF INPUT****
 Total Charge           Charge          ....    0
 Multiplicity           Mult            ....    1
 Number of Electrons    NEL             ....   36
Dispersion correction           -0.001670663
FINAL SINGLE POINT ENERGY      -231.465879640204
Dispersion correction           -0.000253478
FINAL SINGLE POINT ENERGY      -115.734187808613

CARTESIAN COORDINATES (ANGSTROEM)
---------------------------------
  C      0.030164   -4.047049   -2.629038
  O     -1.138071   -4.695708   -3.059685
  H     -0.944249   -5.458277   -3.624393
  H      0.284661   -4.359550   -1.576838
  H      0.878129   -4.316467   -3.321165
  H     -0.148044   -2.943190   -2.634008
  C      0.843463   -7.556602   -5.269930
  O     -0.109867   -6.530455   -4.969174
  H     -0.426746   -6.366069   -5.815214
  H      1.214126   -7.455543   -6.328356
  H      1.683593   -7.813830   -4.603900
  H      0.279311   -8.509770   -5.307224

 Multiplicity           Mult            ....    1
 Number of Electrons    NEL             ....   18
 Basis Dimension        Dim             ....  172

ORBITAL ENERGIES
----------------

  NO   OCC          E(Eh)            E(eV)
   0   2.0000     -19.232974      -523.3558
   1   2.0000     -10.322743      -280.8961
   2   2.0000      -1.148775       -31.2597
   3   2.0000      -0.794656       -21.6237
   4   2.0000      -0.613170       -16.6852
   5   2.0000      -0.537935       -14.6380
   6   2.0000      -0.529907       -14.4195
   7   2.0000      -0.445343       -12.1184
   8   2.0000      -0.372357       -10.1324
   9   0.0000       0.101823         2.7708
  10   0.0000       0.123221         3.3530
  11   0.0000       0.149797         4.0762
  12   0.0000       0.189629         5.1601
  13   0.0000       0.201564         5.4848

MULLIKEN ATOMIC CHARGES
-----------------------
   0 C :    0.004381
   1 O :    0.001371
   2 H :   -0.013869
   3 H :   -0.000396
   4 H :   -0.005883
   5 H :   -0.000151
   6 C :   -0.201875
   7 O :   -0.433389
   8 H :    0.308370
   9 H :    0.103352
  10 H :    0.130690
  11 H :    0.107399
Sum of atomic charges:   -0.0000000

LOEWDIN ATOMIC CHARGES
----------------------
   0 C :   -0.005229
   1 O :   -0.005296
   2 H :   -0.043124
   3 H :   -0.000064
   4 H :   -0.003940
   5 H :   -0.000039
   6 C :   -0.383220
   7 O :   -0.019084
   8 H :    0.148328
   9 H :    0.103150
  10 H :    0.109368
  11 H :    0.099148

  Mayer bond orders larger than 0.1
B(  6-C ,  7-O ) :   0.9850 B(  6-C ,  9-H ) :   0.9808 B(  6-C , 10-H ) :   0.9698
B(  6-C , 11-H ) :   0.9789 B(  7-O ,  8-H ) :   0.9072

Dispersion correction           -0.000238284
FINAL SINGLE POINT ENERGY      -115.723574810392

DIPOLE MOMENT
-------------
                                X             Y             Z
Electronic contribution:     -1.09313       1.52538       0.70173
Nuclear contribution   :      1.26816      -1.84862      -1.36047
                        -----------------------------------------
Total Dipole Moment    :      0.17503      -0.32324      -0.65874
                        -----------------------------------------
Magnitude (a.u.)       :      0.75436
Magnitude (Debye)      :      1.91742

Rotational constants in cm-1:     4.359261     0.814757     0.778483
Rotational constants in MHz : 130687.350646 24425.796687 23338.329845

                             ****ORCA TERMINATED NORMALLY****
TOTAL RUN TIME: 0 days 0 hours 1 minutes 11 seconds 831 msec
