                         Program Version 4.1.2  - RELEASE  -
|  1> #Run DFT-D3 single point of the dimer
|  2> ! wB97X-D3 def2-TZVP TIGHTSCF CHELPG PMODEL PAL8
|  3>
|  4> %base "16-37_DFT_AB"
|  5>
|  6> %scf
|  7> MaxIter 1000
|  8> end
|  9>
| 10> * xyz 0 1
| 11>   C                      -9.948473            -1.812941            5.438624
| 12>   O                      -9.656483            -1.904055            6.869065
| 13>   H                      -8.898172            -2.436655            7.042660
| 14>   H                      -10.795136           -1.169837            5.194730
| 15>   H                      -9.039130            -1.454169            4.871001
| 16>   H                      -10.203844           -2.769139            4.921275
| 17>   C                      -5.978860            -3.940260            4.967243
| 18>   O                      -7.132571            -3.093609            4.715674
| 19>   H                      -7.114231            -2.576531            5.535234
| 20>   H                      -5.113311            -3.279099            5.162427
| 21>   H                      -6.074069            -4.632805            5.762767
| 22>   H                      -5.784888            -4.569163            4.084840
| 23> *
| 24>
| 25> #Run DFT-D3 single point of the molecule with dimer basis set
| 26> $new_job
| 27> %base "16-37_DFT_A"
| 28> ! wB97X-D3 def2-TZVP TIGHTSCF CHELPG PMODEL
| 29>
| 30> %scf
| 31> MaxIter 1000
| 32> end
| 33>
| 34> * xyz 0 1
| 35>   C                      -9.948473            -1.812941            5.438624
| 36>   O                      -9.656483            -1.904055            6.869065
| 37>   H                      -8.898172            -2.436655            7.042660
| 38>   H                      -10.795136           -1.169837            5.194730
| 39>   H                      -9.039130            -1.454169            4.871001
| 40>   H                      -10.203844           -2.769139            4.921275
| 41>   C                    : -5.978860            -3.940260            4.967243
| 42>   O                    : -7.132571            -3.093609            4.715674
| 43>   H                    : -7.114231            -2.576531            5.535234
| 44>   H                    : -5.113311            -3.279099            5.162427
| 45>   H                    : -6.074069            -4.632805            5.762767
| 46>   H                    : -5.784888            -4.569163            4.084840
| 47> *
| 48>
| 49> #Run DFT-D3 single point of the particle with dimer basis set
| 50> $new_job
| 51> %base "16-37_DFT_B"
| 52> ! wB97X-D3 def2-TZVP TIGHTSCF CHELPG PMODEL
| 53>
| 54> %scf
| 55> MaxIter 1000
| 56> end
| 57>
| 58> * xyz 0 1
| 59>   C                    : -9.948473            -1.812941            5.438624
| 60>   O                    : -9.656483            -1.904055            6.869065
| 61>   H                    : -8.898172            -2.436655            7.042660
| 62>   H                    : -10.795136           -1.169837            5.194730
| 63>   H                    : -9.039130            -1.454169            4.871001
| 64>   H                    : -10.203844           -2.769139            4.921275
| 65>   C                      -5.978860            -3.940260            4.967243
| 66>   O                      -7.132571            -3.093609            4.715674
| 67>   H                      -7.114231            -2.576531            5.535234
| 68>   H                      -5.113311            -3.279099            5.162427
| 69>   H                      -6.074069            -4.632805            5.762767
| 70>   H                      -5.784888            -4.569163            4.084840
| 71> *
| 72>
| 73>                          ****END OF INPUT****
 Total Charge           Charge          ....    0
 Multiplicity           Mult            ....    1
 Number of Electrons    NEL             ....   36
Dispersion correction           -0.001874409
FINAL SINGLE POINT ENERGY      -231.462649942746
Dispersion correction           -0.000296861
FINAL SINGLE POINT ENERGY      -115.730507350971

CARTESIAN COORDINATES (ANGSTROEM)
---------------------------------
  C     -9.948473   -1.812941    5.438624
  O     -9.656483   -1.904055    6.869065
  H     -8.898172   -2.436655    7.042660
  H    -10.795136   -1.169837    5.194730
  H     -9.039130   -1.454169    4.871001
  H    -10.203844   -2.769139    4.921275
  C     -5.978860   -3.940260    4.967243
  O     -7.132571   -3.093609    4.715674
  H     -7.114231   -2.576531    5.535234
  H     -5.113311   -3.279099    5.162427
  H     -6.074069   -4.632805    5.762767
  H     -5.784888   -4.569163    4.084840

 Multiplicity           Mult            ....    1
 Number of Electrons    NEL             ....   18
 Basis Dimension        Dim             ....  172

ORBITAL ENERGIES
----------------

  NO   OCC          E(Eh)            E(eV)
   0   2.0000     -19.235830      -523.4335
   1   2.0000     -10.315459      -280.6979
   2   2.0000      -1.130389       -30.7594
   3   2.0000      -0.795662       -21.6511
   4   2.0000      -0.602735       -16.4013
   5   2.0000      -0.545419       -14.8416
   6   2.0000      -0.517809       -14.0903
   7   2.0000      -0.446598       -12.1526
   8   2.0000      -0.377901       -10.2832
   9   0.0000       0.085995         2.3401
  10   0.0000       0.127814         3.4780
  11   0.0000       0.156363         4.2549
  12   0.0000       0.170885         4.6500
  13   0.0000       0.195634         5.3235

MULLIKEN ATOMIC CHARGES
-----------------------
   0 C :   -0.000112
   1 O :    0.000878
   2 H :   -0.004887
   3 H :   -0.000621
   4 H :   -0.005016
   5 H :   -0.002434
   6 C :   -0.196365
   7 O :   -0.451577
   8 H :    0.317315
   9 H :    0.108184
  10 H :    0.111768
  11 H :    0.122866
Sum of atomic charges:    0.0000000

LOEWDIN ATOMIC CHARGES
----------------------
   0 C :   -0.012423
   1 O :   -0.000741
   2 H :   -0.004504
   3 H :   -0.000128
   4 H :   -0.007331
   5 H :   -0.002314
   6 C :   -0.363365
   7 O :   -0.087443
   8 H :    0.179852
   9 H :    0.100452
  10 H :    0.086955
  11 H :    0.110989

  Mayer bond orders larger than 0.1
B(  6-C ,  7-O ) :   1.0001 B(  6-C ,  9-H ) :   0.9841 B(  6-C , 10-H ) :   0.9647
B(  6-C , 11-H ) :   0.9764 B(  7-O ,  8-H ) :   0.8993

Dispersion correction           -0.000232128
FINAL SINGLE POINT ENERGY      -115.732380841703

DIPOLE MOMENT
-------------
                                X             Y             Z
Electronic contribution:     -1.52496       0.95174      -0.43533
Nuclear contribution   :      2.01304      -1.00358       1.02385
                        -----------------------------------------
Total Dipole Moment    :      0.48808      -0.05185       0.58852
                        -----------------------------------------
Magnitude (a.u.)       :      0.76634
Magnitude (Debye)      :      1.94787

Rotational constants in cm-1:     4.244812     0.806607     0.773050
Rotational constants in MHz : 127256.248011 24181.468576 23175.462568

                             ****ORCA TERMINATED NORMALLY****
TOTAL RUN TIME: 0 days 0 hours 1 minutes 5 seconds 222 msec
