                         Program Version 4.1.2  - RELEASE  -
|  1> #Run DFT-D3 single point of the dimer
|  2> ! wB97X-D3 def2-TZVP TIGHTSCF CHELPG PMODEL PAL8
|  3>
|  4> %base "22-167_DFT_AB"
|  5>
|  6> %scf
|  7> MaxIter 1000
|  8> end
|  9>
| 10> * xyz 0 1
| 11>   C                      -3.031453            -8.230321            9.453541
| 12>   O                      -2.800068            -6.911817            8.896784
| 13>   H                      -2.274891            -6.502026            9.650505
| 14>   H                      -3.671579            -8.226209            10.428590
| 15>   H                      -3.573674            -8.815508            8.708564
| 16>   H                      -2.044238            -8.683523            9.744940
| 17>   C                      1.275221             -6.355841            8.572647
| 18>   O                      0.369848             -6.012530            7.583084
| 19>   H                      -0.558603            -6.118223            7.924945
| 20>   H                      0.865770             -6.230336            9.614596
| 21>   H                      1.442478             -7.496958            8.504093
| 22>   H                      2.202625             -5.742370            8.426494
| 23> *
| 24>
| 25> #Run DFT-D3 single point of the molecule with dimer basis set
| 26> $new_job
| 27> %base "22-167_DFT_A"
| 28> ! wB97X-D3 def2-TZVP TIGHTSCF CHELPG PMODEL
| 29>
| 30> %scf
| 31> MaxIter 1000
| 32> end
| 33>
| 34> * xyz 0 1
| 35>   C                      -3.031453            -8.230321            9.453541
| 36>   O                      -2.800068            -6.911817            8.896784
| 37>   H                      -2.274891            -6.502026            9.650505
| 38>   H                      -3.671579            -8.226209            10.428590
| 39>   H                      -3.573674            -8.815508            8.708564
| 40>   H                      -2.044238            -8.683523            9.744940
| 41>   C                    : 1.275221             -6.355841            8.572647
| 42>   O                    : 0.369848             -6.012530            7.583084
| 43>   H                    : -0.558603            -6.118223            7.924945
| 44>   H                    : 0.865770             -6.230336            9.614596
| 45>   H                    : 1.442478             -7.496958            8.504093
| 46>   H                    : 2.202625             -5.742370            8.426494
| 47> *
| 48>
| 49> #Run DFT-D3 single point of the particle with dimer basis set
| 50> $new_job
| 51> %base "22-167_DFT_B"
| 52> ! wB97X-D3 def2-TZVP TIGHTSCF CHELPG PMODEL
| 53>
| 54> %scf
| 55> MaxIter 1000
| 56> end
| 57>
| 58> * xyz 0 1
| 59>   C                    : -3.031453            -8.230321            9.453541
| 60>   O                    : -2.800068            -6.911817            8.896784
| 61>   H                    : -2.274891            -6.502026            9.650505
| 62>   H                    : -3.671579            -8.226209            10.428590
| 63>   H                    : -3.573674            -8.815508            8.708564
| 64>   H                    : -2.044238            -8.683523            9.744940
| 65>   C                      1.275221             -6.355841            8.572647
| 66>   O                      0.369848             -6.012530            7.583084
| 67>   H                      -0.558603            -6.118223            7.924945
| 68>   H                      0.865770             -6.230336            9.614596
| 69>   H                      1.442478             -7.496958            8.504093
| 70>   H                      2.202625             -5.742370            8.426494
| 71> *
| 72>
| 73>                          ****END OF INPUT****
 Total Charge           Charge          ....    0
 Multiplicity           Mult            ....    1
 Number of Electrons    NEL             ....   36
Dispersion correction           -0.001576748
FINAL SINGLE POINT ENERGY      -231.462268784880
Dispersion correction           -0.000251639
FINAL SINGLE POINT ENERGY      -115.729477793813

CARTESIAN COORDINATES (ANGSTROEM)
---------------------------------
  C     -3.031453   -8.230321    9.453541
  O     -2.800068   -6.911817    8.896784
  H     -2.274891   -6.502026    9.650505
  H     -3.671579   -8.226209   10.428590
  H     -3.573674   -8.815508    8.708564
  H     -2.044238   -8.683523    9.744940
  C      1.275221   -6.355841    8.572647
  O      0.369848   -6.012530    7.583084
  H     -0.558603   -6.118223    7.924945
  H      0.865770   -6.230336    9.614596
  H      1.442478   -7.496958    8.504093
  H      2.202625   -5.742370    8.426494

 Multiplicity           Mult            ....    1
 Number of Electrons    NEL             ....   18
 Basis Dimension        Dim             ....  172

ORBITAL ENERGIES
----------------

  NO   OCC          E(Eh)            E(eV)
   0   2.0000     -19.232418      -523.3407
   1   2.0000     -10.323141      -280.9069
   2   2.0000      -1.139387       -31.0043
   3   2.0000      -0.781840       -21.2750
   4   2.0000      -0.613576       -16.6963
   5   2.0000      -0.540081       -14.6963
   6   2.0000      -0.521331       -14.1861
   7   2.0000      -0.430537       -11.7155
   8   2.0000      -0.365543        -9.9469
   9   0.0000       0.066540         1.8106
  10   0.0000       0.122170         3.3244
  11   0.0000       0.144646         3.9360
  12   0.0000       0.170829         4.6485
  13   0.0000       0.193220         5.2578

MULLIKEN ATOMIC CHARGES
-----------------------
   0 C :   -0.000743
   1 O :   -0.000249
   2 H :   -0.001101
   3 H :   -0.000014
   4 H :    0.000097
   5 H :    0.000085
   6 C :   -0.163240
   7 O :   -0.466945
   8 H :    0.318529
   9 H :    0.099757
  10 H :    0.092087
  11 H :    0.121737
Sum of atomic charges:    0.0000000

LOEWDIN ATOMIC CHARGES
----------------------
   0 C :   -0.000754
   1 O :   -0.003578
   2 H :   -0.001952
   3 H :   -0.000015
   4 H :   -0.000006
   5 H :   -0.000082
   6 C :   -0.423514
   7 O :   -0.072500
   8 H :    0.191889
   9 H :    0.096676
  10 H :    0.101757
  11 H :    0.112079

  Mayer bond orders larger than 0.1
B(  6-C ,  7-O ) :   0.9962 B(  6-C ,  9-H ) :   0.9758 B(  6-C , 10-H ) :   0.9741
B(  6-C , 11-H ) :   0.9695 B(  7-O ,  8-H ) :   0.8958

Dispersion correction           -0.000245803
FINAL SINGLE POINT ENERGY      -115.729683668014

DIPOLE MOMENT
-------------
                                X             Y             Z
Electronic contribution:     -1.02210       0.61341      -1.40600
Nuclear contribution   :      0.74829      -0.77560       1.99405
                        -----------------------------------------
Total Dipole Moment    :     -0.27380      -0.16219       0.58805
                        -----------------------------------------
Magnitude (a.u.)       :      0.66864
Magnitude (Debye)      :      1.69954

Rotational constants in cm-1:     3.956377     0.855843     0.819700
Rotational constants in MHz : 118609.188626 25657.526845 24573.980665

                             ****ORCA TERMINATED NORMALLY****
TOTAL RUN TIME: 0 days 0 hours 1 minutes 0 seconds 351 msec
