                         Program Version 4.1.2  - RELEASE  -
|  1> #Run DFT-D3 single point of the dimer
|  2> ! wB97X-D3 def2-TZVP TIGHTSCF CHELPG PMODEL PAL8
|  3>
|  4> %base "4-138_DFT_AB"
|  5>
|  6> %scf
|  7> MaxIter 1000
|  8> end
|  9>
| 10> * xyz 0 1
| 11>   C                      2.765020             -4.179074            5.805482
| 12>   O                      3.311683             -5.446056            6.177687
| 13>   H                      3.331339             -5.364676            7.148464
| 14>   H                      2.715584             -4.021929            4.701500
| 15>   H                      1.758848             -4.116859            6.285104
| 16>   H                      3.338024             -3.374553            6.326295
| 17>   C                      3.173159             -1.743620            8.397858
| 18>   O                      3.518137             -2.253465            9.656749
| 19>   H                      4.315731             -1.825932            9.945359
| 20>   H                      2.834744             -0.727385            8.399304
| 21>   H                      3.936698             -1.861847            7.610112
| 22>   H                      2.238054             -2.298112            8.161534
| 23> *
| 24>
| 25> #Run DFT-D3 single point of the molecule with dimer basis set
| 26> $new_job
| 27> %base "4-138_DFT_A"
| 28> ! wB97X-D3 def2-TZVP TIGHTSCF CHELPG PMODEL
| 29>
| 30> %scf
| 31> MaxIter 1000
| 32> end
| 33>
| 34> * xyz 0 1
| 35>   C                      2.765020             -4.179074            5.805482
| 36>   O                      3.311683             -5.446056            6.177687
| 37>   H                      3.331339             -5.364676            7.148464
| 38>   H                      2.715584             -4.021929            4.701500
| 39>   H                      1.758848             -4.116859            6.285104
| 40>   H                      3.338024             -3.374553            6.326295
| 41>   C                    : 3.173159             -1.743620            8.397858
| 42>   O                    : 3.518137             -2.253465            9.656749
| 43>   H                    : 4.315731             -1.825932            9.945359
| 44>   H                    : 2.834744             -0.727385            8.399304
| 45>   H                    : 3.936698             -1.861847            7.610112
| 46>   H                    : 2.238054             -2.298112            8.161534
| 47> *
| 48>
| 49> #Run DFT-D3 single point of the particle with dimer basis set
| 50> $new_job
| 51> %base "4-138_DFT_B"
| 52> ! wB97X-D3 def2-TZVP TIGHTSCF CHELPG PMODEL
| 53>
| 54> %scf
| 55> MaxIter 1000
| 56> end
| 57>
| 58> * xyz 0 1
| 59>   C                    : 2.765020             -4.179074            5.805482
| 60>   O                    : 3.311683             -5.446056            6.177687
| 61>   H                    : 3.331339             -5.364676            7.148464
| 62>   H                    : 2.715584             -4.021929            4.701500
| 63>   H                    : 1.758848             -4.116859            6.285104
| 64>   H                    : 3.338024             -3.374553            6.326295
| 65>   C                      3.173159             -1.743620            8.397858
| 66>   O                      3.518137             -2.253465            9.656749
| 67>   H                      4.315731             -1.825932            9.945359
| 68>   H                      2.834744             -0.727385            8.399304
| 69>   H                      3.936698             -1.861847            7.610112
| 70>   H                      2.238054             -2.298112            8.161534
| 71> *
| 72>
| 73>                          ****END OF INPUT****
 Total Charge           Charge          ....    0
 Multiplicity           Mult            ....    1
 Number of Electrons    NEL             ....   36
Dispersion correction           -0.001730076
FINAL SINGLE POINT ENERGY      -231.465491848969
Dispersion correction           -0.000218761
FINAL SINGLE POINT ENERGY      -115.730975216096

CARTESIAN COORDINATES (ANGSTROEM)
---------------------------------
  C      2.765020   -4.179074    5.805482
  O      3.311683   -5.446056    6.177687
  H      3.331339   -5.364676    7.148464
  H      2.715584   -4.021929    4.701500
  H      1.758848   -4.116859    6.285104
  H      3.338024   -3.374553    6.326295
  C      3.173159   -1.743620    8.397858
  O      3.518137   -2.253465    9.656749
  H      4.315731   -1.825932    9.945359
  H      2.834744   -0.727385    8.399304
  H      3.936698   -1.861847    7.610112
  H      2.238054   -2.298112    8.161534

 Multiplicity           Mult            ....    1
 Number of Electrons    NEL             ....   18
 Basis Dimension        Dim             ....  172

ORBITAL ENERGIES
----------------

  NO   OCC          E(Eh)            E(eV)
   0   2.0000     -19.231466      -523.3148
   1   2.0000     -10.311060      -280.5782
   2   2.0000      -1.142950       -31.1013
   3   2.0000      -0.796559       -21.6755
   4   2.0000      -0.617552       -16.8045
   5   2.0000      -0.545497       -14.8437
   6   2.0000      -0.519830       -14.1453
   7   2.0000      -0.433171       -11.7872
   8   2.0000      -0.376403       -10.2424
   9   0.0000       0.092357         2.5132
  10   0.0000       0.120709         3.2846
  11   0.0000       0.158738         4.3195
  12   0.0000       0.170822         4.6483
  13   0.0000       0.177608         4.8330

MULLIKEN ATOMIC CHARGES
-----------------------
   0 C :    0.000469
   1 O :   -0.000017
   2 H :    0.000067
   3 H :   -0.000065
   4 H :   -0.000631
   5 H :   -0.002189
   6 C :   -0.150228
   7 O :   -0.465099
   8 H :    0.310181
   9 H :    0.100496
  10 H :    0.094510
  11 H :    0.112506
Sum of atomic charges:    0.0000000

LOEWDIN ATOMIC CHARGES
----------------------
   0 C :   -0.007723
   1 O :   -0.000018
   2 H :   -0.000210
   3 H :   -0.000035
   4 H :   -0.002017
   5 H :   -0.013419
   6 C :   -0.389430
   7 O :   -0.057502
   8 H :    0.161059
   9 H :    0.088094
  10 H :    0.100384
  11 H :    0.120818

  Mayer bond orders larger than 0.1
B(  6-C ,  7-O ) :   1.0088 B(  6-C ,  9-H ) :   0.9657 B(  6-C , 10-H ) :   0.9728
B(  6-C , 11-H ) :   0.9783 B(  7-O ,  8-H ) :   0.9023

Dispersion correction           -0.000245982
FINAL SINGLE POINT ENERGY      -115.734445462570

DIPOLE MOMENT
-------------
                                X             Y             Z
Electronic contribution:      0.48620      -0.68478       1.63432
Nuclear contribution   :     -0.12535       1.16566      -1.91934
                        -----------------------------------------
Total Dipole Moment    :      0.36085       0.48088      -0.28502
                        -----------------------------------------
Magnitude (a.u.)       :      0.66535
Magnitude (Debye)      :      1.69119

Rotational constants in cm-1:     4.334171     0.844338     0.810713
Rotational constants in MHz : 129935.166286 25312.610765 24304.563428

                             ****ORCA TERMINATED NORMALLY****
TOTAL RUN TIME: 0 days 0 hours 1 minutes 27 seconds 380 msec
