                         Program Version 4.1.2  - RELEASE  -
|  1> #Run DFT-D3 single point of the dimer
|  2> ! wB97X-D3 def2-TZVP TIGHTSCF CHELPG PMODEL PAL8
|  3>
|  4> %base "22-175_DFT_AB"
|  5>
|  6> %scf
|  7> MaxIter 1000
|  8> end
|  9>
| 10> * xyz 0 1
| 11>   C                      -2.949935            9.302881             7.250377
| 12>   O                      -3.854951            8.679741             8.209806
| 13>   H                      -3.999120            7.738122             7.973193
| 14>   H                      -1.951529            9.062261             7.474002
| 15>   H                      -3.203255            8.897659             6.218874
| 16>   H                      -2.932842            10.382185            7.384572
| 17>   C                      -8.002906            7.307472             7.542758
| 18>   O                      -7.382870            8.310617             8.249589
| 19>   H                      -6.775712            8.726267             7.651503
| 20>   H                      -7.305414            6.488083             7.206450
| 21>   H                      -8.712745            6.869042             8.257936
| 22>   H                      -8.561690            7.704203             6.710516
| 23> *
| 24>
| 25> #Run DFT-D3 single point of the molecule with dimer basis set
| 26> $new_job
| 27> %base "22-175_DFT_A"
| 28> ! wB97X-D3 def2-TZVP TIGHTSCF CHELPG PMODEL
| 29>
| 30> %scf
| 31> MaxIter 1000
| 32> end
| 33>
| 34> * xyz 0 1
| 35>   C                      -2.949935            9.302881             7.250377
| 36>   O                      -3.854951            8.679741             8.209806
| 37>   H                      -3.999120            7.738122             7.973193
| 38>   H                      -1.951529            9.062261             7.474002
| 39>   H                      -3.203255            8.897659             6.218874
| 40>   H                      -2.932842            10.382185            7.384572
| 41>   C                    : -8.002906            7.307472             7.542758
| 42>   O                    : -7.382870            8.310617             8.249589
| 43>   H                    : -6.775712            8.726267             7.651503
| 44>   H                    : -7.305414            6.488083             7.206450
| 45>   H                    : -8.712745            6.869042             8.257936
| 46>   H                    : -8.561690            7.704203             6.710516
| 47> *
| 48>
| 49> #Run DFT-D3 single point of the particle with dimer basis set
| 50> $new_job
| 51> %base "22-175_DFT_B"
| 52> ! wB97X-D3 def2-TZVP TIGHTSCF CHELPG PMODEL
| 53>
| 54> %scf
| 55> MaxIter 1000
| 56> end
| 57>
| 58> * xyz 0 1
| 59>   C                    : -2.949935            9.302881             7.250377
| 60>   O                    : -3.854951            8.679741             8.209806
| 61>   H                    : -3.999120            7.738122             7.973193
| 62>   H                    : -1.951529            9.062261             7.474002
| 63>   H                    : -3.203255            8.897659             6.218874
| 64>   H                    : -2.932842            10.382185            7.384572
| 65>   C                      -8.002906            7.307472             7.542758
| 66>   O                      -7.382870            8.310617             8.249589
| 67>   H                      -6.775712            8.726267             7.651503
| 68>   H                      -7.305414            6.488083             7.206450
| 69>   H                      -8.712745            6.869042             8.257936
| 70>   H                      -8.561690            7.704203             6.710516
| 71> *
| 72>
| 73>                          ****END OF INPUT****
 Total Charge           Charge          ....    0
 Multiplicity           Mult            ....    1
 Number of Electrons    NEL             ....   36
Dispersion correction           -0.001252831
FINAL SINGLE POINT ENERGY      -231.465549347533
Dispersion correction           -0.000255920
FINAL SINGLE POINT ENERGY      -115.729072730296

CARTESIAN COORDINATES (ANGSTROEM)
---------------------------------
  C     -2.949935    9.302881    7.250377
  O     -3.854951    8.679741    8.209806
  H     -3.999120    7.738122    7.973193
  H     -1.951529    9.062261    7.474002
  H     -3.203255    8.897659    6.218874
  H     -2.932842   10.382185    7.384572
  C     -8.002906    7.307472    7.542758
  O     -7.382870    8.310617    8.249589
  H     -6.775712    8.726267    7.651503
  H     -7.305414    6.488083    7.206450
  H     -8.712745    6.869042    8.257936
  H     -8.561690    7.704203    6.710516

 Multiplicity           Mult            ....    1
 Number of Electrons    NEL             ....   18
 Basis Dimension        Dim             ....  172

ORBITAL ENERGIES
----------------

  NO   OCC          E(Eh)            E(eV)
   0   2.0000     -19.229896      -523.2721
   1   2.0000     -10.310986      -280.5762
   2   2.0000      -1.153107       -31.3776
   3   2.0000      -0.792424       -21.5630
   4   2.0000      -0.618904       -16.8412
   5   2.0000      -0.548879       -14.9358
   6   2.0000      -0.528134       -14.3713
   7   2.0000      -0.432158       -11.7596
   8   2.0000      -0.373890       -10.1741
   9   0.0000       0.076148         2.0721
  10   0.0000       0.123844         3.3700
  11   0.0000       0.155839         4.2406
  12   0.0000       0.167446         4.5564
  13   0.0000       0.193154         5.2560

MULLIKEN ATOMIC CHARGES
-----------------------
   0 C :   -0.000075
   1 O :   -0.001103
   2 H :   -0.001598
   3 H :   -0.000010
   4 H :   -0.000047
   5 H :    0.000052
   6 C :   -0.158202
   7 O :   -0.458776
   8 H :    0.311898
   9 H :    0.092789
  10 H :    0.114630
  11 H :    0.100445
Sum of atomic charges:   -0.0000000

LOEWDIN ATOMIC CHARGES
----------------------
   0 C :   -0.000358
   1 O :   -0.001849
   2 H :   -0.001417
   3 H :   -0.000011
   4 H :   -0.000030
   5 H :   -0.000006
   6 C :   -0.418359
   7 O :   -0.039528
   8 H :    0.163223
   9 H :    0.097508
  10 H :    0.111423
  11 H :    0.089404

  Mayer bond orders larger than 0.1
B(  6-C ,  7-O ) :   1.0056 B(  6-C ,  9-H ) :   0.9698 B(  6-C , 10-H ) :   0.9757
B(  6-C , 11-H ) :   0.9792 B(  7-O ,  8-H ) :   0.9026

Dispersion correction           -0.000220063
FINAL SINGLE POINT ENERGY      -115.735222900600

DIPOLE MOMENT
-------------
                                X             Y             Z
Electronic contribution:      0.75351       1.32219       0.97268
Nuclear contribution   :     -0.61947      -1.41511      -1.60168
                        -----------------------------------------
Total Dipole Moment    :      0.13403      -0.09293      -0.62900
                        -----------------------------------------
Magnitude (a.u.)       :      0.64980
Magnitude (Debye)      :      1.65167

Rotational constants in cm-1:     4.217903     0.874249     0.844791
Rotational constants in MHz : 126449.565449 26209.337720 25326.196076

                             ****ORCA TERMINATED NORMALLY****
TOTAL RUN TIME: 0 days 0 hours 1 minutes 2 seconds 515 msec
