                         Program Version 4.1.2  - RELEASE  -
|  1> #Run DFT-D3 single point of the dimer
|  2> ! wB97X-D3 def2-TZVP TIGHTSCF CHELPG PMODEL PAL8
|  3>
|  4> %base "17-194_DFT_AB"
|  5>
|  6> %scf
|  7> MaxIter 1000
|  8> end
|  9>
| 10> * xyz 0 1
| 11>   C                      11.278388            -8.965989            3.740547
| 12>   O                      11.382558            -8.519057            2.368297
| 13>   H                      10.453078            -8.329713            2.122993
| 14>   H                      11.178843            -8.180543            4.456480
| 15>   H                      10.376415            -9.599793            3.820679
| 16>   H                      12.075640            -9.604015            4.160586
| 17>   C                      9.143372             -7.572181            0.008612
| 18>   O                      8.942419             -7.574680            1.476600
| 19>   H                      8.089438             -7.102044            1.679372
| 20>   H                      8.147508             -7.555728            -0.501791
| 21>   H                      9.797707             -6.727345            -0.336407
| 22>   H                      9.685008             -8.484827            -0.339641
| 23> *
| 24>
| 25> #Run DFT-D3 single point of the molecule with dimer basis set
| 26> $new_job
| 27> %base "17-194_DFT_A"
| 28> ! wB97X-D3 def2-TZVP TIGHTSCF CHELPG PMODEL
| 29>
| 30> %scf
| 31> MaxIter 1000
| 32> end
| 33>
| 34> * xyz 0 1
| 35>   C                      11.278388            -8.965989            3.740547
| 36>   O                      11.382558            -8.519057            2.368297
| 37>   H                      10.453078            -8.329713            2.122993
| 38>   H                      11.178843            -8.180543            4.456480
| 39>   H                      10.376415            -9.599793            3.820679
| 40>   H                      12.075640            -9.604015            4.160586
| 41>   C                    : 9.143372             -7.572181            0.008612
| 42>   O                    : 8.942419             -7.574680            1.476600
| 43>   H                    : 8.089438             -7.102044            1.679372
| 44>   H                    : 8.147508             -7.555728            -0.501791
| 45>   H                    : 9.797707             -6.727345            -0.336407
| 46>   H                    : 9.685008             -8.484827            -0.339641
| 47> *
| 48>
| 49> #Run DFT-D3 single point of the particle with dimer basis set
| 50> $new_job
| 51> %base "17-194_DFT_B"
| 52> ! wB97X-D3 def2-TZVP TIGHTSCF CHELPG PMODEL
| 53>
| 54> %scf
| 55> MaxIter 1000
| 56> end
| 57>
| 58> * xyz 0 1
| 59>   C                    : 11.278388            -8.965989            3.740547
| 60>   O                    : 11.382558            -8.519057            2.368297
| 61>   H                    : 10.453078            -8.329713            2.122993
| 62>   H                    : 11.178843            -8.180543            4.456480
| 63>   H                    : 10.376415            -9.599793            3.820679
| 64>   H                    : 12.075640            -9.604015            4.160586
| 65>   C                      9.143372             -7.572181            0.008612
| 66>   O                      8.942419             -7.574680            1.476600
| 67>   H                      8.089438             -7.102044            1.679372
| 68>   H                      8.147508             -7.555728            -0.501791
| 69>   H                      9.797707             -6.727345            -0.336407
| 70>   H                      9.685008             -8.484827            -0.339641
| 71> *
| 72>
| 73>                          ****END OF INPUT****
 Total Charge           Charge          ....    0
 Multiplicity           Mult            ....    1
 Number of Electrons    NEL             ....   36
Dispersion correction           -0.001793795
FINAL SINGLE POINT ENERGY      -231.467983083085
Dispersion correction           -0.000254702
FINAL SINGLE POINT ENERGY      -115.729731628466

CARTESIAN COORDINATES (ANGSTROEM)
---------------------------------
  C     11.278388   -8.965989    3.740547
  O     11.382558   -8.519057    2.368297
  H     10.453078   -8.329713    2.122993
  H     11.178843   -8.180543    4.456480
  H     10.376415   -9.599793    3.820679
  H     12.075640   -9.604015    4.160586
  C      9.143372   -7.572181    0.008612
  O      8.942419   -7.574680    1.476600
  H      8.089438   -7.102044    1.679372
  H      8.147508   -7.555728   -0.501791
  H      9.797707   -6.727345   -0.336407
  H      9.685008   -8.484827   -0.339641

 Multiplicity           Mult            ....    1
 Number of Electrons    NEL             ....   18
 Basis Dimension        Dim             ....  172

ORBITAL ENERGIES
----------------

  NO   OCC          E(Eh)            E(eV)
   0   2.0000     -19.234825      -523.4062
   1   2.0000     -10.327863      -281.0354
   2   2.0000      -1.110483       -30.2178
   3   2.0000      -0.790366       -21.5069
   4   2.0000      -0.592823       -16.1315
   5   2.0000      -0.531578       -14.4650
   6   2.0000      -0.519295       -14.1307
   7   2.0000      -0.432706       -11.7745
   8   2.0000      -0.375073       -10.2063
   9   0.0000       0.098077         2.6688
  10   0.0000       0.120876         3.2892
  11   0.0000       0.141157         3.8411
  12   0.0000       0.185501         5.0477
  13   0.0000       0.199246         5.4218

MULLIKEN ATOMIC CHARGES
-----------------------
   0 C :    0.001513
   1 O :    0.000004
   2 H :   -0.003641
   3 H :   -0.000730
   4 H :   -0.002213
   5 H :   -0.000177
   6 C :   -0.187453
   7 O :   -0.480047
   8 H :    0.314268
   9 H :    0.115200
  10 H :    0.114964
  11 H :    0.128311
Sum of atomic charges:   -0.0000000

LOEWDIN ATOMIC CHARGES
----------------------
   0 C :   -0.003368
   1 O :   -0.005881
   2 H :   -0.049845
   3 H :   -0.000199
   4 H :   -0.000773
   5 H :   -0.000040
   6 C :   -0.348318
   7 O :   -0.093359
   8 H :    0.183637
   9 H :    0.103709
  10 H :    0.103021
  11 H :    0.111416

  Mayer bond orders larger than 0.1
B(  6-C ,  7-O ) :   0.9923 B(  6-C ,  9-H ) :   0.9731 B(  6-C , 10-H ) :   0.9684
B(  6-C , 11-H ) :   0.9750 B(  7-O ,  8-H ) :   0.8951

Dispersion correction           -0.000292751
FINAL SINGLE POINT ENERGY      -115.730034620759

DIPOLE MOMENT
-------------
                                X             Y             Z
Electronic contribution:     -0.13534      -0.06604       1.84485
Nuclear contribution   :     -0.32479       0.34792      -2.35696
                        -----------------------------------------
Total Dipole Moment    :     -0.46013       0.28188      -0.51211
                        -----------------------------------------
Magnitude (a.u.)       :      0.74393
Magnitude (Debye)      :      1.89092

Rotational constants in cm-1:     4.115254     0.760406     0.732744
Rotational constants in MHz : 123372.216582 22796.389847 21967.106501

                             ****ORCA TERMINATED NORMALLY****
TOTAL RUN TIME: 0 days 0 hours 1 minutes 12 seconds 820 msec
