                         Program Version 4.1.2  - RELEASE  -
|  1> #Run DFT-D3 single point of the dimer
|  2> ! wB97X-D3 def2-TZVP TIGHTSCF CHELPG PMODEL PAL8
|  3>
|  4> %base "10-111_DFT_AB"
|  5>
|  6> %scf
|  7> MaxIter 1000
|  8> end
|  9>
| 10> * xyz 0 1
| 11>   C                      5.369477             -6.342536            -0.441178
| 12>   O                      5.334754             -5.019816            0.209316
| 13>   H                      4.689948             -4.385982            -0.258636
| 14>   H                      5.435570             -7.157379            0.285672
| 15>   H                      4.490291             -6.557346            -0.960870
| 16>   H                      6.075459             -6.414477            -1.304671
| 17>   C                      3.153078             -7.645306            -3.207908
| 18>   O                      2.836734             -6.398947            -3.647315
| 19>   H                      3.203133             -6.282440            -4.503657
| 20>   H                      4.238093             -7.697912            -2.989028
| 21>   H                      2.670314             -7.902382            -2.312206
| 22>   H                      2.984515             -8.353490            -4.071394
| 23> *
| 24>
| 25> #Run DFT-D3 single point of the molecule with dimer basis set
| 26> $new_job
| 27> %base "10-111_DFT_A"
| 28> ! wB97X-D3 def2-TZVP TIGHTSCF CHELPG PMODEL
| 29>
| 30> %scf
| 31> MaxIter 1000
| 32> end
| 33>
| 34> * xyz 0 1
| 35>   C                      5.369477             -6.342536            -0.441178
| 36>   O                      5.334754             -5.019816            0.209316
| 37>   H                      4.689948             -4.385982            -0.258636
| 38>   H                      5.435570             -7.157379            0.285672
| 39>   H                      4.490291             -6.557346            -0.960870
| 40>   H                      6.075459             -6.414477            -1.304671
| 41>   C                    : 3.153078             -7.645306            -3.207908
| 42>   O                    : 2.836734             -6.398947            -3.647315
| 43>   H                    : 3.203133             -6.282440            -4.503657
| 44>   H                    : 4.238093             -7.697912            -2.989028
| 45>   H                    : 2.670314             -7.902382            -2.312206
| 46>   H                    : 2.984515             -8.353490            -4.071394
| 47> *
| 48>
| 49> #Run DFT-D3 single point of the particle with dimer basis set
| 50> $new_job
| 51> %base "10-111_DFT_B"
| 52> ! wB97X-D3 def2-TZVP TIGHTSCF CHELPG PMODEL
| 53>
| 54> %scf
| 55> MaxIter 1000
| 56> end
| 57>
| 58> * xyz 0 1
| 59>   C                    : 5.369477             -6.342536            -0.441178
| 60>   O                    : 5.334754             -5.019816            0.209316
| 61>   H                    : 4.689948             -4.385982            -0.258636
| 62>   H                    : 5.435570             -7.157379            0.285672
| 63>   H                    : 4.490291             -6.557346            -0.960870
| 64>   H                    : 6.075459             -6.414477            -1.304671
| 65>   C                      3.153078             -7.645306            -3.207908
| 66>   O                      2.836734             -6.398947            -3.647315
| 67>   H                      3.203133             -6.282440            -4.503657
| 68>   H                      4.238093             -7.697912            -2.989028
| 69>   H                      2.670314             -7.902382            -2.312206
| 70>   H                      2.984515             -8.353490            -4.071394
| 71> *
| 72>
| 73>                          ****END OF INPUT****
 Total Charge           Charge          ....    0
 Multiplicity           Mult            ....    1
 Number of Electrons    NEL             ....   36
Dispersion correction           -0.001652713
FINAL SINGLE POINT ENERGY      -231.453745415035
Dispersion correction           -0.000291350
FINAL SINGLE POINT ENERGY      -115.722656128072

CARTESIAN COORDINATES (ANGSTROEM)
---------------------------------
  C      5.369477   -6.342536   -0.441178
  O      5.334754   -5.019816    0.209316
  H      4.689948   -4.385982   -0.258636
  H      5.435570   -7.157379    0.285672
  H      4.490291   -6.557346   -0.960870
  H      6.075459   -6.414477   -1.304671
  C      3.153078   -7.645306   -3.207908
  O      2.836734   -6.398947   -3.647315
  H      3.203133   -6.282440   -4.503657
  H      4.238093   -7.697912   -2.989028
  H      2.670314   -7.902382   -2.312206
  H      2.984515   -8.353490   -4.071394

 Multiplicity           Mult            ....    1
 Number of Electrons    NEL             ....   18
 Basis Dimension        Dim             ....  172

ORBITAL ENERGIES
----------------

  NO   OCC          E(Eh)            E(eV)
   0   2.0000     -19.225916      -523.1638
   1   2.0000     -10.309105      -280.5250
   2   2.0000      -1.158332       -31.5198
   3   2.0000      -0.795591       -21.6491
   4   2.0000      -0.621875       -16.9221
   5   2.0000      -0.550819       -14.9886
   6   2.0000      -0.539592       -14.6830
   7   2.0000      -0.432119       -11.7585
   8   2.0000      -0.364719        -9.9245
   9   0.0000       0.088899         2.4191
  10   0.0000       0.122242         3.3264
  11   0.0000       0.154837         4.2133
  12   0.0000       0.176706         4.8084
  13   0.0000       0.190175         5.1749

MULLIKEN ATOMIC CHARGES
-----------------------
   0 C :   -0.001555
   1 O :    0.000039
   2 H :   -0.000150
   3 H :    0.000549
   4 H :    0.003673
   5 H :   -0.000682
   6 C :   -0.163197
   7 O :   -0.461111
   8 H :    0.314740
   9 H :    0.089809
  10 H :    0.116646
  11 H :    0.101237
Sum of atomic charges:   -0.0000000

LOEWDIN ATOMIC CHARGES
----------------------
   0 C :   -0.004823
   1 O :   -0.000039
   2 H :   -0.000106
   3 H :   -0.000050
   4 H :   -0.004556
   5 H :   -0.001091
   6 C :   -0.418502
   7 O :   -0.027080
   8 H :    0.161349
   9 H :    0.096189
  10 H :    0.098156
  11 H :    0.100552

  Mayer bond orders larger than 0.1
B(  6-C ,  7-O ) :   0.9975 B(  6-C ,  9-H ) :   0.9816 B(  6-C , 10-H ) :   0.9723
B(  6-C , 11-H ) :   0.9859 B(  7-O ,  8-H ) :   0.9006

Dispersion correction           -0.000201219
FINAL SINGLE POINT ENERGY      -115.729764324151

DIPOLE MOMENT
-------------
                                X             Y             Z
Electronic contribution:     -0.64294       1.67659      -0.33848
Nuclear contribution   :      0.98692      -2.04339      -0.03616
                        -----------------------------------------
Total Dipole Moment    :      0.34397      -0.36680      -0.37464
                        -----------------------------------------
Magnitude (a.u.)       :      0.62707
Magnitude (Debye)      :      1.59387

Rotational constants in cm-1:     4.283478     0.896305     0.857074
Rotational constants in MHz : 128415.440460 26870.556181 25694.419033

                             ****ORCA TERMINATED NORMALLY****
TOTAL RUN TIME: 0 days 0 hours 1 minutes 3 seconds 461 msec
