                         Program Version 4.1.2  - RELEASE  -
|  1> #Run DFT-D3 single point of the dimer
|  2> ! wB97X-D3 def2-TZVP TIGHTSCF CHELPG PMODEL PAL8
|  3>
|  4> %base "19-4_DFT_AB"
|  5>
|  6> %scf
|  7> MaxIter 1000
|  8> end
|  9>
| 10> * xyz 0 1
| 11>   C                      4.218830             -7.367409            10.092198
| 12>   O                      4.342444             -8.557732            10.803951
| 13>   H                      4.070487             -8.609899            11.692965
| 14>   H                      3.801504             -7.551489            9.084576
| 15>   H                      3.484433             -6.691170            10.435203
| 16>   H                      5.199852             -6.817999            10.009492
| 17>   C                      -0.689859            -6.045129            10.141040
| 18>   O                      -1.623886            -6.700733            9.380281
| 19>   H                      -1.112781            -7.355313            8.860090
| 20>   H                      0.213045             -6.562357            10.054029
| 21>   H                      -0.605332            -4.968874            9.947013
| 22>   H                      -0.933497            -6.123105            11.212937
| 23> *
| 24>
| 25> #Run DFT-D3 single point of the molecule with dimer basis set
| 26> $new_job
| 27> %base "19-4_DFT_A"
| 28> ! wB97X-D3 def2-TZVP TIGHTSCF CHELPG PMODEL
| 29>
| 30> %scf
| 31> MaxIter 1000
| 32> end
| 33>
| 34> * xyz 0 1
| 35>   C                      4.218830             -7.367409            10.092198
| 36>   O                      4.342444             -8.557732            10.803951
| 37>   H                      4.070487             -8.609899            11.692965
| 38>   H                      3.801504             -7.551489            9.084576
| 39>   H                      3.484433             -6.691170            10.435203
| 40>   H                      5.199852             -6.817999            10.009492
| 41>   C                    : -0.689859            -6.045129            10.141040
| 42>   O                    : -1.623886            -6.700733            9.380281
| 43>   H                    : -1.112781            -7.355313            8.860090
| 44>   H                    : 0.213045             -6.562357            10.054029
| 45>   H                    : -0.605332            -4.968874            9.947013
| 46>   H                    : -0.933497            -6.123105            11.212937
| 47> *
| 48>
| 49> #Run DFT-D3 single point of the particle with dimer basis set
| 50> $new_job
| 51> %base "19-4_DFT_B"
| 52> ! wB97X-D3 def2-TZVP TIGHTSCF CHELPG PMODEL
| 53>
| 54> %scf
| 55> MaxIter 1000
| 56> end
| 57>
| 58> * xyz 0 1
| 59>   C                    : 4.218830             -7.367409            10.092198
| 60>   O                    : 4.342444             -8.557732            10.803951
| 61>   H                    : 4.070487             -8.609899            11.692965
| 62>   H                    : 3.801504             -7.551489            9.084576
| 63>   H                    : 3.484433             -6.691170            10.435203
| 64>   H                    : 5.199852             -6.817999            10.009492
| 65>   C                      -0.689859            -6.045129            10.141040
| 66>   O                      -1.623886            -6.700733            9.380281
| 67>   H                      -1.112781            -7.355313            8.860090
| 68>   H                      0.213045             -6.562357            10.054029
| 69>   H                      -0.605332            -4.968874            9.947013
| 70>   H                      -0.933497            -6.123105            11.212937
| 71> *
| 72>
| 73>                          ****END OF INPUT****
 Total Charge           Charge          ....    0
 Multiplicity           Mult            ....    1
 Number of Electrons    NEL             ....   36
Dispersion correction           -0.000842936
FINAL SINGLE POINT ENERGY      -231.457571157728
Dispersion correction           -0.000273839
FINAL SINGLE POINT ENERGY      -115.728187100569

CARTESIAN COORDINATES (ANGSTROEM)
---------------------------------
  C      4.218830   -7.367409   10.092198
  O      4.342444   -8.557732   10.803951
  H      4.070487   -8.609899   11.692965
  H      3.801504   -7.551489    9.084576
  H      3.484433   -6.691170   10.435203
  H      5.199852   -6.817999   10.009492
  C     -0.689859   -6.045129   10.141040
  O     -1.623886   -6.700733    9.380281
  H     -1.112781   -7.355313    8.860090
  H      0.213045   -6.562357   10.054029
  H     -0.605332   -4.968874    9.947013
  H     -0.933497   -6.123105   11.212937

 Multiplicity           Mult            ....    1
 Number of Electrons    NEL             ....   18
 Basis Dimension        Dim             ....  172

ORBITAL ENERGIES
----------------

  NO   OCC          E(Eh)            E(eV)
   0   2.0000     -19.231351      -523.3117
   1   2.0000     -10.304161      -280.3905
   2   2.0000      -1.149013       -31.2662
   3   2.0000      -0.792608       -21.5679
   4   2.0000      -0.621941       -16.9239
   5   2.0000      -0.546372       -14.8675
   6   2.0000      -0.534653       -14.5486
   7   2.0000      -0.432128       -11.7588
   8   2.0000      -0.369374       -10.0512
   9   0.0000       0.078189         2.1276
  10   0.0000       0.111582         3.0363
  11   0.0000       0.151643         4.1264
  12   0.0000       0.160344         4.3632
  13   0.0000       0.182192         4.9577

MULLIKEN ATOMIC CHARGES
-----------------------
   0 C :    0.000287
   1 O :   -0.000005
   2 H :   -0.000006
   3 H :   -0.000079
   4 H :   -0.000521
   5 H :   -0.000017
   6 C :   -0.162616
   7 O :   -0.458158
   8 H :    0.319912
   9 H :    0.100022
  10 H :    0.102132
  11 H :    0.099049
Sum of atomic charges:    0.0000000

LOEWDIN ATOMIC CHARGES
----------------------
   0 C :   -0.000301
   1 O :   -0.000002
   2 H :   -0.000002
   3 H :   -0.000048
   4 H :   -0.000508
   5 H :   -0.000002
   6 C :   -0.418919
   7 O :   -0.053908
   8 H :    0.188137
   9 H :    0.086395
  10 H :    0.098265
  11 H :    0.100891

  Mayer bond orders larger than 0.1
B(  6-C ,  7-O ) :   1.0253 B(  6-C ,  9-H ) :   0.9985 B(  6-C , 10-H ) :   0.9720
B(  6-C , 11-H ) :   0.9766 B(  7-O ,  8-H ) :   0.8985

Dispersion correction           -0.000222802
FINAL SINGLE POINT ENERGY      -115.729065447334

DIPOLE MOMENT
-------------
                                X             Y             Z
Electronic contribution:     -1.32032      -0.74937      -1.06915
Nuclear contribution   :      2.00625       0.54400       1.01815
                        -----------------------------------------
Total Dipole Moment    :      0.68593      -0.20537      -0.05100
                        -----------------------------------------
Magnitude (a.u.)       :      0.71783
Magnitude (Debye)      :      1.82457

Rotational constants in cm-1:     4.360288     0.878391     0.844089
Rotational constants in MHz : 130718.138852 26333.502091 25305.163664

                             ****ORCA TERMINATED NORMALLY****
TOTAL RUN TIME: 0 days 0 hours 0 minutes 40 seconds 312 msec
