                         Program Version 4.1.2  - RELEASE  -
|  1> #Run DFT-D3 single point of the dimer
|  2> ! wB97X-D3 def2-TZVP TIGHTSCF CHELPG PMODEL PAL8
|  3>
|  4> %base "9-156_DFT_AB"
|  5>
|  6> %scf
|  7> MaxIter 1000
|  8> end
|  9>
| 10> * xyz 0 1
| 11>   C                      -9.739678            -8.891231            -7.319189
| 12>   O                      -9.182632            -8.144467            -6.314029
| 13>   H                      -9.652796            -8.589007            -5.548844
| 14>   H                      -9.405411            -8.539859            -8.258961
| 15>   H                      -9.331813            -9.898390            -7.340677
| 16>   H                      -10.868232           -8.911412            -7.342484
| 17>   C                      -9.729859            -5.200063            -5.606613
| 18>   O                      -9.668341            -5.632756            -6.981162
| 19>   H                      -9.125837            -6.410606            -7.014796
| 20>   H                      -8.888527            -5.566553            -5.070260
| 21>   H                      -9.735423            -4.085984            -5.456742
| 22>   H                      -10.573634           -5.645137            -5.112291
| 23> *
| 24>
| 25> #Run DFT-D3 single point of the molecule with dimer basis set
| 26> $new_job
| 27> %base "9-156_DFT_A"
| 28> ! wB97X-D3 def2-TZVP TIGHTSCF CHELPG PMODEL
| 29>
| 30> %scf
| 31> MaxIter 1000
| 32> end
| 33>
| 34> * xyz 0 1
| 35>   C                      -9.739678            -8.891231            -7.319189
| 36>   O                      -9.182632            -8.144467            -6.314029
| 37>   H                      -9.652796            -8.589007            -5.548844
| 38>   H                      -9.405411            -8.539859            -8.258961
| 39>   H                      -9.331813            -9.898390            -7.340677
| 40>   H                      -10.868232           -8.911412            -7.342484
| 41>   C                    : -9.729859            -5.200063            -5.606613
| 42>   O                    : -9.668341            -5.632756            -6.981162
| 43>   H                    : -9.125837            -6.410606            -7.014796
| 44>   H                    : -8.888527            -5.566553            -5.070260
| 45>   H                    : -9.735423            -4.085984            -5.456742
| 46>   H                    : -10.573634           -5.645137            -5.112291
| 47> *
| 48>
| 49> #Run DFT-D3 single point of the particle with dimer basis set
| 50> $new_job
| 51> %base "9-156_DFT_B"
| 52> ! wB97X-D3 def2-TZVP TIGHTSCF CHELPG PMODEL
| 53>
| 54> %scf
| 55> MaxIter 1000
| 56> end
| 57>
| 58> * xyz 0 1
| 59>   C                    : -9.739678            -8.891231            -7.319189
| 60>   O                    : -9.182632            -8.144467            -6.314029
| 61>   H                    : -9.652796            -8.589007            -5.548844
| 62>   H                    : -9.405411            -8.539859            -8.258961
| 63>   H                    : -9.331813            -9.898390            -7.340677
| 64>   H                    : -10.868232           -8.911412            -7.342484
| 65>   C                      -9.729859            -5.200063            -5.606613
| 66>   O                      -9.668341            -5.632756            -6.981162
| 67>   H                      -9.125837            -6.410606            -7.014796
| 68>   H                      -8.888527            -5.566553            -5.070260
| 69>   H                      -9.735423            -4.085984            -5.456742
| 70>   H                      -10.573634           -5.645137            -5.112291
| 71> *
| 72>
| 73>                          ****END OF INPUT****
 Total Charge           Charge          ....    0
 Multiplicity           Mult            ....    1
 Number of Electrons    NEL             ....   36
Dispersion correction           -0.002120755
FINAL SINGLE POINT ENERGY      -231.462858618195
Dispersion correction           -0.000208077
FINAL SINGLE POINT ENERGY      -115.727584283584

CARTESIAN COORDINATES (ANGSTROEM)
---------------------------------
  C     -9.739678   -8.891231   -7.319189
  O     -9.182632   -8.144467   -6.314029
  H     -9.652796   -8.589007   -5.548844
  H     -9.405411   -8.539859   -8.258961
  H     -9.331813   -9.898390   -7.340677
  H    -10.868232   -8.911412   -7.342484
  C     -9.729859   -5.200063   -5.606613
  O     -9.668341   -5.632756   -6.981162
  H     -9.125837   -6.410606   -7.014796
  H     -8.888527   -5.566553   -5.070260
  H     -9.735423   -4.085984   -5.456742
  H    -10.573634   -5.645137   -5.112291

 Multiplicity           Mult            ....    1
 Number of Electrons    NEL             ....   18
 Basis Dimension        Dim             ....  172

ORBITAL ENERGIES
----------------

  NO   OCC          E(Eh)            E(eV)
   0   2.0000     -19.230692      -523.2937
   1   2.0000     -10.314327      -280.6671
   2   2.0000      -1.130977       -30.7754
   3   2.0000      -0.800279       -21.7767
   4   2.0000      -0.611094       -16.6287
   5   2.0000      -0.540018       -14.6946
   6   2.0000      -0.525419       -14.2974
   7   2.0000      -0.435654       -11.8547
   8   2.0000      -0.376633       -10.2487
   9   0.0000       0.074694         2.0325
  10   0.0000       0.132737         3.6120
  11   0.0000       0.146404         3.9839
  12   0.0000       0.179020         4.8714
  13   0.0000       0.183631         4.9968

MULLIKEN ATOMIC CHARGES
-----------------------
   0 C :   -0.009591
   1 O :   -0.007799
   2 H :   -0.000077
   3 H :   -0.000003
   4 H :   -0.000318
   5 H :    0.000635
   6 C :   -0.180555
   7 O :   -0.470361
   8 H :    0.318530
   9 H :    0.115225
  10 H :    0.123293
  11 H :    0.111019
Sum of atomic charges:   -0.0000000

LOEWDIN ATOMIC CHARGES
----------------------
   0 C :   -0.012603
   1 O :   -0.027037
   2 H :   -0.001448
   3 H :   -0.001413
   4 H :   -0.000260
   5 H :   -0.000696
   6 C :   -0.359262
   7 O :   -0.069466
   8 H :    0.171663
   9 H :    0.092081
  10 H :    0.113567
  11 H :    0.094873

  Mayer bond orders larger than 0.1
B(  6-C ,  7-O ) :   0.9937 B(  6-C ,  9-H ) :   0.9879 B(  6-C , 10-H ) :   0.9694
B(  6-C , 11-H ) :   0.9769 B(  7-O ,  8-H ) :   0.9018

Dispersion correction           -0.000250656
FINAL SINGLE POINT ENERGY      -115.732921955243

DIPOLE MOMENT
-------------
                                X             Y             Z
Electronic contribution:     -0.03296      -0.37743      -1.80483
Nuclear contribution   :      0.37371       0.06330       2.37883
                        -----------------------------------------
Total Dipole Moment    :      0.34075      -0.31414       0.57401
                        -----------------------------------------
Magnitude (a.u.)       :      0.73775
Magnitude (Debye)      :      1.87521

Rotational constants in cm-1:     4.417499     0.802006     0.774649
Rotational constants in MHz : 132433.283530 24043.548078 23223.399471

                             ****ORCA TERMINATED NORMALLY****
TOTAL RUN TIME: 0 days 0 hours 0 minutes 48 seconds 997 msec
