                         Program Version 4.1.2  - RELEASE  -
|  1> #Run DFT-D3 single point of the dimer
|  2> ! wB97X-D3 def2-TZVP TIGHTSCF CHELPG PMODEL PAL8
|  3>
|  4> %base "9-108_DFT_AB"
|  5>
|  6> %scf
|  7> MaxIter 1000
|  8> end
|  9>
| 10> * xyz 0 1
| 11>   C                      -5.982742            -6.095501            1.316982
| 12>   O                      -6.760569            -4.916011            1.577320
| 13>   H                      -6.135223            -4.206989            1.780978
| 14>   H                      -5.438071            -6.346295            2.215708
| 15>   H                      -6.528076            -6.986041            1.068226
| 16>   H                      -5.230619            -5.928635            0.561390
| 17>   C                      -7.844242            -0.988290            -1.209791
| 18>   O                      -6.413111            -1.000022            -0.951601
| 19>   H                      -6.157595            -1.889049            -1.046544
| 20>   H                      -8.237133            0.054909             -1.327894
| 21>   H                      -8.068519            -1.457255            -2.187042
| 22>   H                      -8.488866            -1.463421            -0.452614
| 23> *
| 24>
| 25> #Run DFT-D3 single point of the molecule with dimer basis set
| 26> $new_job
| 27> %base "9-108_DFT_A"
| 28> ! wB97X-D3 def2-TZVP TIGHTSCF CHELPG PMODEL
| 29>
| 30> %scf
| 31> MaxIter 1000
| 32> end
| 33>
| 34> * xyz 0 1
| 35>   C                      -5.982742            -6.095501            1.316982
| 36>   O                      -6.760569            -4.916011            1.577320
| 37>   H                      -6.135223            -4.206989            1.780978
| 38>   H                      -5.438071            -6.346295            2.215708
| 39>   H                      -6.528076            -6.986041            1.068226
| 40>   H                      -5.230619            -5.928635            0.561390
| 41>   C                    : -7.844242            -0.988290            -1.209791
| 42>   O                    : -6.413111            -1.000022            -0.951601
| 43>   H                    : -6.157595            -1.889049            -1.046544
| 44>   H                    : -8.237133            0.054909             -1.327894
| 45>   H                    : -8.068519            -1.457255            -2.187042
| 46>   H                    : -8.488866            -1.463421            -0.452614
| 47> *
| 48>
| 49> #Run DFT-D3 single point of the particle with dimer basis set
| 50> $new_job
| 51> %base "9-108_DFT_B"
| 52> ! wB97X-D3 def2-TZVP TIGHTSCF CHELPG PMODEL
| 53>
| 54> %scf
| 55> MaxIter 1000
| 56> end
| 57>
| 58> * xyz 0 1
| 59>   C                    : -5.982742            -6.095501            1.316982
| 60>   O                    : -6.760569            -4.916011            1.577320
| 61>   H                    : -6.135223            -4.206989            1.780978
| 62>   H                    : -5.438071            -6.346295            2.215708
| 63>   H                    : -6.528076            -6.986041            1.068226
| 64>   H                    : -5.230619            -5.928635            0.561390
| 65>   C                      -7.844242            -0.988290            -1.209791
| 66>   O                      -6.413111            -1.000022            -0.951601
| 67>   H                      -6.157595            -1.889049            -1.046544
| 68>   H                      -8.237133            0.054909             -1.327894
| 69>   H                      -8.068519            -1.457255            -2.187042
| 70>   H                      -8.488866            -1.463421            -0.452614
| 71> *
| 72>
| 73>                          ****END OF INPUT****
 Total Charge           Charge          ....    0
 Multiplicity           Mult            ....    1
 Number of Electrons    NEL             ....   36
Dispersion correction           -0.000814278
FINAL SINGLE POINT ENERGY      -231.466717855471
Dispersion correction           -0.000237401
FINAL SINGLE POINT ENERGY      -115.733080745102

CARTESIAN COORDINATES (ANGSTROEM)
---------------------------------
  C     -5.982742   -6.095501    1.316982
  O     -6.760569   -4.916011    1.577320
  H     -6.135223   -4.206989    1.780978
  H     -5.438071   -6.346295    2.215708
  H     -6.528076   -6.986041    1.068226
  H     -5.230619   -5.928635    0.561390
  C     -7.844242   -0.988290   -1.209791
  O     -6.413111   -1.000022   -0.951601
  H     -6.157595   -1.889049   -1.046544
  H     -8.237133    0.054909   -1.327894
  H     -8.068519   -1.457255   -2.187042
  H     -8.488866   -1.463421   -0.452614

 Multiplicity           Mult            ....    1
 Number of Electrons    NEL             ....   18
 Basis Dimension        Dim             ....  172

ORBITAL ENERGIES
----------------

  NO   OCC          E(Eh)            E(eV)
   0   2.0000     -19.232091      -523.3318
   1   2.0000     -10.322432      -280.8877
   2   2.0000      -1.134353       -30.8673
   3   2.0000      -0.796525       -21.6746
   4   2.0000      -0.607312       -16.5258
   5   2.0000      -0.536650       -14.6030
   6   2.0000      -0.520932       -14.1753
   7   2.0000      -0.437967       -11.9177
   8   2.0000      -0.379474       -10.3260
   9   0.0000       0.078740         2.1426
  10   0.0000       0.117291         3.1917
  11   0.0000       0.147122         4.0034
  12   0.0000       0.168612         4.5882
  13   0.0000       0.192578         5.2403

MULLIKEN ATOMIC CHARGES
-----------------------
   0 C :    0.000101
   1 O :    0.000007
   2 H :   -0.000575
   3 H :   -0.000005
   4 H :    0.000002
   5 H :   -0.000031
   6 C :   -0.184368
   7 O :   -0.464905
   8 H :    0.309227
   9 H :    0.122743
  10 H :    0.107538
  11 H :    0.110267
Sum of atomic charges:    0.0000000

LOEWDIN ATOMIC CHARGES
----------------------
   0 C :   -0.000018
   1 O :   -0.000038
   2 H :   -0.000318
   3 H :   -0.000000
   4 H :   -0.000001
   5 H :   -0.000007
   6 C :   -0.368339
   7 O :   -0.086308
   8 H :    0.147099
   9 H :    0.113989
  10 H :    0.098011
  11 H :    0.095930

  Mayer bond orders larger than 0.1
B(  6-C ,  7-O ) :   0.9997 B(  6-C ,  9-H ) :   0.9741 B(  6-C , 10-H ) :   0.9790
B(  6-C , 11-H ) :   0.9653 B(  7-O ,  8-H ) :   0.9083

Dispersion correction           -0.000270825
FINAL SINGLE POINT ENERGY      -115.732634433292

DIPOLE MOMENT
-------------
                                X             Y             Z
Electronic contribution:      1.89303       0.08261       0.44301
Nuclear contribution   :     -2.32279      -0.63519      -0.62526
                        -----------------------------------------
Total Dipole Moment    :     -0.42976      -0.55258      -0.18225
                        -----------------------------------------
Magnitude (a.u.)       :      0.72336
Magnitude (Debye)      :      1.83864

Rotational constants in cm-1:     4.333389     0.784234     0.760458
Rotational constants in MHz : 129911.736019 23510.755391 22797.964135

                             ****ORCA TERMINATED NORMALLY****
TOTAL RUN TIME: 0 days 0 hours 0 minutes 36 seconds 122 msec
