                         Program Version 4.1.2  - RELEASE  -
|  1> #Run DFT-D3 single point of the dimer
|  2> ! wB97X-D3 def2-TZVP TIGHTSCF CHELPG PMODEL PAL8
|  3>
|  4> %base "8-187_DFT_AB"
|  5>
|  6> %scf
|  7> MaxIter 1000
|  8> end
|  9>
| 10> * xyz 0 1
| 11>   C                      -5.857692            3.293914             9.827698
| 12>   O                      -6.747446            4.192622             10.427490
| 13>   H                      -7.442084            4.299272             9.837414
| 14>   H                      -5.000361            3.085157             10.455396
| 15>   H                      -6.315586            2.270541             9.609744
| 16>   H                      -5.414708            3.642596             8.841099
| 17>   C                      -8.419995            4.983387             7.231056
| 18>   O                      -8.925307            4.145394             8.291104
| 19>   H                      -9.807980            4.169145             8.024877
| 20>   H                      -8.118618            5.961842             7.656485
| 21>   H                      -7.403915            4.578973             6.863070
| 22>   H                      -8.992139            5.220278             6.336531
| 23> *
| 24>
| 25> #Run DFT-D3 single point of the molecule with dimer basis set
| 26> $new_job
| 27> %base "8-187_DFT_A"
| 28> ! wB97X-D3 def2-TZVP TIGHTSCF CHELPG PMODEL
| 29>
| 30> %scf
| 31> MaxIter 1000
| 32> end
| 33>
| 34> * xyz 0 1
| 35>   C                      -5.857692            3.293914             9.827698
| 36>   O                      -6.747446            4.192622             10.427490
| 37>   H                      -7.442084            4.299272             9.837414
| 38>   H                      -5.000361            3.085157             10.455396
| 39>   H                      -6.315586            2.270541             9.609744
| 40>   H                      -5.414708            3.642596             8.841099
| 41>   C                    : -8.419995            4.983387             7.231056
| 42>   O                    : -8.925307            4.145394             8.291104
| 43>   H                    : -9.807980            4.169145             8.024877
| 44>   H                    : -8.118618            5.961842             7.656485
| 45>   H                    : -7.403915            4.578973             6.863070
| 46>   H                    : -8.992139            5.220278             6.336531
| 47> *
| 48>
| 49> #Run DFT-D3 single point of the particle with dimer basis set
| 50> $new_job
| 51> %base "8-187_DFT_B"
| 52> ! wB97X-D3 def2-TZVP TIGHTSCF CHELPG PMODEL
| 53>
| 54> %scf
| 55> MaxIter 1000
| 56> end
| 57>
| 58> * xyz 0 1
| 59>   C                    : -5.857692            3.293914             9.827698
| 60>   O                    : -6.747446            4.192622             10.427490
| 61>   H                    : -7.442084            4.299272             9.837414
| 62>   H                    : -5.000361            3.085157             10.455396
| 63>   H                    : -6.315586            2.270541             9.609744
| 64>   H                    : -5.414708            3.642596             8.841099
| 65>   C                      -8.419995            4.983387             7.231056
| 66>   O                      -8.925307            4.145394             8.291104
| 67>   H                      -9.807980            4.169145             8.024877
| 68>   H                      -8.118618            5.961842             7.656485
| 69>   H                      -7.403915            4.578973             6.863070
| 70>   H                      -8.992139            5.220278             6.336531
| 71> *
| 72>
| 73>                          ****END OF INPUT****
 Total Charge           Charge          ....    0
 Multiplicity           Mult            ....    1
 Number of Electrons    NEL             ....   36
Dispersion correction           -0.002035895
FINAL SINGLE POINT ENERGY      -231.462601713686
Dispersion correction           -0.000254922
FINAL SINGLE POINT ENERGY      -115.732839505311

CARTESIAN COORDINATES (ANGSTROEM)
---------------------------------
  C     -5.857692    3.293914    9.827698
  O     -6.747446    4.192622   10.427490
  H     -7.442084    4.299272    9.837414
  H     -5.000361    3.085157   10.455396
  H     -6.315586    2.270541    9.609744
  H     -5.414708    3.642596    8.841099
  C     -8.419995    4.983387    7.231056
  O     -8.925307    4.145394    8.291104
  H     -9.807980    4.169145    8.024877
  H     -8.118618    5.961842    7.656485
  H     -7.403915    4.578973    6.863070
  H     -8.992139    5.220278    6.336531

 Multiplicity           Mult            ....    1
 Number of Electrons    NEL             ....   18
 Basis Dimension        Dim             ....  172

ORBITAL ENERGIES
----------------

  NO   OCC          E(Eh)            E(eV)
   0   2.0000     -19.236910      -523.4629
   1   2.0000     -10.323226      -280.9093
   2   2.0000      -1.148124       -31.2420
   3   2.0000      -0.792989       -21.5783
   4   2.0000      -0.615220       -16.7410
   5   2.0000      -0.528039       -14.3687
   6   2.0000      -0.519105       -14.1256
   7   2.0000      -0.456817       -12.4306
   8   2.0000      -0.374908       -10.2018
   9   0.0000       0.096671         2.6306
  10   0.0000       0.128057         3.4846
  11   0.0000       0.146527         3.9872
  12   0.0000       0.180592         4.9141
  13   0.0000       0.182624         4.9694

MULLIKEN ATOMIC CHARGES
-----------------------
   0 C :    0.001735
   1 O :    0.000162
   2 H :   -0.006543
   3 H :   -0.000060
   4 H :   -0.001424
   5 H :   -0.000254
   6 C :   -0.210551
   7 O :   -0.432181
   8 H :    0.302815
   9 H :    0.109384
  10 H :    0.108015
  11 H :    0.128902
Sum of atomic charges:    0.0000000

LOEWDIN ATOMIC CHARGES
----------------------
   0 C :   -0.002739
   1 O :   -0.002174
   2 H :   -0.022164
   3 H :   -0.000021
   4 H :   -0.000583
   5 H :   -0.000716
   6 C :   -0.386034
   7 O :   -0.046973
   8 H :    0.147317
   9 H :    0.101296
  10 H :    0.113991
  11 H :    0.098801

  Mayer bond orders larger than 0.1
B(  6-C ,  7-O ) :   1.0056 B(  6-C ,  9-H ) :   0.9805 B(  6-C , 10-H ) :   0.9788
B(  6-C , 11-H ) :   0.9630 B(  7-O ,  8-H ) :   0.9127

Dispersion correction           -0.000266251
FINAL SINGLE POINT ENERGY      -115.723019184874

DIPOLE MOMENT
-------------
                                X             Y             Z
Electronic contribution:     -0.79601      -1.21968       1.43182
Nuclear contribution   :      0.41633       1.56129      -2.01390
                        -----------------------------------------
Total Dipole Moment    :     -0.37968       0.34161      -0.58208
                        -----------------------------------------
Magnitude (a.u.)       :      0.77439
Magnitude (Debye)      :      1.96834

Rotational constants in cm-1:     4.301738     0.803082     0.770466
Rotational constants in MHz : 128962.861762 24075.792370 23097.975338

                             ****ORCA TERMINATED NORMALLY****
TOTAL RUN TIME: 0 days 0 hours 0 minutes 46 seconds 705 msec
