                         Program Version 4.1.2  - RELEASE  -
|  1> #Run DFT-D3 single point of the dimer
|  2> ! wB97X-D3 def2-TZVP TIGHTSCF CHELPG PMODEL PAL8
|  3>
|  4> %base "22-80_DFT_AB"
|  5>
|  6> %scf
|  7> MaxIter 1000
|  8> end
|  9>
| 10> * xyz 0 1
| 11>   C                      3.729332             11.109176            -10.482602
| 12>   O                      4.755832             10.660201            -11.309026
| 13>   H                      4.517446             9.772490             -11.680235
| 14>   H                      2.665925             11.084278            -10.849776
| 15>   H                      3.787291             10.735170            -9.479246
| 16>   H                      3.875799             12.195148            -10.205744
| 17>   C                      1.712350             7.092165             -9.859886
| 18>   O                      0.647673             6.702122             -10.584614
| 19>   H                      -0.191494            7.045459             -10.239910
| 20>   H                      2.632574             6.529129             -10.155203
| 21>   H                      1.698346             8.255864             -9.854960
| 22>   H                      1.602084             6.903006             -8.794927
| 23> *
| 24>
| 25> #Run DFT-D3 single point of the molecule with dimer basis set
| 26> $new_job
| 27> %base "22-80_DFT_A"
| 28> ! wB97X-D3 def2-TZVP TIGHTSCF CHELPG PMODEL
| 29>
| 30> %scf
| 31> MaxIter 1000
| 32> end
| 33>
| 34> * xyz 0 1
| 35>   C                      3.729332             11.109176            -10.482602
| 36>   O                      4.755832             10.660201            -11.309026
| 37>   H                      4.517446             9.772490             -11.680235
| 38>   H                      2.665925             11.084278            -10.849776
| 39>   H                      3.787291             10.735170            -9.479246
| 40>   H                      3.875799             12.195148            -10.205744
| 41>   C                    : 1.712350             7.092165             -9.859886
| 42>   O                    : 0.647673             6.702122             -10.584614
| 43>   H                    : -0.191494            7.045459             -10.239910
| 44>   H                    : 2.632574             6.529129             -10.155203
| 45>   H                    : 1.698346             8.255864             -9.854960
| 46>   H                    : 1.602084             6.903006             -8.794927
| 47> *
| 48>
| 49> #Run DFT-D3 single point of the particle with dimer basis set
| 50> $new_job
| 51> %base "22-80_DFT_B"
| 52> ! wB97X-D3 def2-TZVP TIGHTSCF CHELPG PMODEL
| 53>
| 54> %scf
| 55> MaxIter 1000
| 56> end
| 57>
| 58> * xyz 0 1
| 59>   C                    : 3.729332             11.109176            -10.482602
| 60>   O                    : 4.755832             10.660201            -11.309026
| 61>   H                    : 4.517446             9.772490             -11.680235
| 62>   H                    : 2.665925             11.084278            -10.849776
| 63>   H                    : 3.787291             10.735170            -9.479246
| 64>   H                    : 3.875799             12.195148            -10.205744
| 65>   C                      1.712350             7.092165             -9.859886
| 66>   O                      0.647673             6.702122             -10.584614
| 67>   H                      -0.191494            7.045459             -10.239910
| 68>   H                      2.632574             6.529129             -10.155203
| 69>   H                      1.698346             8.255864             -9.854960
| 70>   H                      1.602084             6.903006             -8.794927
| 71> *
| 72>
| 73>                          ****END OF INPUT****
 Total Charge           Charge          ....    0
 Multiplicity           Mult            ....    1
 Number of Electrons    NEL             ....   36
Dispersion correction           -0.001109256
FINAL SINGLE POINT ENERGY      -231.453859065534
Dispersion correction           -0.000276529
FINAL SINGLE POINT ENERGY      -115.728776718961

CARTESIAN COORDINATES (ANGSTROEM)
---------------------------------
  C      3.729332   11.109176  -10.482602
  O      4.755832   10.660201  -11.309026
  H      4.517446    9.772490  -11.680235
  H      2.665925   11.084278  -10.849776
  H      3.787291   10.735170   -9.479246
  H      3.875799   12.195148  -10.205744
  C      1.712350    7.092165   -9.859886
  O      0.647673    6.702122  -10.584614
  H     -0.191494    7.045459  -10.239910
  H      2.632574    6.529129  -10.155203
  H      1.698346    8.255864   -9.854960
  H      1.602084    6.903006   -8.794927

 Multiplicity           Mult            ....    1
 Number of Electrons    NEL             ....   18
 Basis Dimension        Dim             ....  172

ORBITAL ENERGIES
----------------

  NO   OCC          E(Eh)            E(eV)
   0   2.0000     -19.229053      -523.2491
   1   2.0000     -10.317270      -280.7472
   2   2.0000      -1.155370       -31.4392
   3   2.0000      -0.788848       -21.4657
   4   2.0000      -0.626482       -17.0474
   5   2.0000      -0.551006       -14.9936
   6   2.0000      -0.525372       -14.2961
   7   2.0000      -0.426677       -11.6105
   8   2.0000      -0.360217        -9.8020
   9   0.0000       0.084188         2.2909
  10   0.0000       0.112998         3.0748
  11   0.0000       0.154090         4.1930
  12   0.0000       0.162675         4.4266
  13   0.0000       0.184333         5.0160

MULLIKEN ATOMIC CHARGES
-----------------------
   0 C :   -0.000224
   1 O :    0.000051
   2 H :   -0.000196
   3 H :    0.000052
   4 H :   -0.000643
   5 H :   -0.000049
   6 C :   -0.157817
   7 O :   -0.464259
   8 H :    0.321614
   9 H :    0.121713
  10 H :    0.085845
  11 H :    0.093913
Sum of atomic charges:    0.0000000

LOEWDIN ATOMIC CHARGES
----------------------
   0 C :   -0.002442
   1 O :   -0.000006
   2 H :   -0.000186
   3 H :   -0.000735
   4 H :   -0.000613
   5 H :   -0.000020
   6 C :   -0.448320
   7 O :   -0.033290
   8 H :    0.180117
   9 H :    0.116241
  10 H :    0.103113
  11 H :    0.086140

  Mayer bond orders larger than 0.1
B(  6-C ,  7-O ) :   1.0019 B(  6-C ,  9-H ) :   0.9650 B(  6-C , 10-H ) :   0.9868
B(  6-C , 11-H ) :   0.9715 B(  7-O ,  8-H ) :   0.8871

Dispersion correction           -0.000220540
FINAL SINGLE POINT ENERGY      -115.724153110515

DIPOLE MOMENT
-------------
                                X             Y             Z
Electronic contribution:     -1.26649      -0.71965      -1.17089
Nuclear contribution   :      1.07899       1.02697       1.67600
                        -----------------------------------------
Total Dipole Moment    :     -0.18749       0.30732       0.50511
                        -----------------------------------------
Magnitude (a.u.)       :      0.62027
Magnitude (Debye)      :      1.57661

Rotational constants in cm-1:     4.129439     0.901209     0.849072
Rotational constants in MHz : 123797.462596 27017.579722 25454.530835

                             ****ORCA TERMINATED NORMALLY****
TOTAL RUN TIME: 0 days 0 hours 0 minutes 52 seconds 532 msec
