                         Program Version 4.1.2  - RELEASE  -
|  1> #Run DFT-D3 single point of the dimer
|  2> ! wB97X-D3 def2-TZVP TIGHTSCF CHELPG PMODEL PAL8
|  3>
|  4> %base "2-82_DFT_AB"
|  5>
|  6> %scf
|  7> MaxIter 1000
|  8> end
|  9>
| 10> * xyz 0 1
| 11>   C                      3.109948             -9.032840            -10.902030
| 12>   O                      3.398500             -8.189306            -9.812126
| 13>   H                      2.667794             -8.164677            -9.192085
| 14>   H                      2.527054             -9.914284            -10.648775
| 15>   H                      2.584791             -8.426579            -11.676514
| 16>   H                      4.025159             -9.343973            -11.343113
| 17>   C                      -1.598563            -9.849119            -9.847761
| 18>   O                      -0.639537            -9.069205            -9.064952
| 19>   H                      -0.058667            -8.743097            -9.773553
| 20>   H                      -1.098768            -10.673463           -10.308640
| 21>   H                      -2.440803            -10.122738           -9.114453
| 22>   H                      -2.006305            -9.237265            -10.643936
| 23> *
| 24>
| 25> #Run DFT-D3 single point of the molecule with dimer basis set
| 26> $new_job
| 27> %base "2-82_DFT_A"
| 28> ! wB97X-D3 def2-TZVP TIGHTSCF CHELPG PMODEL
| 29>
| 30> %scf
| 31> MaxIter 1000
| 32> end
| 33>
| 34> * xyz 0 1
| 35>   C                      3.109948             -9.032840            -10.902030
| 36>   O                      3.398500             -8.189306            -9.812126
| 37>   H                      2.667794             -8.164677            -9.192085
| 38>   H                      2.527054             -9.914284            -10.648775
| 39>   H                      2.584791             -8.426579            -11.676514
| 40>   H                      4.025159             -9.343973            -11.343113
| 41>   C                    : -1.598563            -9.849119            -9.847761
| 42>   O                    : -0.639537            -9.069205            -9.064952
| 43>   H                    : -0.058667            -8.743097            -9.773553
| 44>   H                    : -1.098768            -10.673463           -10.308640
| 45>   H                    : -2.440803            -10.122738           -9.114453
| 46>   H                    : -2.006305            -9.237265            -10.643936
| 47> *
| 48>
| 49> #Run DFT-D3 single point of the particle with dimer basis set
| 50> $new_job
| 51> %base "2-82_DFT_B"
| 52> ! wB97X-D3 def2-TZVP TIGHTSCF CHELPG PMODEL
| 53>
| 54> %scf
| 55> MaxIter 1000
| 56> end
| 57>
| 58> * xyz 0 1
| 59>   C                    : 3.109948             -9.032840            -10.902030
| 60>   O                    : 3.398500             -8.189306            -9.812126
| 61>   H                    : 2.667794             -8.164677            -9.192085
| 62>   H                    : 2.527054             -9.914284            -10.648775
| 63>   H                    : 2.584791             -8.426579            -11.676514
| 64>   H                    : 4.025159             -9.343973            -11.343113
| 65>   C                      -1.598563            -9.849119            -9.847761
| 66>   O                      -0.639537            -9.069205            -9.064952
| 67>   H                      -0.058667            -8.743097            -9.773553
| 68>   H                      -1.098768            -10.673463           -10.308640
| 69>   H                      -2.440803            -10.122738           -9.114453
| 70>   H                      -2.006305            -9.237265            -10.643936
| 71> *
| 72>
| 73>                          ****END OF INPUT****
 Total Charge           Charge          ....    0
 Multiplicity           Mult            ....    1
 Number of Electrons    NEL             ....   36
Dispersion correction           -0.001364957
FINAL SINGLE POINT ENERGY      -231.467717471543
Dispersion correction           -0.000244312
FINAL SINGLE POINT ENERGY      -115.735521848919

CARTESIAN COORDINATES (ANGSTROEM)
---------------------------------
  C      3.109948   -9.032840  -10.902030
  O      3.398500   -8.189306   -9.812126
  H      2.667794   -8.164677   -9.192085
  H      2.527054   -9.914284  -10.648775
  H      2.584791   -8.426579  -11.676514
  H      4.025159   -9.343973  -11.343113
  C     -1.598563   -9.849119   -9.847761
  O     -0.639537   -9.069205   -9.064952
  H     -0.058667   -8.743097   -9.773553
  H     -1.098768  -10.673463  -10.308640
  H     -2.440803  -10.122738   -9.114453
  H     -2.006305   -9.237265  -10.643936

 Multiplicity           Mult            ....    1
 Number of Electrons    NEL             ....   18
 Basis Dimension        Dim             ....  172

ORBITAL ENERGIES
----------------

  NO   OCC          E(Eh)            E(eV)
   0   2.0000     -19.231288      -523.3099
   1   2.0000     -10.319034      -280.7952
   2   2.0000      -1.123785       -30.5798
   3   2.0000      -0.790784       -21.5183
   4   2.0000      -0.602813       -16.4034
   5   2.0000      -0.543037       -14.7768
   6   2.0000      -0.508683       -13.8420
   7   2.0000      -0.446025       -12.1370
   8   2.0000      -0.375033       -10.2052
   9   0.0000       0.073744         2.0067
  10   0.0000       0.126739         3.4487
  11   0.0000       0.149298         4.0626
  12   0.0000       0.174231         4.7411
  13   0.0000       0.180569         4.9135

MULLIKEN ATOMIC CHARGES
-----------------------
   0 C :   -0.000681
   1 O :    0.000404
   2 H :   -0.001077
   3 H :   -0.001935
   4 H :    0.000054
   5 H :   -0.000238
   6 C :   -0.187523
   7 O :   -0.468306
   8 H :    0.310115
   9 H :    0.113933
  10 H :    0.124150
  11 H :    0.111105
Sum of atomic charges:    0.0000000

LOEWDIN ATOMIC CHARGES
----------------------
   0 C :   -0.002065
   1 O :   -0.000058
   2 H :   -0.001139
   3 H :   -0.000951
   4 H :   -0.000187
   5 H :   -0.000049
   6 C :   -0.355944
   7 O :   -0.117018
   8 H :    0.172541
   9 H :    0.089799
  10 H :    0.122215
  11 H :    0.092854

  Mayer bond orders larger than 0.1
B(  6-C ,  7-O ) :   0.9929 B(  6-C ,  9-H ) :   0.9698 B(  6-C , 10-H ) :   0.9724
B(  6-C , 11-H ) :   0.9792 B(  7-O ,  8-H ) :   0.9056

Dispersion correction           -0.000226664
FINAL SINGLE POINT ENERGY      -115.731164322987

DIPOLE MOMENT
-------------
                                X             Y             Z
Electronic contribution:      1.09606       0.83406       1.06466
Nuclear contribution   :     -1.14261      -0.94749      -1.82948
                        -----------------------------------------
Total Dipole Moment    :     -0.04655      -0.11344      -0.76482
                        -----------------------------------------
Magnitude (a.u.)       :      0.77459
Magnitude (Debye)      :      1.96885

Rotational constants in cm-1:     4.051866     0.807471     0.766745
Rotational constants in MHz : 121471.878244 24207.376819 22986.422845

                             ****ORCA TERMINATED NORMALLY****
TOTAL RUN TIME: 0 days 0 hours 6 minutes 0 seconds 95 msec
