                         Program Version 4.1.2  - RELEASE  -
|  1> #Run DFT-D3 single point of the dimer
|  2> ! wB97X-D3 def2-TZVP TIGHTSCF CHELPG PMODEL PAL8
|  3>
|  4> %base "21-170_DFT_AB"
|  5>
|  6> %scf
|  7> MaxIter 1000
|  8> end
|  9>
| 10> * xyz 0 1
| 11>   C                      -3.398559            9.277242             -8.201790
| 12>   O                      -4.032347            8.859870             -6.981155
| 13>   H                      -4.233224            9.611003             -6.382598
| 14>   H                      -2.373946            9.338020             -8.026771
| 15>   H                      -3.484931            8.505441             -8.993622
| 16>   H                      -3.785504            10.262232            -8.579061
| 17>   C                      -4.889492            5.088213             -7.807620
| 18>   O                      -5.284673            6.187908             -6.949680
| 19>   H                      -4.981875            6.985051             -7.422708
| 20>   H                      -5.218055            5.066944             -8.850541
| 21>   H                      -3.803294            5.005692             -7.858541
| 22>   H                      -5.186663            4.075918             -7.382525
| 23> *
| 24>
| 25> #Run DFT-D3 single point of the molecule with dimer basis set
| 26> $new_job
| 27> %base "21-170_DFT_A"
| 28> ! wB97X-D3 def2-TZVP TIGHTSCF CHELPG PMODEL
| 29>
| 30> %scf
| 31> MaxIter 1000
| 32> end
| 33>
| 34> * xyz 0 1
| 35>   C                      -3.398559            9.277242             -8.201790
| 36>   O                      -4.032347            8.859870             -6.981155
| 37>   H                      -4.233224            9.611003             -6.382598
| 38>   H                      -2.373946            9.338020             -8.026771
| 39>   H                      -3.484931            8.505441             -8.993622
| 40>   H                      -3.785504            10.262232            -8.579061
| 41>   C                    : -4.889492            5.088213             -7.807620
| 42>   O                    : -5.284673            6.187908             -6.949680
| 43>   H                    : -4.981875            6.985051             -7.422708
| 44>   H                    : -5.218055            5.066944             -8.850541
| 45>   H                    : -3.803294            5.005692             -7.858541
| 46>   H                    : -5.186663            4.075918             -7.382525
| 47> *
| 48>
| 49> #Run DFT-D3 single point of the particle with dimer basis set
| 50> $new_job
| 51> %base "21-170_DFT_B"
| 52> ! wB97X-D3 def2-TZVP TIGHTSCF CHELPG PMODEL
| 53>
| 54> %scf
| 55> MaxIter 1000
| 56> end
| 57>
| 58> * xyz 0 1
| 59>   C                    : -3.398559            9.277242             -8.201790
| 60>   O                    : -4.032347            8.859870             -6.981155
| 61>   H                    : -4.233224            9.611003             -6.382598
| 62>   H                    : -2.373946            9.338020             -8.026771
| 63>   H                    : -3.484931            8.505441             -8.993622
| 64>   H                    : -3.785504            10.262232            -8.579061
| 65>   C                      -4.889492            5.088213             -7.807620
| 66>   O                      -5.284673            6.187908             -6.949680
| 67>   H                      -4.981875            6.985051             -7.422708
| 68>   H                      -5.218055            5.066944             -8.850541
| 69>   H                      -3.803294            5.005692             -7.858541
| 70>   H                      -5.186663            4.075918             -7.382525
| 71> *
| 72>
| 73>                          ****END OF INPUT****
 Total Charge           Charge          ....    0
 Multiplicity           Mult            ....    1
 Number of Electrons    NEL             ....   36
Dispersion correction           -0.001663996
FINAL SINGLE POINT ENERGY      -231.466976159382
Dispersion correction           -0.000262126
FINAL SINGLE POINT ENERGY      -115.731409145145

CARTESIAN COORDINATES (ANGSTROEM)
---------------------------------
  C     -3.398559    9.277242   -8.201790
  O     -4.032347    8.859870   -6.981155
  H     -4.233224    9.611003   -6.382598
  H     -2.373946    9.338020   -8.026771
  H     -3.484931    8.505441   -8.993622
  H     -3.785504   10.262232   -8.579061
  C     -4.889492    5.088213   -7.807620
  O     -5.284673    6.187908   -6.949680
  H     -4.981875    6.985051   -7.422708
  H     -5.218055    5.066944   -8.850541
  H     -3.803294    5.005692   -7.858541
  H     -5.186663    4.075918   -7.382525

 Multiplicity           Mult            ....    1
 Number of Electrons    NEL             ....   18
 Basis Dimension        Dim             ....  172

ORBITAL ENERGIES
----------------

  NO   OCC          E(Eh)            E(eV)
   0   2.0000     -19.239342      -523.5291
   1   2.0000     -10.320666      -280.8396
   2   2.0000      -1.127968       -30.6936
   3   2.0000      -0.794703       -21.6250
   4   2.0000      -0.605987       -16.4898
   5   2.0000      -0.533806       -14.5256
   6   2.0000      -0.519120       -14.1260
   7   2.0000      -0.439473       -11.9587
   8   2.0000      -0.378237       -10.2923
   9   0.0000       0.069553         1.8926
  10   0.0000       0.128936         3.5085
  11   0.0000       0.143982         3.9180
  12   0.0000       0.165482         4.5030
  13   0.0000       0.189576         5.1586

MULLIKEN ATOMIC CHARGES
-----------------------
   0 C :   -0.003035
   1 O :   -0.001346
   2 H :   -0.000179
   3 H :    0.000247
   4 H :   -0.000033
   5 H :   -0.000047
   6 C :   -0.188311
   7 O :   -0.461890
   8 H :    0.313577
   9 H :    0.111640
  10 H :    0.110358
  11 H :    0.119020
Sum of atomic charges:    0.0000000

LOEWDIN ATOMIC CHARGES
----------------------
   0 C :   -0.004316
   1 O :   -0.012079
   2 H :   -0.000595
   3 H :   -0.000066
   4 H :   -0.000996
   5 H :   -0.000060
   6 C :   -0.378053
   7 O :   -0.093010
   8 H :    0.183019
   9 H :    0.094764
  10 H :    0.094189
  11 H :    0.117203

  Mayer bond orders larger than 0.1
B(  6-C ,  7-O ) :   1.0006 B(  6-C ,  9-H ) :   0.9687 B(  6-C , 10-H ) :   0.9752
B(  6-C , 11-H ) :   0.9741 B(  7-O ,  8-H ) :   0.9035

Dispersion correction           -0.000276928
FINAL SINGLE POINT ENERGY      -115.731148516388

DIPOLE MOMENT
-------------
                                X             Y             Z
Electronic contribution:     -0.68160       1.44812       1.19466
Nuclear contribution   :      1.03925      -1.41249      -1.83388
                        -----------------------------------------
Total Dipole Moment    :      0.35765       0.03563      -0.63922
                        -----------------------------------------
Magnitude (a.u.)       :      0.73334
Magnitude (Debye)      :      1.86400

Rotational constants in cm-1:     4.337783     0.786360     0.754803
Rotational constants in MHz : 130043.466662 23574.475377 22628.410189

                             ****ORCA TERMINATED NORMALLY****
TOTAL RUN TIME: 0 days 0 hours 1 minutes 7 seconds 650 msec
