                         Program Version 4.1.2  - RELEASE  -
|  1> #Run DFT-D3 single point of the dimer
|  2> ! wB97X-D3 def2-TZVP TIGHTSCF CHELPG PMODEL PAL8
|  3>
|  4> %base "15-129_DFT_AB"
|  5>
|  6> %scf
|  7> MaxIter 1000
|  8> end
|  9>
| 10> * xyz 0 1
| 11>   C                      0.512501             8.461024             -0.689806
| 12>   O                      -0.712721            7.890156             -0.211231
| 13>   H                      -0.662369            6.949089             -0.202390
| 14>   H                      0.578281             8.470859             -1.785892
| 15>   H                      0.672981             9.551212             -0.568216
| 16>   H                      1.340160             7.905085             -0.222265
| 17>   C                      0.197106             5.643279             -2.810635
| 18>   O                      0.990186             6.638446             -3.502178
| 19>   H                      0.467502             7.018824             -4.265643
| 20>   H                      0.725189             4.808074             -2.264387
| 21>   H                      -0.343198            6.242626             -2.087123
| 22>   H                      -0.659478            5.169632             -3.309473
| 23> *
| 24>
| 25> #Run DFT-D3 single point of the molecule with dimer basis set
| 26> $new_job
| 27> %base "15-129_DFT_A"
| 28> ! wB97X-D3 def2-TZVP TIGHTSCF CHELPG PMODEL
| 29>
| 30> %scf
| 31> MaxIter 1000
| 32> end
| 33>
| 34> * xyz 0 1
| 35>   C                      0.512501             8.461024             -0.689806
| 36>   O                      -0.712721            7.890156             -0.211231
| 37>   H                      -0.662369            6.949089             -0.202390
| 38>   H                      0.578281             8.470859             -1.785892
| 39>   H                      0.672981             9.551212             -0.568216
| 40>   H                      1.340160             7.905085             -0.222265
| 41>   C                    : 0.197106             5.643279             -2.810635
| 42>   O                    : 0.990186             6.638446             -3.502178
| 43>   H                    : 0.467502             7.018824             -4.265643
| 44>   H                    : 0.725189             4.808074             -2.264387
| 45>   H                    : -0.343198            6.242626             -2.087123
| 46>   H                    : -0.659478            5.169632             -3.309473
| 47> *
| 48>
| 49> #Run DFT-D3 single point of the particle with dimer basis set
| 50> $new_job
| 51> %base "15-129_DFT_B"
| 52> ! wB97X-D3 def2-TZVP TIGHTSCF CHELPG PMODEL
| 53>
| 54> %scf
| 55> MaxIter 1000
| 56> end
| 57>
| 58> * xyz 0 1
| 59>   C                    : 0.512501             8.461024             -0.689806
| 60>   O                    : -0.712721            7.890156             -0.211231
| 61>   H                    : -0.662369            6.949089             -0.202390
| 62>   H                    : 0.578281             8.470859             -1.785892
| 63>   H                    : 0.672981             9.551212             -0.568216
| 64>   H                    : 1.340160             7.905085             -0.222265
| 65>   C                      0.197106             5.643279             -2.810635
| 66>   O                      0.990186             6.638446             -3.502178
| 67>   H                      0.467502             7.018824             -4.265643
| 68>   H                      0.725189             4.808074             -2.264387
| 69>   H                      -0.343198            6.242626             -2.087123
| 70>   H                      -0.659478            5.169632             -3.309473
| 71> *
| 72>
| 73>                          ****END OF INPUT****
 Total Charge           Charge          ....    0
 Multiplicity           Mult            ....    1
 Number of Electrons    NEL             ....   36
Dispersion correction           -0.002301121
FINAL SINGLE POINT ENERGY      -231.451858544599
Dispersion correction           -0.000264612
FINAL SINGLE POINT ENERGY      -115.728695992921

CARTESIAN COORDINATES (ANGSTROEM)
---------------------------------
  C      0.512501    8.461024   -0.689806
  O     -0.712721    7.890156   -0.211231
  H     -0.662369    6.949089   -0.202390
  H      0.578281    8.470859   -1.785892
  H      0.672981    9.551212   -0.568216
  H      1.340160    7.905085   -0.222265
  C      0.197106    5.643279   -2.810635
  O      0.990186    6.638446   -3.502178
  H      0.467502    7.018824   -4.265643
  H      0.725189    4.808074   -2.264387
  H     -0.343198    6.242626   -2.087123
  H     -0.659478    5.169632   -3.309473

 Multiplicity           Mult            ....    1
 Number of Electrons    NEL             ....   18
 Basis Dimension        Dim             ....  172

ORBITAL ENERGIES
----------------

  NO   OCC          E(Eh)            E(eV)
   0   2.0000     -19.237268      -523.4727
   1   2.0000     -10.318855      -280.7903
   2   2.0000      -1.119942       -30.4752
   3   2.0000      -0.795074       -21.6351
   4   2.0000      -0.605985       -16.4897
   5   2.0000      -0.535744       -14.5783
   6   2.0000      -0.513512       -13.9734
   7   2.0000      -0.436775       -11.8852
   8   2.0000      -0.369326       -10.0499
   9   0.0000       0.092993         2.5305
  10   0.0000       0.119293         3.2461
  11   0.0000       0.142394         3.8747
  12   0.0000       0.178004         4.8437
  13   0.0000       0.193884         5.2759

MULLIKEN ATOMIC CHARGES
-----------------------
   0 C :    0.014462
   1 O :    0.000066
   2 H :   -0.000903
   3 H :   -0.015288
   4 H :    0.000112
   5 H :   -0.001797
   6 C :   -0.189601
   7 O :   -0.474441
   8 H :    0.322583
   9 H :    0.126044
  10 H :    0.101404
  11 H :    0.117359
Sum of atomic charges:    0.0000000

LOEWDIN ATOMIC CHARGES
----------------------
   0 C :   -0.011220
   1 O :   -0.004148
   2 H :   -0.010063
   3 H :   -0.011756
   4 H :   -0.000046
   5 H :   -0.000448
   6 C :   -0.372272
   7 O :   -0.103612
   8 H :    0.192397
   9 H :    0.115969
  10 H :    0.106780
  11 H :    0.098420

  Mayer bond orders larger than 0.1
B(  6-C ,  7-O ) :   0.9929 B(  6-C ,  9-H ) :   0.9688 B(  6-C , 10-H ) :   0.9868
B(  6-C , 11-H ) :   0.9695 B(  7-O ,  8-H ) :   0.8879

Dispersion correction           -0.000284063
FINAL SINGLE POINT ENERGY      -115.722408828771

DIPOLE MOMENT
-------------
                                X             Y             Z
Electronic contribution:      1.28911       1.14355      -0.93349
Nuclear contribution   :     -1.97067      -1.31143       0.72996
                        -----------------------------------------
Total Dipole Moment    :     -0.68156      -0.16788      -0.20352
                        -----------------------------------------
Magnitude (a.u.)       :      0.73084
Magnitude (Debye)      :      1.85766

Rotational constants in cm-1:     4.401517     0.784511     0.750023
Rotational constants in MHz : 131954.159274 23519.045334 22485.113945

                             ****ORCA TERMINATED NORMALLY****
TOTAL RUN TIME: 0 days 0 hours 1 minutes 2 seconds 686 msec
