                         Program Version 4.1.2  - RELEASE  -
|  1> #Run DFT-D3 single point of the dimer
|  2> ! wB97X-D3 def2-TZVP TIGHTSCF CHELPG PMODEL PAL8
|  3>
|  4> %base "15-140_DFT_AB"
|  5>
|  6> %scf
|  7> MaxIter 1000
|  8> end
|  9>
| 10> * xyz 0 1
| 11>   C                      0.539348             -7.166168            0.517284
| 12>   O                      0.719637             -6.836601            -0.852378
| 13>   H                      -0.086676            -6.402254            -1.195676
| 14>   H                      1.415332             -7.554984            1.038854
| 15>   H                      0.234247             -6.288057            1.056190
| 16>   H                      -0.304731            -7.862906            0.678743
| 17>   C                      -2.952406            -6.498806            -0.162085
| 18>   O                      -1.905916            -5.710935            -0.784675
| 19>   H                      -2.092561            -5.473080            -1.718992
| 20>   H                      -3.475766            -5.887332            0.641250
| 21>   H                      -3.772280            -6.829734            -0.810482
| 22>   H                      -2.580405            -7.336790            0.338311
| 23> *
| 24>
| 25> #Run DFT-D3 single point of the molecule with dimer basis set
| 26> $new_job
| 27> %base "15-140_DFT_A"
| 28> ! wB97X-D3 def2-TZVP TIGHTSCF CHELPG PMODEL
| 29>
| 30> %scf
| 31> MaxIter 1000
| 32> end
| 33>
| 34> * xyz 0 1
| 35>   C                      0.539348             -7.166168            0.517284
| 36>   O                      0.719637             -6.836601            -0.852378
| 37>   H                      -0.086676            -6.402254            -1.195676
| 38>   H                      1.415332             -7.554984            1.038854
| 39>   H                      0.234247             -6.288057            1.056190
| 40>   H                      -0.304731            -7.862906            0.678743
| 41>   C                    : -2.952406            -6.498806            -0.162085
| 42>   O                    : -1.905916            -5.710935            -0.784675
| 43>   H                    : -2.092561            -5.473080            -1.718992
| 44>   H                    : -3.475766            -5.887332            0.641250
| 45>   H                    : -3.772280            -6.829734            -0.810482
| 46>   H                    : -2.580405            -7.336790            0.338311
| 47> *
| 48>
| 49> #Run DFT-D3 single point of the particle with dimer basis set
| 50> $new_job
| 51> %base "15-140_DFT_B"
| 52> ! wB97X-D3 def2-TZVP TIGHTSCF CHELPG PMODEL
| 53>
| 54> %scf
| 55> MaxIter 1000
| 56> end
| 57>
| 58> * xyz 0 1
| 59>   C                    : 0.539348             -7.166168            0.517284
| 60>   O                    : 0.719637             -6.836601            -0.852378
| 61>   H                    : -0.086676            -6.402254            -1.195676
| 62>   H                    : 1.415332             -7.554984            1.038854
| 63>   H                    : 0.234247             -6.288057            1.056190
| 64>   H                    : -0.304731            -7.862906            0.678743
| 65>   C                      -2.952406            -6.498806            -0.162085
| 66>   O                      -1.905916            -5.710935            -0.784675
| 67>   H                      -2.092561            -5.473080            -1.718992
| 68>   H                      -3.475766            -5.887332            0.641250
| 69>   H                      -3.772280            -6.829734            -0.810482
| 70>   H                      -2.580405            -7.336790            0.338311
| 71> *
| 72>
| 73>                          ****END OF INPUT****
 Total Charge           Charge          ....    0
 Multiplicity           Mult            ....    1
 Number of Electrons    NEL             ....   36
Dispersion correction           -0.002316786
FINAL SINGLE POINT ENERGY      -231.469568708834
Dispersion correction           -0.000245592
FINAL SINGLE POINT ENERGY      -115.733239871065

CARTESIAN COORDINATES (ANGSTROEM)
---------------------------------
  C      0.539348   -7.166168    0.517284
  O      0.719637   -6.836601   -0.852378
  H     -0.086676   -6.402254   -1.195676
  H      1.415332   -7.554984    1.038854
  H      0.234247   -6.288057    1.056190
  H     -0.304731   -7.862906    0.678743
  C     -2.952406   -6.498806   -0.162085
  O     -1.905916   -5.710935   -0.784675
  H     -2.092561   -5.473080   -1.718992
  H     -3.475766   -5.887332    0.641250
  H     -3.772280   -6.829734   -0.810482
  H     -2.580405   -7.336790    0.338311

 Multiplicity           Mult            ....    1
 Number of Electrons    NEL             ....   18
 Basis Dimension        Dim             ....  172

ORBITAL ENERGIES
----------------

  NO   OCC          E(Eh)            E(eV)
   0   2.0000     -19.233878      -523.3804
   1   2.0000     -10.316648      -280.7303
   2   2.0000      -1.119154       -30.4537
   3   2.0000      -0.800814       -21.7913
   4   2.0000      -0.607172       -16.5220
   5   2.0000      -0.536468       -14.5980
   6   2.0000      -0.519578       -14.1384
   7   2.0000      -0.433575       -11.7982
   8   2.0000      -0.373485       -10.1630
   9   0.0000       0.098994         2.6938
  10   0.0000       0.127392         3.4665
  11   0.0000       0.145718         3.9652
  12   0.0000       0.189978         5.1696
  13   0.0000       0.196126         5.3369

MULLIKEN ATOMIC CHARGES
-----------------------
   0 C :    0.017514
   1 O :   -0.000209
   2 H :   -0.022162
   3 H :    0.000162
   4 H :   -0.005246
   5 H :   -0.002162
   6 C :   -0.178098
   7 O :   -0.482944
   8 H :    0.321954
   9 H :    0.106648
  10 H :    0.116378
  11 H :    0.128166
Sum of atomic charges:    0.0000000

LOEWDIN ATOMIC CHARGES
----------------------
   0 C :   -0.011016
   1 O :   -0.006207
   2 H :   -0.039827
   3 H :   -0.000080
   4 H :   -0.002758
   5 H :   -0.003341
   6 C :   -0.356117
   7 O :   -0.063138
   8 H :    0.180680
   9 H :    0.108997
  10 H :    0.099602
  11 H :    0.093205

  Mayer bond orders larger than 0.1
B(  6-C ,  7-O ) :   0.9995 B(  6-C ,  9-H ) :   0.9783 B(  6-C , 10-H ) :   0.9730
B(  6-C , 11-H ) :   0.9743 B(  7-O ,  8-H ) :   0.8894

Dispersion correction           -0.000291818
FINAL SINGLE POINT ENERGY      -115.730079052233

DIPOLE MOMENT
-------------
                                X             Y             Z
Electronic contribution:      1.46387       0.88800      -0.77277
Nuclear contribution   :     -2.04444      -1.08662       0.42300
                        -----------------------------------------
Total Dipole Moment    :     -0.58056      -0.19863      -0.34976
                        -----------------------------------------
Magnitude (a.u.)       :      0.70629
Magnitude (Debye)      :      1.79524

Rotational constants in cm-1:     4.448447     0.780605     0.754637
Rotational constants in MHz : 133361.075598 23401.949502 22623.458617

                             ****ORCA TERMINATED NORMALLY****
TOTAL RUN TIME: 0 days 0 hours 1 minutes 4 seconds 404 msec
