                         Program Version 4.1.2  - RELEASE  -
|  1> #Run DFT-D3 single point of the dimer
|  2> ! wB97X-D3 def2-TZVP TIGHTSCF CHELPG PMODEL PAL8
|  3>
|  4> %base "2-101_DFT_AB"
|  5>
|  6> %scf
|  7> MaxIter 1000
|  8> end
|  9>
| 10> * xyz 0 1
| 11>   C                      10.131559            -0.929883            -3.069840
| 12>   O                      8.749478             -0.835584            -3.413896
| 13>   H                      8.295501             -1.609561            -3.197512
| 14>   H                      10.881002            -1.133662            -3.916814
| 15>   H                      10.518113            -0.027949            -2.527007
| 16>   H                      10.152257            -1.698416            -2.209900
| 17>   C                      10.372420            -1.240965            1.031250
| 18>   O                      9.106789             -1.706658            0.669146
| 19>   H                      8.483005             -1.010757            0.932490
| 20>   H                      11.044055            -1.040316            0.125989
| 21>   H                      10.309781            -0.262270            1.502781
| 22>   H                      10.820888            -1.962031            1.699189
| 23> *
| 24>
| 25> #Run DFT-D3 single point of the molecule with dimer basis set
| 26> $new_job
| 27> %base "2-101_DFT_A"
| 28> ! wB97X-D3 def2-TZVP TIGHTSCF CHELPG PMODEL
| 29>
| 30> %scf
| 31> MaxIter 1000
| 32> end
| 33>
| 34> * xyz 0 1
| 35>   C                      10.131559            -0.929883            -3.069840
| 36>   O                      8.749478             -0.835584            -3.413896
| 37>   H                      8.295501             -1.609561            -3.197512
| 38>   H                      10.881002            -1.133662            -3.916814
| 39>   H                      10.518113            -0.027949            -2.527007
| 40>   H                      10.152257            -1.698416            -2.209900
| 41>   C                    : 10.372420            -1.240965            1.031250
| 42>   O                    : 9.106789             -1.706658            0.669146
| 43>   H                    : 8.483005             -1.010757            0.932490
| 44>   H                    : 11.044055            -1.040316            0.125989
| 45>   H                    : 10.309781            -0.262270            1.502781
| 46>   H                    : 10.820888            -1.962031            1.699189
| 47> *
| 48>
| 49> #Run DFT-D3 single point of the particle with dimer basis set
| 50> $new_job
| 51> %base "2-101_DFT_B"
| 52> ! wB97X-D3 def2-TZVP TIGHTSCF CHELPG PMODEL
| 53>
| 54> %scf
| 55> MaxIter 1000
| 56> end
| 57>
| 58> * xyz 0 1
| 59>   C                    : 10.131559            -0.929883            -3.069840
| 60>   O                    : 8.749478             -0.835584            -3.413896
| 61>   H                    : 8.295501             -1.609561            -3.197512
| 62>   H                    : 10.881002            -1.133662            -3.916814
| 63>   H                    : 10.518113            -0.027949            -2.527007
| 64>   H                    : 10.152257            -1.698416            -2.209900
| 65>   C                      10.372420            -1.240965            1.031250
| 66>   O                      9.106789             -1.706658            0.669146
| 67>   H                      8.483005             -1.010757            0.932490
| 68>   H                      11.044055            -1.040316            0.125989
| 69>   H                      10.309781            -0.262270            1.502781
| 70>   H                      10.820888            -1.962031            1.699189
| 71> *
| 72>
| 73>                          ****END OF INPUT****
 Total Charge           Charge          ....    0
 Multiplicity           Mult            ....    1
 Number of Electrons    NEL             ....   36
Dispersion correction           -0.001636217
FINAL SINGLE POINT ENERGY      -231.459504465314
Dispersion correction           -0.000278317
FINAL SINGLE POINT ENERGY      -115.724270709042

CARTESIAN COORDINATES (ANGSTROEM)
---------------------------------
  C     10.131559   -0.929883   -3.069840
  O      8.749478   -0.835584   -3.413896
  H      8.295501   -1.609561   -3.197512
  H     10.881002   -1.133662   -3.916814
  H     10.518113   -0.027949   -2.527007
  H     10.152257   -1.698416   -2.209900
  C     10.372420   -1.240965    1.031250
  O      9.106789   -1.706658    0.669146
  H      8.483005   -1.010757    0.932490
  H     11.044055   -1.040316    0.125989
  H     10.309781   -0.262270    1.502781
  H     10.820888   -1.962031    1.699189

 Multiplicity           Mult            ....    1
 Number of Electrons    NEL             ....   18
 Basis Dimension        Dim             ....  172

ORBITAL ENERGIES
----------------

  NO   OCC          E(Eh)            E(eV)
   0   2.0000     -19.231975      -523.3286
   1   2.0000     -10.314138      -280.6620
   2   2.0000      -1.142172       -31.0801
   3   2.0000      -0.789776       -21.4909
   4   2.0000      -0.616685       -16.7808
   5   2.0000      -0.543859       -14.7992
   6   2.0000      -0.524582       -14.2746
   7   2.0000      -0.433442       -11.7945
   8   2.0000      -0.372274       -10.1301
   9   0.0000       0.090054         2.4505
  10   0.0000       0.118790         3.2324
  11   0.0000       0.148804         4.0491
  12   0.0000       0.181211         4.9310
  13   0.0000       0.190503         5.1838

MULLIKEN ATOMIC CHARGES
-----------------------
   0 C :   -0.000994
   1 O :   -0.000024
   2 H :   -0.000498
   3 H :    0.000137
   4 H :   -0.000614
   5 H :    0.000874
   6 C :   -0.177265
   7 O :   -0.461458
   8 H :    0.318054
   9 H :    0.099252
  10 H :    0.105176
  11 H :    0.117362
Sum of atomic charges:    0.0000000

LOEWDIN ATOMIC CHARGES
----------------------
   0 C :   -0.003137
   1 O :   -0.000151
   2 H :   -0.000390
   3 H :   -0.000020
   4 H :   -0.000832
   5 H :   -0.002739
   6 C :   -0.404021
   7 O :   -0.067284
   8 H :    0.179444
   9 H :    0.106531
  10 H :    0.094414
  11 H :    0.098185

  Mayer bond orders larger than 0.1
B(  6-C ,  7-O ) :   1.0083 B(  6-C ,  9-H ) :   0.9707 B(  6-C , 10-H ) :   0.9870
B(  6-C , 11-H ) :   0.9765 B(  7-O ,  8-H ) :   0.8992

Dispersion correction           -0.000239928
FINAL SINGLE POINT ENERGY      -115.732775877022

DIPOLE MOMENT
-------------
                                X             Y             Z
Electronic contribution:     -1.62498      -0.79335      -0.45214
Nuclear contribution   :      1.68022       1.43348       0.78684
                        -----------------------------------------
Total Dipole Moment    :      0.05524       0.64012       0.33470
                        -----------------------------------------
Magnitude (a.u.)       :      0.72445
Magnitude (Debye)      :      1.84141

Rotational constants in cm-1:     4.186555     0.846903     0.819852
Rotational constants in MHz : 125509.764201 25389.516628 24578.546155

                             ****ORCA TERMINATED NORMALLY****
TOTAL RUN TIME: 0 days 0 hours 4 minutes 47 seconds 193 msec
