                         Program Version 4.1.2  - RELEASE  -
|  1> #Run DFT-D3 single point of the dimer
|  2> ! wB97X-D3 def2-TZVP TIGHTSCF CHELPG PMODEL PAL8
|  3>
|  4> %base "3-34_DFT_AB"
|  5>
|  6> %scf
|  7> MaxIter 1000
|  8> end
|  9>
| 10> * xyz 0 1
| 11>   C                      -4.983724            -1.861540            -7.037725
| 12>   O                      -5.308556            -0.500746            -6.993364
| 13>   H                      -5.230599            -0.272961            -7.890385
| 14>   H                      -4.141318            -2.148880            -7.659056
| 15>   H                      -4.764248            -2.337265            -6.067641
| 16>   H                      -5.873911            -2.396272            -7.501663
| 17>   C                      -5.693072            1.112097             -3.767097
| 18>   O                      -6.108488            1.713460             -2.566644
| 19>   H                      -6.511621            1.097057             -1.946003
| 20>   H                      -5.085930            0.251614             -3.445419
| 21>   H                      -6.602067            0.636664             -4.169847
| 22>   H                      -5.104219            1.728336             -4.437093
| 23> *
| 24>
| 25> #Run DFT-D3 single point of the molecule with dimer basis set
| 26> $new_job
| 27> %base "3-34_DFT_A"
| 28> ! wB97X-D3 def2-TZVP TIGHTSCF CHELPG PMODEL
| 29>
| 30> %scf
| 31> MaxIter 1000
| 32> end
| 33>
| 34> * xyz 0 1
| 35>   C                      -4.983724            -1.861540            -7.037725
| 36>   O                      -5.308556            -0.500746            -6.993364
| 37>   H                      -5.230599            -0.272961            -7.890385
| 38>   H                      -4.141318            -2.148880            -7.659056
| 39>   H                      -4.764248            -2.337265            -6.067641
| 40>   H                      -5.873911            -2.396272            -7.501663
| 41>   C                    : -5.693072            1.112097             -3.767097
| 42>   O                    : -6.108488            1.713460             -2.566644
| 43>   H                    : -6.511621            1.097057             -1.946003
| 44>   H                    : -5.085930            0.251614             -3.445419
| 45>   H                    : -6.602067            0.636664             -4.169847
| 46>   H                    : -5.104219            1.728336             -4.437093
| 47> *
| 48>
| 49> #Run DFT-D3 single point of the particle with dimer basis set
| 50> $new_job
| 51> %base "3-34_DFT_B"
| 52> ! wB97X-D3 def2-TZVP TIGHTSCF CHELPG PMODEL
| 53>
| 54> %scf
| 55> MaxIter 1000
| 56> end
| 57>
| 58> * xyz 0 1
| 59>   C                    : -4.983724            -1.861540            -7.037725
| 60>   O                    : -5.308556            -0.500746            -6.993364
| 61>   H                    : -5.230599            -0.272961            -7.890385
| 62>   H                    : -4.141318            -2.148880            -7.659056
| 63>   H                    : -4.764248            -2.337265            -6.067641
| 64>   H                    : -5.873911            -2.396272            -7.501663
| 65>   C                      -5.693072            1.112097             -3.767097
| 66>   O                      -6.108488            1.713460             -2.566644
| 67>   H                      -6.511621            1.097057             -1.946003
| 68>   H                      -5.085930            0.251614             -3.445419
| 69>   H                      -6.602067            0.636664             -4.169847
| 70>   H                      -5.104219            1.728336             -4.437093
| 71> *
| 72>
| 73>                          ****END OF INPUT****
 Total Charge           Charge          ....    0
 Multiplicity           Mult            ....    1
 Number of Electrons    NEL             ....   36
Dispersion correction           -0.001227019
FINAL SINGLE POINT ENERGY      -231.458454941963
Dispersion correction           -0.000226256
FINAL SINGLE POINT ENERGY      -115.729775984490

CARTESIAN COORDINATES (ANGSTROEM)
---------------------------------
  C     -4.983724   -1.861540   -7.037725
  O     -5.308556   -0.500746   -6.993364
  H     -5.230599   -0.272961   -7.890385
  H     -4.141318   -2.148880   -7.659056
  H     -4.764248   -2.337265   -6.067641
  H     -5.873911   -2.396272   -7.501663
  C     -5.693072    1.112097   -3.767097
  O     -6.108488    1.713460   -2.566644
  H     -6.511621    1.097057   -1.946003
  H     -5.085930    0.251614   -3.445419
  H     -6.602067    0.636664   -4.169847
  H     -5.104219    1.728336   -4.437093

 Multiplicity           Mult            ....    1
 Number of Electrons    NEL             ....   18
 Basis Dimension        Dim             ....  172

ORBITAL ENERGIES
----------------

  NO   OCC          E(Eh)            E(eV)
   0   2.0000     -19.221906      -523.0547
   1   2.0000     -10.314176      -280.6630
   2   2.0000      -1.132918       -30.8283
   3   2.0000      -0.794711       -21.6252
   4   2.0000      -0.609404       -16.5827
   5   2.0000      -0.548765       -14.9327
   6   2.0000      -0.532218       -14.4824
   7   2.0000      -0.423404       -11.5214
   8   2.0000      -0.362173        -9.8552
   9   0.0000       0.080438         2.1888
  10   0.0000       0.112408         3.0588
  11   0.0000       0.146695         3.9918
  12   0.0000       0.162627         4.4253
  13   0.0000       0.189400         5.1538

MULLIKEN ATOMIC CHARGES
-----------------------
   0 C :   -0.000157
   1 O :    0.000115
   2 H :   -0.000033
   3 H :   -0.000016
   4 H :   -0.000246
   5 H :    0.000016
   6 C :   -0.157917
   7 O :   -0.491251
   8 H :    0.319153
   9 H :    0.099857
  10 H :    0.100081
  11 H :    0.130399
Sum of atomic charges:   -0.0000000

LOEWDIN ATOMIC CHARGES
----------------------
   0 C :   -0.000413
   1 O :   -0.000702
   2 H :   -0.000049
   3 H :   -0.000006
   4 H :   -0.000171
   5 H :   -0.000005
   6 C :   -0.386268
   7 O :   -0.084747
   8 H :    0.169910
   9 H :    0.096899
  10 H :    0.098171
  11 H :    0.107381

  Mayer bond orders larger than 0.1
B(  6-C ,  7-O ) :   0.9804 B(  6-C ,  9-H ) :   0.9882 B(  6-C , 10-H ) :   0.9856
B(  6-C , 11-H ) :   0.9634 B(  7-O ,  8-H ) :   0.8917

Dispersion correction           -0.000214825
FINAL SINGLE POINT ENERGY      -115.727284353371

DIPOLE MOMENT
-------------
                                X             Y             Z
Electronic contribution:     -0.41687       1.07328       1.28381
Nuclear contribution   :      0.33963      -1.72458      -1.36344
                        -----------------------------------------
Total Dipole Moment    :     -0.07724      -0.65130      -0.07963
                        -----------------------------------------
Magnitude (a.u.)       :      0.66068
Magnitude (Debye)      :      1.67931

Rotational constants in cm-1:     4.280880     0.846829     0.809094
Rotational constants in MHz : 128337.547650 25387.300856 24256.041407

                             ****ORCA TERMINATED NORMALLY****
TOTAL RUN TIME: 0 days 0 hours 6 minutes 19 seconds 311 msec
