                         Program Version 4.1.2  - RELEASE  -
|  1> #Run DFT-D3 single point of the dimer
|  2> ! wB97X-D3 def2-TZVP TIGHTSCF CHELPG PMODEL PAL8
|  3>
|  4> %base "12-198_DFT_AB"
|  5>
|  6> %scf
|  7> MaxIter 1000
|  8> end
|  9>
| 10> * xyz 0 1
| 11>   C                      -1.227382            1.883916             7.025504
| 12>   O                      -2.109309            0.916002             6.545832
| 13>   H                      -2.994278            1.074681             6.954082
| 14>   H                      -0.626202            1.323861             7.723327
| 15>   H                      -0.625857            2.383728             6.284186
| 16>   H                      -1.719954            2.729473             7.550804
| 17>   C                      -1.923196            -1.868327            4.730902
| 18>   O                      -0.792962            -0.994753            5.100044
| 19>   H                      -1.337108            -0.275077            5.466383
| 20>   H                      -1.945100            -1.997306            3.679924
| 21>   H                      -1.941094            -2.839486            5.228119
| 22>   H                      -2.894693            -1.394700            4.995180
| 23> *
| 24>
| 25> #Run DFT-D3 single point of the molecule with dimer basis set
| 26> $new_job
| 27> %base "12-198_DFT_A"
| 28> ! wB97X-D3 def2-TZVP TIGHTSCF CHELPG PMODEL
| 29>
| 30> %scf
| 31> MaxIter 1000
| 32> end
| 33>
| 34> * xyz 0 1
| 35>   C                      -1.227382            1.883916             7.025504
| 36>   O                      -2.109309            0.916002             6.545832
| 37>   H                      -2.994278            1.074681             6.954082
| 38>   H                      -0.626202            1.323861             7.723327
| 39>   H                      -0.625857            2.383728             6.284186
| 40>   H                      -1.719954            2.729473             7.550804
| 41>   C                    : -1.923196            -1.868327            4.730902
| 42>   O                    : -0.792962            -0.994753            5.100044
| 43>   H                    : -1.337108            -0.275077            5.466383
| 44>   H                    : -1.945100            -1.997306            3.679924
| 45>   H                    : -1.941094            -2.839486            5.228119
| 46>   H                    : -2.894693            -1.394700            4.995180
| 47> *
| 48>
| 49> #Run DFT-D3 single point of the particle with dimer basis set
| 50> $new_job
| 51> %base "12-198_DFT_B"
| 52> ! wB97X-D3 def2-TZVP TIGHTSCF CHELPG PMODEL
| 53>
| 54> %scf
| 55> MaxIter 1000
| 56> end
| 57>
| 58> * xyz 0 1
| 59>   C                    : -1.227382            1.883916             7.025504
| 60>   O                    : -2.109309            0.916002             6.545832
| 61>   H                    : -2.994278            1.074681             6.954082
| 62>   H                    : -0.626202            1.323861             7.723327
| 63>   H                    : -0.625857            2.383728             6.284186
| 64>   H                    : -1.719954            2.729473             7.550804
| 65>   C                      -1.923196            -1.868327            4.730902
| 66>   O                      -0.792962            -0.994753            5.100044
| 67>   H                      -1.337108            -0.275077            5.466383
| 68>   H                      -1.945100            -1.997306            3.679924
| 69>   H                      -1.941094            -2.839486            5.228119
| 70>   H                      -2.894693            -1.394700            4.995180
| 71> *
| 72>
| 73>                          ****END OF INPUT****
 Total Charge           Charge          ....    0
 Multiplicity           Mult            ....    1
 Number of Electrons    NEL             ....   36
Dispersion correction           -0.001845441
FINAL SINGLE POINT ENERGY      -231.466390168699
Dispersion correction           -0.000235605
FINAL SINGLE POINT ENERGY      -115.730322873401

CARTESIAN COORDINATES (ANGSTROEM)
---------------------------------
  C     -1.227382    1.883916    7.025504
  O     -2.109309    0.916002    6.545832
  H     -2.994278    1.074681    6.954082
  H     -0.626202    1.323861    7.723327
  H     -0.625857    2.383728    6.284186
  H     -1.719954    2.729473    7.550804
  C     -1.923196   -1.868327    4.730902
  O     -0.792962   -0.994753    5.100044
  H     -1.337108   -0.275077    5.466383
  H     -1.945100   -1.997306    3.679924
  H     -1.941094   -2.839486    5.228119
  H     -2.894693   -1.394700    4.995180

 Multiplicity           Mult            ....    1
 Number of Electrons    NEL             ....   18
 Basis Dimension        Dim             ....  172

ORBITAL ENERGIES
----------------

  NO   OCC          E(Eh)            E(eV)
   0   2.0000     -19.236543      -523.4530
   1   2.0000     -10.317424      -280.7514
   2   2.0000      -1.124605       -30.6021
   3   2.0000      -0.796575       -21.6759
   4   2.0000      -0.598586       -16.2884
   5   2.0000      -0.542337       -14.7577
   6   2.0000      -0.517444       -14.0804
   7   2.0000      -0.446457       -12.1487
   8   2.0000      -0.380140       -10.3441
   9   0.0000       0.070117         1.9080
  10   0.0000       0.127050         3.4572
  11   0.0000       0.151389         4.1195
  12   0.0000       0.166383         4.5275
  13   0.0000       0.194265         5.2862

MULLIKEN ATOMIC CHARGES
-----------------------
   0 C :   -0.001082
   1 O :   -0.006266
   2 H :    0.000021
   3 H :   -0.000908
   4 H :   -0.000427
   5 H :    0.000049
   6 C :   -0.192705
   7 O :   -0.459255
   8 H :    0.318388
   9 H :    0.122595
  10 H :    0.116327
  11 H :    0.103263
Sum of atomic charges:    0.0000000

LOEWDIN ATOMIC CHARGES
----------------------
   0 C :   -0.007181
   1 O :   -0.029627
   2 H :   -0.001154
   3 H :   -0.000800
   4 H :   -0.000525
   5 H :   -0.000104
   6 C :   -0.346192
   7 O :   -0.104820
   8 H :    0.194143
   9 H :    0.093466
  10 H :    0.100768
  11 H :    0.102028

  Mayer bond orders larger than 0.1
B(  6-C ,  7-O ) :   1.0035 B(  6-C ,  9-H ) :   0.9777 B(  6-C , 10-H ) :   0.9676
B(  6-C , 11-H ) :   0.9868 B(  7-O ,  8-H ) :   0.9043

Dispersion correction           -0.000253074
FINAL SINGLE POINT ENERGY      -115.728240165040

DIPOLE MOMENT
-------------
                                X             Y             Z
Electronic contribution:      1.65419       0.91183       0.38534
Nuclear contribution   :     -2.45796      -0.83802      -0.32339
                        -----------------------------------------
Total Dipole Moment    :     -0.80377       0.07381       0.06195
                        -----------------------------------------
Magnitude (a.u.)       :      0.80953
Magnitude (Debye)      :      2.05766

Rotational constants in cm-1:     4.262070     0.784205     0.754809
Rotational constants in MHz : 127773.653580 23509.885011 22628.614801

                             ****ORCA TERMINATED NORMALLY****
TOTAL RUN TIME: 0 days 0 hours 0 minutes 59 seconds 424 msec
