                         Program Version 4.1.2  - RELEASE  -
|  1> #Run DFT-D3 single point of the dimer
|  2> ! wB97X-D3 def2-TZVP TIGHTSCF CHELPG PMODEL PAL8
|  3>
|  4> %base "20-105_DFT_AB"
|  5>
|  6> %scf
|  7> MaxIter 1000
|  8> end
|  9>
| 10> * xyz 0 1
| 11>   C                      9.120961             -6.849547            -2.911448
| 12>   O                      8.104281             -5.987390            -3.377930
| 13>   H                      7.520534             -6.399815            -3.979803
| 14>   H                      9.537305             -6.457883            -1.999201
| 15>   H                      8.666208             -7.838895            -2.838411
| 16>   H                      9.986982             -7.033741            -3.580794
| 17>   C                      7.605091             -3.155752            -1.407141
| 18>   O                      8.442560             -4.156556            -0.807862
| 19>   H                      8.707860             -4.810448            -1.492540
| 20>   H                      8.014981             -2.138971            -1.143179
| 21>   H                      7.574775             -3.275983            -2.530497
| 22>   H                      6.599084             -3.169128            -1.043752
| 23> *
| 24>
| 25> #Run DFT-D3 single point of the molecule with dimer basis set
| 26> $new_job
| 27> %base "20-105_DFT_A"
| 28> ! wB97X-D3 def2-TZVP TIGHTSCF CHELPG PMODEL
| 29>
| 30> %scf
| 31> MaxIter 1000
| 32> end
| 33>
| 34> * xyz 0 1
| 35>   C                      9.120961             -6.849547            -2.911448
| 36>   O                      8.104281             -5.987390            -3.377930
| 37>   H                      7.520534             -6.399815            -3.979803
| 38>   H                      9.537305             -6.457883            -1.999201
| 39>   H                      8.666208             -7.838895            -2.838411
| 40>   H                      9.986982             -7.033741            -3.580794
| 41>   C                    : 7.605091             -3.155752            -1.407141
| 42>   O                    : 8.442560             -4.156556            -0.807862
| 43>   H                    : 8.707860             -4.810448            -1.492540
| 44>   H                    : 8.014981             -2.138971            -1.143179
| 45>   H                    : 7.574775             -3.275983            -2.530497
| 46>   H                    : 6.599084             -3.169128            -1.043752
| 47> *
| 48>
| 49> #Run DFT-D3 single point of the particle with dimer basis set
| 50> $new_job
| 51> %base "20-105_DFT_B"
| 52> ! wB97X-D3 def2-TZVP TIGHTSCF CHELPG PMODEL
| 53>
| 54> %scf
| 55> MaxIter 1000
| 56> end
| 57>
| 58> * xyz 0 1
| 59>   C                    : 9.120961             -6.849547            -2.911448
| 60>   O                    : 8.104281             -5.987390            -3.377930
| 61>   H                    : 7.520534             -6.399815            -3.979803
| 62>   H                    : 9.537305             -6.457883            -1.999201
| 63>   H                    : 8.666208             -7.838895            -2.838411
| 64>   H                    : 9.986982             -7.033741            -3.580794
| 65>   C                      7.605091             -3.155752            -1.407141
| 66>   O                      8.442560             -4.156556            -0.807862
| 67>   H                      8.707860             -4.810448            -1.492540
| 68>   H                      8.014981             -2.138971            -1.143179
| 69>   H                      7.574775             -3.275983            -2.530497
| 70>   H                      6.599084             -3.169128            -1.043752
| 71> *
| 72>
| 73>                          ****END OF INPUT****
 Total Charge           Charge          ....    0
 Multiplicity           Mult            ....    1
 Number of Electrons    NEL             ....   36
Dispersion correction           -0.001925209
FINAL SINGLE POINT ENERGY      -231.468500433876
Dispersion correction           -0.000248629
FINAL SINGLE POINT ENERGY      -115.731898881760

CARTESIAN COORDINATES (ANGSTROEM)
---------------------------------
  C      9.120961   -6.849547   -2.911448
  O      8.104281   -5.987390   -3.377930
  H      7.520534   -6.399815   -3.979803
  H      9.537305   -6.457883   -1.999201
  H      8.666208   -7.838895   -2.838411
  H      9.986982   -7.033741   -3.580794
  C      7.605091   -3.155752   -1.407141
  O      8.442560   -4.156556   -0.807862
  H      8.707860   -4.810448   -1.492540
  H      8.014981   -2.138971   -1.143179
  H      7.574775   -3.275983   -2.530497
  H      6.599084   -3.169128   -1.043752

 Multiplicity           Mult            ....    1
 Number of Electrons    NEL             ....   18
 Basis Dimension        Dim             ....  172

ORBITAL ENERGIES
----------------

  NO   OCC          E(Eh)            E(eV)
   0   2.0000     -19.232386      -523.3398
   1   2.0000     -10.320466      -280.8342
   2   2.0000      -1.124715       -30.6051
   3   2.0000      -0.791961       -21.5504
   4   2.0000      -0.603979       -16.4351
   5   2.0000      -0.536676       -14.6037
   6   2.0000      -0.524327       -14.2677
   7   2.0000      -0.431763       -11.7489
   8   2.0000      -0.373137       -10.1536
   9   0.0000       0.068964         1.8766
  10   0.0000       0.131426         3.5763
  11   0.0000       0.145572         3.9612
  12   0.0000       0.167442         4.5563
  13   0.0000       0.188960         5.1419

MULLIKEN ATOMIC CHARGES
-----------------------
   0 C :   -0.006529
   1 O :   -0.001743
   2 H :   -0.000185
   3 H :    0.000961
   4 H :    0.000667
   5 H :    0.000298
   6 C :   -0.170435
   7 O :   -0.476169
   8 H :    0.318096
   9 H :    0.112174
  10 H :    0.107080
  11 H :    0.115784
Sum of atomic charges:   -0.0000000

LOEWDIN ATOMIC CHARGES
----------------------
   0 C :   -0.010499
   1 O :   -0.006999
   2 H :   -0.000325
   3 H :   -0.005946
   4 H :   -0.000116
   5 H :   -0.000122
   6 C :   -0.372896
   7 O :   -0.095265
   8 H :    0.188235
   9 H :    0.108042
  10 H :    0.103668
  11 H :    0.092223

  Mayer bond orders larger than 0.1
B(  6-C ,  7-O ) :   0.9946 B(  6-C ,  9-H ) :   0.9792 B(  6-C , 10-H ) :   0.9820
B(  6-C , 11-H ) :   0.9686 B(  7-O ,  8-H ) :   0.9032

Dispersion correction           -0.000267317
FINAL SINGLE POINT ENERGY      -115.733020074012

DIPOLE MOMENT
-------------
                                X             Y             Z
Electronic contribution:      0.98936      -1.24793       0.91914
Nuclear contribution   :     -1.17260       1.23549      -1.59503
                        -----------------------------------------
Total Dipole Moment    :     -0.18324      -0.01245      -0.67589
                        -----------------------------------------
Magnitude (a.u.)       :      0.70040
Magnitude (Debye)      :      1.78028

Rotational constants in cm-1:     4.180111     0.807795     0.771974
Rotational constants in MHz : 125316.577846 24217.084917 23143.199629

                             ****ORCA TERMINATED NORMALLY****
TOTAL RUN TIME: 0 days 0 hours 1 minutes 8 seconds 63 msec
