                         Program Version 4.1.2  - RELEASE  -
|  1> #Run DFT-D3 single point of the dimer
|  2> ! wB97X-D3 def2-TZVP TIGHTSCF CHELPG PMODEL PAL8
|  3>
|  4> %base "11-11_DFT_AB"
|  5>
|  6> %scf
|  7> MaxIter 1000
|  8> end
|  9>
| 10> * xyz 0 1
| 11>   C                      -2.148013            2.129847             1.911966
| 12>   O                      -0.703100            2.202816             2.039990
| 13>   H                      -0.327344            2.930984             1.522731
| 14>   H                      -2.414317            2.238284             0.914172
| 15>   H                      -2.582117            1.155431             2.198879
| 16>   H                      -2.594961            2.946416             2.554262
| 17>   C                      1.822619             -0.249910            0.220334
| 18>   O                      1.557801             -0.879026            -0.998283
| 19>   H                      0.642750             -1.061144            -1.115042
| 20>   H                      1.369969             -0.788423            1.060333
| 21>   H                      2.911195             -0.173320            0.366897
| 22>   H                      1.434188             0.812999             0.269780
| 23> *
| 24>
| 25> #Run DFT-D3 single point of the molecule with dimer basis set
| 26> $new_job
| 27> %base "11-11_DFT_A"
| 28> ! wB97X-D3 def2-TZVP TIGHTSCF CHELPG PMODEL
| 29>
| 30> %scf
| 31> MaxIter 1000
| 32> end
| 33>
| 34> * xyz 0 1
| 35>   C                      -2.148013            2.129847             1.911966
| 36>   O                      -0.703100            2.202816             2.039990
| 37>   H                      -0.327344            2.930984             1.522731
| 38>   H                      -2.414317            2.238284             0.914172
| 39>   H                      -2.582117            1.155431             2.198879
| 40>   H                      -2.594961            2.946416             2.554262
| 41>   C                    : 1.822619             -0.249910            0.220334
| 42>   O                    : 1.557801             -0.879026            -0.998283
| 43>   H                    : 0.642750             -1.061144            -1.115042
| 44>   H                    : 1.369969             -0.788423            1.060333
| 45>   H                    : 2.911195             -0.173320            0.366897
| 46>   H                    : 1.434188             0.812999             0.269780
| 47> *
| 48>
| 49> #Run DFT-D3 single point of the particle with dimer basis set
| 50> $new_job
| 51> %base "11-11_DFT_B"
| 52> ! wB97X-D3 def2-TZVP TIGHTSCF CHELPG PMODEL
| 53>
| 54> %scf
| 55> MaxIter 1000
| 56> end
| 57>
| 58> * xyz 0 1
| 59>   C                    : -2.148013            2.129847             1.911966
| 60>   O                    : -0.703100            2.202816             2.039990
| 61>   H                    : -0.327344            2.930984             1.522731
| 62>   H                    : -2.414317            2.238284             0.914172
| 63>   H                    : -2.582117            1.155431             2.198879
| 64>   H                    : -2.594961            2.946416             2.554262
| 65>   C                      1.822619             -0.249910            0.220334
| 66>   O                      1.557801             -0.879026            -0.998283
| 67>   H                      0.642750             -1.061144            -1.115042
| 68>   H                      1.369969             -0.788423            1.060333
| 69>   H                      2.911195             -0.173320            0.366897
| 70>   H                      1.434188             0.812999             0.269780
| 71> *
| 72>
| 73>                          ****END OF INPUT****
 Total Charge           Charge          ....    0
 Multiplicity           Mult            ....    1
 Number of Electrons    NEL             ....   36
Dispersion correction           -0.001172481
FINAL SINGLE POINT ENERGY      -231.467103248995
Dispersion correction           -0.000260017
FINAL SINGLE POINT ENERGY      -115.730249141936

CARTESIAN COORDINATES (ANGSTROEM)
---------------------------------
  C     -2.148013    2.129847    1.911966
  O     -0.703100    2.202816    2.039990
  H     -0.327344    2.930984    1.522731
  H     -2.414317    2.238284    0.914172
  H     -2.582117    1.155431    2.198879
  H     -2.594961    2.946416    2.554262
  C      1.822619   -0.249910    0.220334
  O      1.557801   -0.879026   -0.998283
  H      0.642750   -1.061144   -1.115042
  H      1.369969   -0.788423    1.060333
  H      2.911195   -0.173320    0.366897
  H      1.434188    0.812999    0.269780

 Multiplicity           Mult            ....    1
 Number of Electrons    NEL             ....   18
 Basis Dimension        Dim             ....  172

ORBITAL ENERGIES
----------------

  NO   OCC          E(Eh)            E(eV)
   0   2.0000     -19.228149      -523.2245
   1   2.0000     -10.316928      -280.7379
   2   2.0000      -1.143214       -31.1084
   3   2.0000      -0.795687       -21.6518
   4   2.0000      -0.617440       -16.8014
   5   2.0000      -0.538713       -14.6591
   6   2.0000      -0.529736       -14.4149
   7   2.0000      -0.429700       -11.6927
   8   2.0000      -0.371810       -10.1175
   9   0.0000       0.079267         2.1570
  10   0.0000       0.120440         3.2773
  11   0.0000       0.143448         3.9034
  12   0.0000       0.168172         4.5762
  13   0.0000       0.192193         5.2299

MULLIKEN ATOMIC CHARGES
-----------------------
   0 C :    0.000008
   1 O :   -0.000146
   2 H :   -0.000443
   3 H :   -0.000048
   4 H :   -0.000018
   5 H :    0.000004
   6 C :   -0.148652
   7 O :   -0.474452
   8 H :    0.313176
   9 H :    0.098478
  10 H :    0.120323
  11 H :    0.091770
Sum of atomic charges:    0.0000000

LOEWDIN ATOMIC CHARGES
----------------------
   0 C :   -0.000183
   1 O :   -0.001138
   2 H :   -0.001166
   3 H :   -0.000017
   4 H :   -0.000010
   5 H :   -0.000002
   6 C :   -0.400326
   7 O :   -0.055339
   8 H :    0.155924
   9 H :    0.093522
  10 H :    0.110361
  11 H :    0.098374

  Mayer bond orders larger than 0.1
B(  6-C ,  7-O ) :   1.0009 B(  6-C ,  9-H ) :   0.9781 B(  6-C , 10-H ) :   0.9705
B(  6-C , 11-H ) :   0.9735 B(  7-O ,  8-H ) :   0.8999

Dispersion correction           -0.000251135
FINAL SINGLE POINT ENERGY      -115.735777419722

DIPOLE MOMENT
-------------
                                X             Y             Z
Electronic contribution:     -0.21584      -0.89139      -1.62668
Nuclear contribution   :     -0.26998       1.00183       2.02901
                        -----------------------------------------
Total Dipole Moment    :     -0.48582       0.11045       0.40233
                        -----------------------------------------
Magnitude (a.u.)       :      0.64038
Magnitude (Debye)      :      1.62773

Rotational constants in cm-1:     4.309844     0.837545     0.809108
Rotational constants in MHz : 129205.878595 25108.980177 24256.452857

                             ****ORCA TERMINATED NORMALLY****
TOTAL RUN TIME: 0 days 0 hours 1 minutes 8 seconds 457 msec
