                         Program Version 4.1.2  - RELEASE  -
|  1> #Run DFT-D3 single point of the dimer
|  2> ! wB97X-D3 def2-TZVP TIGHTSCF CHELPG PMODEL PAL8
|  3>
|  4> %base "3-30_DFT_AB"
|  5>
|  6> %scf
|  7> MaxIter 1000
|  8> end
|  9>
| 10> * xyz 0 1
| 11>   C                      -4.983724            -1.861540            -7.037725
| 12>   O                      -5.308556            -0.500746            -6.993364
| 13>   H                      -5.230599            -0.272961            -7.890385
| 14>   H                      -4.141318            -2.148880            -7.659056
| 15>   H                      -4.764248            -2.337265            -6.067641
| 16>   H                      -5.873911            -2.396272            -7.501663
| 17>   C                      -10.334582           -4.254306            -5.781806
| 18>   O                      -9.139955            -3.452755            -5.800609
| 19>   H                      -8.833748            -3.296327            -6.693903
| 20>   H                      -10.701949           -4.294493            -4.818483
| 21>   H                      -11.133352           -3.759334            -6.328138
| 22>   H                      -10.229096           -5.277931            -6.251611
| 23> *
| 24>
| 25> #Run DFT-D3 single point of the molecule with dimer basis set
| 26> $new_job
| 27> %base "3-30_DFT_A"
| 28> ! wB97X-D3 def2-TZVP TIGHTSCF CHELPG PMODEL
| 29>
| 30> %scf
| 31> MaxIter 1000
| 32> end
| 33>
| 34> * xyz 0 1
| 35>   C                      -4.983724            -1.861540            -7.037725
| 36>   O                      -5.308556            -0.500746            -6.993364
| 37>   H                      -5.230599            -0.272961            -7.890385
| 38>   H                      -4.141318            -2.148880            -7.659056
| 39>   H                      -4.764248            -2.337265            -6.067641
| 40>   H                      -5.873911            -2.396272            -7.501663
| 41>   C                    : -10.334582           -4.254306            -5.781806
| 42>   O                    : -9.139955            -3.452755            -5.800609
| 43>   H                    : -8.833748            -3.296327            -6.693903
| 44>   H                    : -10.701949           -4.294493            -4.818483
| 45>   H                    : -11.133352           -3.759334            -6.328138
| 46>   H                    : -10.229096           -5.277931            -6.251611
| 47> *
| 48>
| 49> #Run DFT-D3 single point of the particle with dimer basis set
| 50> $new_job
| 51> %base "3-30_DFT_B"
| 52> ! wB97X-D3 def2-TZVP TIGHTSCF CHELPG PMODEL
| 53>
| 54> %scf
| 55> MaxIter 1000
| 56> end
| 57>
| 58> * xyz 0 1
| 59>   C                    : -4.983724            -1.861540            -7.037725
| 60>   O                    : -5.308556            -0.500746            -6.993364
| 61>   H                    : -5.230599            -0.272961            -7.890385
| 62>   H                    : -4.141318            -2.148880            -7.659056
| 63>   H                    : -4.764248            -2.337265            -6.067641
| 64>   H                    : -5.873911            -2.396272            -7.501663
| 65>   C                      -10.334582           -4.254306            -5.781806
| 66>   O                      -9.139955            -3.452755            -5.800609
| 67>   H                      -8.833748            -3.296327            -6.693903
| 68>   H                      -10.701949           -4.294493            -4.818483
| 69>   H                      -11.133352           -3.759334            -6.328138
| 70>   H                      -10.229096           -5.277931            -6.251611
| 71> *
| 72>
| 73>                          ****END OF INPUT****
 Total Charge           Charge          ....    0
 Multiplicity           Mult            ....    1
 Number of Electrons    NEL             ....   36
Dispersion correction           -0.000816373
FINAL SINGLE POINT ENERGY      -231.461464841442
Dispersion correction           -0.000226256
FINAL SINGLE POINT ENERGY      -115.729571338204

CARTESIAN COORDINATES (ANGSTROEM)
---------------------------------
  C     -4.983724   -1.861540   -7.037725
  O     -5.308556   -0.500746   -6.993364
  H     -5.230599   -0.272961   -7.890385
  H     -4.141318   -2.148880   -7.659056
  H     -4.764248   -2.337265   -6.067641
  H     -5.873911   -2.396272   -7.501663
  C    -10.334582   -4.254306   -5.781806
  O     -9.139955   -3.452755   -5.800609
  H     -8.833748   -3.296327   -6.693903
  H    -10.701949   -4.294493   -4.818483
  H    -11.133352   -3.759334   -6.328138
  H    -10.229096   -5.277931   -6.251611

 Multiplicity           Mult            ....    1
 Number of Electrons    NEL             ....   18
 Basis Dimension        Dim             ....  172

ORBITAL ENERGIES
----------------

  NO   OCC          E(Eh)            E(eV)
   0   2.0000     -19.229099      -523.2504
   1   2.0000     -10.311962      -280.6027
   2   2.0000      -1.126762       -30.6608
   3   2.0000      -0.803065       -21.8525
   4   2.0000      -0.607771       -16.5383
   5   2.0000      -0.538179       -14.6446
   6   2.0000      -0.527056       -14.3419
   7   2.0000      -0.434709       -11.8290
   8   2.0000      -0.373376       -10.1601
   9   0.0000       0.083623         2.2755
  10   0.0000       0.119943         3.2638
  11   0.0000       0.149447         4.0667
  12   0.0000       0.170683         4.6445
  13   0.0000       0.198488         5.4011

MULLIKEN ATOMIC CHARGES
-----------------------
   0 C :    0.000007
   1 O :    0.000017
   2 H :   -0.000000
   3 H :   -0.000031
   4 H :   -0.000037
   5 H :   -0.000561
   6 C :   -0.161559
   7 O :   -0.486869
   8 H :    0.315838
   9 H :    0.129420
  10 H :    0.102499
  11 H :    0.101275
Sum of atomic charges:   -0.0000000

LOEWDIN ATOMIC CHARGES
----------------------
   0 C :   -0.000224
   1 O :   -0.000004
   2 H :   -0.000000
   3 H :   -0.000006
   4 H :   -0.000034
   5 H :   -0.000354
   6 C :   -0.361187
   7 O :   -0.093152
   8 H :    0.163058
   9 H :    0.094591
  10 H :    0.094615
  11 H :    0.102698

  Mayer bond orders larger than 0.1
B(  6-C ,  7-O ) :   0.9977 B(  6-C ,  9-H ) :   0.9739 B(  6-C , 10-H ) :   0.9798
B(  6-C , 11-H ) :   0.9700 B(  7-O ,  8-H ) :   0.8973

Dispersion correction           -0.000264101
FINAL SINGLE POINT ENERGY      -115.732013276371

DIPOLE MOMENT
-------------
                                X             Y             Z
Electronic contribution:      1.54079       0.96539       0.20326
Nuclear contribution   :     -1.86882      -1.17703      -0.75580
                        -----------------------------------------
Total Dipole Moment    :     -0.32803      -0.21164      -0.55254
                        -----------------------------------------
Magnitude (a.u.)       :      0.67653
Magnitude (Debye)      :      1.71961

Rotational constants in cm-1:     4.441692     0.801481     0.776614
Rotational constants in MHz : 133158.562119 24027.783844 23282.296233

                             ****ORCA TERMINATED NORMALLY****
TOTAL RUN TIME: 0 days 0 hours 6 minutes 20 seconds 769 msec
