                         Program Version 4.1.2  - RELEASE  -
|  1> #Run DFT-D3 single point of the dimer
|  2> ! wB97X-D3 def2-TZVP TIGHTSCF CHELPG PMODEL PAL8
|  3>
|  4> %base "8-36_DFT_AB"
|  5>
|  6> %scf
|  7> MaxIter 1000
|  8> end
|  9>
| 10> * xyz 0 1
| 11>   C                      -5.732268            -10.125279           -1.351968
| 12>   O                      -6.836174            -9.413016            -0.708576
| 13>   H                      -7.613012            -9.982425            -0.455737
| 14>   H                      -4.905482            -9.401689            -1.548393
| 15>   H                      -5.473831            -11.022509           -0.746062
| 16>   H                      -6.049753            -10.514197           -2.342592
| 17>   C                      -4.059349            -10.591505           -4.902986
| 18>   O                      -4.637549            -11.688783           -5.570071
| 19>   H                      -5.489846            -11.802336           -5.121833
| 20>   H                      -3.923278            -9.799102            -5.617962
| 21>   H                      -4.655992            -10.192849           -4.065545
| 22>   H                      -3.057716            -10.840024           -4.484997
| 23> *
| 24>
| 25> #Run DFT-D3 single point of the molecule with dimer basis set
| 26> $new_job
| 27> %base "8-36_DFT_A"
| 28> ! wB97X-D3 def2-TZVP TIGHTSCF CHELPG PMODEL
| 29>
| 30> %scf
| 31> MaxIter 1000
| 32> end
| 33>
| 34> * xyz 0 1
| 35>   C                      -5.732268            -10.125279           -1.351968
| 36>   O                      -6.836174            -9.413016            -0.708576
| 37>   H                      -7.613012            -9.982425            -0.455737
| 38>   H                      -4.905482            -9.401689            -1.548393
| 39>   H                      -5.473831            -11.022509           -0.746062
| 40>   H                      -6.049753            -10.514197           -2.342592
| 41>   C                    : -4.059349            -10.591505           -4.902986
| 42>   O                    : -4.637549            -11.688783           -5.570071
| 43>   H                    : -5.489846            -11.802336           -5.121833
| 44>   H                    : -3.923278            -9.799102            -5.617962
| 45>   H                    : -4.655992            -10.192849           -4.065545
| 46>   H                    : -3.057716            -10.840024           -4.484997
| 47> *
| 48>
| 49> #Run DFT-D3 single point of the particle with dimer basis set
| 50> $new_job
| 51> %base "8-36_DFT_B"
| 52> ! wB97X-D3 def2-TZVP TIGHTSCF CHELPG PMODEL
| 53>
| 54> %scf
| 55> MaxIter 1000
| 56> end
| 57>
| 58> * xyz 0 1
| 59>   C                    : -5.732268            -10.125279           -1.351968
| 60>   O                    : -6.836174            -9.413016            -0.708576
| 61>   H                    : -7.613012            -9.982425            -0.455737
| 62>   H                    : -4.905482            -9.401689            -1.548393
| 63>   H                    : -5.473831            -11.022509           -0.746062
| 64>   H                    : -6.049753            -10.514197           -2.342592
| 65>   C                      -4.059349            -10.591505           -4.902986
| 66>   O                      -4.637549            -11.688783           -5.570071
| 67>   H                      -5.489846            -11.802336           -5.121833
| 68>   H                      -3.923278            -9.799102            -5.617962
| 69>   H                      -4.655992            -10.192849           -4.065545
| 70>   H                      -3.057716            -10.840024           -4.484997
| 71> *
| 72>
| 73>                          ****END OF INPUT****
 Total Charge           Charge          ....    0
 Multiplicity           Mult            ....    1
 Number of Electrons    NEL             ....   36
Dispersion correction           -0.001470902
FINAL SINGLE POINT ENERGY      -231.464366461816
Dispersion correction           -0.000279408
FINAL SINGLE POINT ENERGY      -115.730411751249

CARTESIAN COORDINATES (ANGSTROEM)
---------------------------------
  C     -5.732268  -10.125279   -1.351968
  O     -6.836174   -9.413016   -0.708576
  H     -7.613012   -9.982425   -0.455737
  H     -4.905482   -9.401689   -1.548393
  H     -5.473831  -11.022509   -0.746062
  H     -6.049753  -10.514197   -2.342592
  C     -4.059349  -10.591505   -4.902986
  O     -4.637549  -11.688783   -5.570071
  H     -5.489846  -11.802336   -5.121833
  H     -3.923278   -9.799102   -5.617962
  H     -4.655992  -10.192849   -4.065545
  H     -3.057716  -10.840024   -4.484997

 Multiplicity           Mult            ....    1
 Number of Electrons    NEL             ....   18
 Basis Dimension        Dim             ....  172

ORBITAL ENERGIES
----------------

  NO   OCC          E(Eh)            E(eV)
   0   2.0000     -19.232960      -523.3555
   1   2.0000     -10.313041      -280.6321
   2   2.0000      -1.139695       -31.0127
   3   2.0000      -0.791860       -21.5476
   4   2.0000      -0.612791       -16.6749
   5   2.0000      -0.540617       -14.7109
   6   2.0000      -0.525005       -14.2861
   7   2.0000      -0.439685       -11.9644
   8   2.0000      -0.372575       -10.1383
   9   0.0000       0.075901         2.0654
  10   0.0000       0.118005         3.2111
  11   0.0000       0.143946         3.9170
  12   0.0000       0.173502         4.7212
  13   0.0000       0.182623         4.9694

MULLIKEN ATOMIC CHARGES
-----------------------
   0 C :    0.000678
   1 O :    0.000060
   2 H :    0.000010
   3 H :   -0.000895
   4 H :    0.000012
   5 H :    0.000297
   6 C :   -0.166784
   7 O :   -0.463953
   8 H :    0.317794
   9 H :    0.110690
  10 H :    0.099353
  11 H :    0.102738
Sum of atomic charges:    0.0000000

LOEWDIN ATOMIC CHARGES
----------------------
   0 C :   -0.006468
   1 O :   -0.000018
   2 H :   -0.000005
   3 H :   -0.001655
   4 H :   -0.000069
   5 H :   -0.004604
   6 C :   -0.391806
   7 O :   -0.075972
   8 H :    0.178717
   9 H :    0.095533
  10 H :    0.102785
  11 H :    0.103561

  Mayer bond orders larger than 0.1
B(  6-C ,  7-O ) :   1.0129 B(  6-C ,  9-H ) :   0.9794 B(  6-C , 10-H ) :   0.9814
B(  6-C , 11-H ) :   0.9757 B(  7-O ,  8-H ) :   0.9019

Dispersion correction           -0.000243389
FINAL SINGLE POINT ENERGY      -115.733918719109

DIPOLE MOMENT
-------------
                                X             Y             Z
Electronic contribution:     -0.68490      -1.47675      -0.96564
Nuclear contribution   :      0.35010       1.82802       1.50864
                        -----------------------------------------
Total Dipole Moment    :     -0.33479       0.35127       0.54300
                        -----------------------------------------
Magnitude (a.u.)       :      0.72823
Magnitude (Debye)      :      1.85102

Rotational constants in cm-1:     4.250393     0.839151     0.805619
Rotational constants in MHz : 127423.584322 25157.118523 24151.844010

                             ****ORCA TERMINATED NORMALLY****
TOTAL RUN TIME: 0 days 0 hours 0 minutes 44 seconds 173 msec
