                         Program Version 4.1.2  - RELEASE  -
|  1> #Run DFT-D3 single point of the dimer
|  2> ! wB97X-D3 def2-TZVP TIGHTSCF CHELPG PMODEL PAL8
|  3>
|  4> %base "16-171_DFT_AB"
|  5>
|  6> %scf
|  7> MaxIter 1000
|  8> end
|  9>
| 10> * xyz 0 1
| 11>   C                      -6.940131            6.566358             -0.307315
| 12>   O                      -6.804153            5.719720             -1.460796
| 13>   H                      -7.213268            4.883983             -1.264619
| 14>   H                      -7.939552            6.989924             -0.368983
| 15>   H                      -6.889739            5.937103             0.630884
| 16>   H                      -6.133548            7.363447             -0.310562
| 17>   C                      -7.161535            8.894219             -3.234403
| 18>   O                      -6.450168            7.755070             -3.703676
| 19>   H                      -6.297386            7.123312             -2.918588
| 20>   H                      -7.612320            8.672403             -2.241837
| 21>   H                      -6.537640            9.750950             -3.054936
| 22>   H                      -7.946016            9.232008             -3.882842
| 23> *
| 24>
| 25> #Run DFT-D3 single point of the molecule with dimer basis set
| 26> $new_job
| 27> %base "16-171_DFT_A"
| 28> ! wB97X-D3 def2-TZVP TIGHTSCF CHELPG PMODEL
| 29>
| 30> %scf
| 31> MaxIter 1000
| 32> end
| 33>
| 34> * xyz 0 1
| 35>   C                      -6.940131            6.566358             -0.307315
| 36>   O                      -6.804153            5.719720             -1.460796
| 37>   H                      -7.213268            4.883983             -1.264619
| 38>   H                      -7.939552            6.989924             -0.368983
| 39>   H                      -6.889739            5.937103             0.630884
| 40>   H                      -6.133548            7.363447             -0.310562
| 41>   C                    : -7.161535            8.894219             -3.234403
| 42>   O                    : -6.450168            7.755070             -3.703676
| 43>   H                    : -6.297386            7.123312             -2.918588
| 44>   H                    : -7.612320            8.672403             -2.241837
| 45>   H                    : -6.537640            9.750950             -3.054936
| 46>   H                    : -7.946016            9.232008             -3.882842
| 47> *
| 48>
| 49> #Run DFT-D3 single point of the particle with dimer basis set
| 50> $new_job
| 51> %base "16-171_DFT_B"
| 52> ! wB97X-D3 def2-TZVP TIGHTSCF CHELPG PMODEL
| 53>
| 54> %scf
| 55> MaxIter 1000
| 56> end
| 57>
| 58> * xyz 0 1
| 59>   C                    : -6.940131            6.566358             -0.307315
| 60>   O                    : -6.804153            5.719720             -1.460796
| 61>   H                    : -7.213268            4.883983             -1.264619
| 62>   H                    : -7.939552            6.989924             -0.368983
| 63>   H                    : -6.889739            5.937103             0.630884
| 64>   H                    : -6.133548            7.363447             -0.310562
| 65>   C                      -7.161535            8.894219             -3.234403
| 66>   O                      -6.450168            7.755070             -3.703676
| 67>   H                      -6.297386            7.123312             -2.918588
| 68>   H                      -7.612320            8.672403             -2.241837
| 69>   H                      -6.537640            9.750950             -3.054936
| 70>   H                      -7.946016            9.232008             -3.882842
| 71> *
| 72>
| 73>                          ****END OF INPUT****
 Total Charge           Charge          ....    0
 Multiplicity           Mult            ....    1
 Number of Electrons    NEL             ....   36
Dispersion correction           -0.002124421
FINAL SINGLE POINT ENERGY      -231.470406076255
Dispersion correction           -0.000240368
FINAL SINGLE POINT ENERGY      -115.733048824239

CARTESIAN COORDINATES (ANGSTROEM)
---------------------------------
  C     -6.940131    6.566358   -0.307315
  O     -6.804153    5.719720   -1.460796
  H     -7.213268    4.883983   -1.264619
  H     -7.939552    6.989924   -0.368983
  H     -6.889739    5.937103    0.630884
  H     -6.133548    7.363447   -0.310562
  C     -7.161535    8.894219   -3.234403
  O     -6.450168    7.755070   -3.703676
  H     -6.297386    7.123312   -2.918588
  H     -7.612320    8.672403   -2.241837
  H     -6.537640    9.750950   -3.054936
  H     -7.946016    9.232008   -3.882842

 Multiplicity           Mult            ....    1
 Number of Electrons    NEL             ....   18
 Basis Dimension        Dim             ....  172

ORBITAL ENERGIES
----------------

  NO   OCC          E(Eh)            E(eV)
   0   2.0000     -19.236392      -523.4488
   1   2.0000     -10.311257      -280.5836
   2   2.0000      -1.123274       -30.5659
   3   2.0000      -0.794465       -21.6185
   4   2.0000      -0.603857       -16.4318
   5   2.0000      -0.537020       -14.6131
   6   2.0000      -0.531876       -14.4731
   7   2.0000      -0.429169       -11.6783
   8   2.0000      -0.373388       -10.1604
   9   0.0000       0.064456         1.7539
  10   0.0000       0.136110         3.7038
  11   0.0000       0.140324         3.8184
  12   0.0000       0.167772         4.5653
  13   0.0000       0.180888         4.9222

MULLIKEN ATOMIC CHARGES
-----------------------
   0 C :   -0.005758
   1 O :   -0.000640
   2 H :   -0.000085
   3 H :    0.000304
   4 H :   -0.000097
   5 H :    0.000159
   6 C :   -0.163729
   7 O :   -0.477473
   8 H :    0.322489
   9 H :    0.096394
  10 H :    0.107538
  11 H :    0.120899
Sum of atomic charges:   -0.0000000

LOEWDIN ATOMIC CHARGES
----------------------
   0 C :   -0.010821
   1 O :   -0.013786
   2 H :   -0.000639
   3 H :   -0.002172
   4 H :   -0.000104
   5 H :   -0.001558
   6 C :   -0.378151
   7 O :   -0.099137
   8 H :    0.211291
   9 H :    0.103259
  10 H :    0.092770
  11 H :    0.099049

  Mayer bond orders larger than 0.1
B(  6-C ,  7-O ) :   0.9986 B(  6-C ,  9-H ) :   0.9845 B(  6-C , 10-H ) :   0.9754
B(  6-C , 11-H ) :   0.9731 B(  7-O ,  8-H ) :   0.8966

Dispersion correction           -0.000256713
FINAL SINGLE POINT ENERGY      -115.730372477339

DIPOLE MOMENT
-------------
                                X             Y             Z
Electronic contribution:      0.92330      -1.40470      -0.88568
Nuclear contribution   :     -1.12048       1.47182       1.56386
                        -----------------------------------------
Total Dipole Moment    :     -0.19719       0.06712       0.67819
                        -----------------------------------------
Magnitude (a.u.)       :      0.70945
Magnitude (Debye)      :      1.80329

Rotational constants in cm-1:     4.333702     0.817206     0.780813
Rotational constants in MHz : 129921.110734 24499.234251 23408.185862

                             ****ORCA TERMINATED NORMALLY****
TOTAL RUN TIME: 0 days 0 hours 1 minutes 9 seconds 673 msec
