                         Program Version 4.1.2  - RELEASE  -
|  1> #Run DFT-D3 single point of the dimer
|  2> ! wB97X-D3 def2-TZVP TIGHTSCF CHELPG PMODEL PAL8
|  3>
|  4> %base "19-51_DFT_AB"
|  5>
|  6> %scf
|  7> MaxIter 1000
|  8> end
|  9>
| 10> * xyz 0 1
| 11>   C                      -5.106868            5.364977             4.076705
| 12>   O                      -4.860362            6.614453             3.509791
| 13>   H                      -4.817998            6.497377             2.536860
| 14>   H                      -6.164157            5.347365             4.411321
| 15>   H                      -4.952286            4.468046             3.431176
| 16>   H                      -4.499261            5.272901             4.938925
| 17>   C                      -4.309679            0.139881             3.274753
| 18>   O                      -3.997063            1.453591             2.977763
| 19>   H                      -4.850942            1.963425             2.857807
| 20>   H                      -4.736021            -0.485051            2.500253
| 21>   H                      -3.409156            -0.389718            3.671393
| 22>   H                      -5.119480            0.125753             4.057112
| 23> *
| 24>
| 25> #Run DFT-D3 single point of the molecule with dimer basis set
| 26> $new_job
| 27> %base "19-51_DFT_A"
| 28> ! wB97X-D3 def2-TZVP TIGHTSCF CHELPG PMODEL
| 29>
| 30> %scf
| 31> MaxIter 1000
| 32> end
| 33>
| 34> * xyz 0 1
| 35>   C                      -5.106868            5.364977             4.076705
| 36>   O                      -4.860362            6.614453             3.509791
| 37>   H                      -4.817998            6.497377             2.536860
| 38>   H                      -6.164157            5.347365             4.411321
| 39>   H                      -4.952286            4.468046             3.431176
| 40>   H                      -4.499261            5.272901             4.938925
| 41>   C                    : -4.309679            0.139881             3.274753
| 42>   O                    : -3.997063            1.453591             2.977763
| 43>   H                    : -4.850942            1.963425             2.857807
| 44>   H                    : -4.736021            -0.485051            2.500253
| 45>   H                    : -3.409156            -0.389718            3.671393
| 46>   H                    : -5.119480            0.125753             4.057112
| 47> *
| 48>
| 49> #Run DFT-D3 single point of the particle with dimer basis set
| 50> $new_job
| 51> %base "19-51_DFT_B"
| 52> ! wB97X-D3 def2-TZVP TIGHTSCF CHELPG PMODEL
| 53>
| 54> %scf
| 55> MaxIter 1000
| 56> end
| 57>
| 58> * xyz 0 1
| 59>   C                    : -5.106868            5.364977             4.076705
| 60>   O                    : -4.860362            6.614453             3.509791
| 61>   H                    : -4.817998            6.497377             2.536860
| 62>   H                    : -6.164157            5.347365             4.411321
| 63>   H                    : -4.952286            4.468046             3.431176
| 64>   H                    : -4.499261            5.272901             4.938925
| 65>   C                      -4.309679            0.139881             3.274753
| 66>   O                      -3.997063            1.453591             2.977763
| 67>   H                      -4.850942            1.963425             2.857807
| 68>   H                      -4.736021            -0.485051            2.500253
| 69>   H                      -3.409156            -0.389718            3.671393
| 70>   H                      -5.119480            0.125753             4.057112
| 71> *
| 72>
| 73>                          ****END OF INPUT****
 Total Charge           Charge          ....    0
 Multiplicity           Mult            ....    1
 Number of Electrons    NEL             ....   36
Dispersion correction           -0.001028683
FINAL SINGLE POINT ENERGY      -231.464703646195
Dispersion correction           -0.000245977
FINAL SINGLE POINT ENERGY      -115.733097023054

CARTESIAN COORDINATES (ANGSTROEM)
---------------------------------
  C     -5.106868    5.364977    4.076705
  O     -4.860362    6.614453    3.509791
  H     -4.817998    6.497377    2.536860
  H     -6.164157    5.347365    4.411321
  H     -4.952286    4.468046    3.431176
  H     -4.499261    5.272901    4.938925
  C     -4.309679    0.139881    3.274753
  O     -3.997063    1.453591    2.977763
  H     -4.850942    1.963425    2.857807
  H     -4.736021   -0.485051    2.500253
  H     -3.409156   -0.389718    3.671393
  H     -5.119480    0.125753    4.057112

 Multiplicity           Mult            ....    1
 Number of Electrons    NEL             ....   18
 Basis Dimension        Dim             ....  172

ORBITAL ENERGIES
----------------

  NO   OCC          E(Eh)            E(eV)
   0   2.0000     -19.236857      -523.4615
   1   2.0000     -10.315146      -280.6894
   2   2.0000      -1.140652       -31.0387
   3   2.0000      -0.788542       -21.4573
   4   2.0000      -0.617266       -16.7967
   5   2.0000      -0.537312       -14.6210
   6   2.0000      -0.529183       -14.3998
   7   2.0000      -0.431557       -11.7433
   8   2.0000      -0.369607       -10.0575
   9   0.0000       0.080488         2.1902
  10   0.0000       0.116849         3.1796
  11   0.0000       0.150650         4.0994
  12   0.0000       0.170636         4.6432
  13   0.0000       0.197236         5.3671

MULLIKEN ATOMIC CHARGES
-----------------------
   0 C :   -0.000216
   1 O :   -0.000030
   2 H :   -0.000007
   3 H :    0.000058
   4 H :   -0.001649
   5 H :    0.000040
   6 C :   -0.166683
   7 O :   -0.462998
   8 H :    0.321857
   9 H :    0.101299
  10 H :    0.118276
  11 H :    0.090055
Sum of atomic charges:   -0.0000000

LOEWDIN ATOMIC CHARGES
----------------------
   0 C :   -0.001031
   1 O :   -0.000014
   2 H :   -0.000001
   3 H :   -0.000007
   4 H :   -0.002104
   5 H :   -0.000049
   6 C :   -0.422718
   7 O :   -0.068307
   8 H :    0.197389
   9 H :    0.087583
  10 H :    0.112951
  11 H :    0.096308

  Mayer bond orders larger than 0.1
B(  6-C ,  7-O ) :   1.0120 B(  6-C ,  9-H ) :   0.9643 B(  6-C , 10-H ) :   0.9728
B(  6-C , 11-H ) :   0.9879 B(  7-O ,  8-H ) :   0.8866

Dispersion correction           -0.000243180
FINAL SINGLE POINT ENERGY      -115.731549298194

DIPOLE MOMENT
-------------
                                X             Y             Z
Electronic contribution:      0.65692       1.74584      -0.51264
Nuclear contribution   :     -1.30220      -1.91509       0.54409
                        -----------------------------------------
Total Dipole Moment    :     -0.64528      -0.16925       0.03146
                        -----------------------------------------
Magnitude (a.u.)       :      0.66785
Magnitude (Debye)      :      1.69753

Rotational constants in cm-1:     4.226976     0.855951     0.811874
Rotational constants in MHz : 126721.546674 25660.763738 24339.356826

                             ****ORCA TERMINATED NORMALLY****
TOTAL RUN TIME: 0 days 0 hours 0 minutes 41 seconds 392 msec
