                         Program Version 4.1.2  - RELEASE  -
|  1> #Run DFT-D3 single point of the dimer
|  2> ! wB97X-D3 def2-TZVP TIGHTSCF  CHELPG PAL8
|  3>
|  4> %base "119_charges"
|  5>
|  6> %scf
|  7> MaxIter 1000
|  8> end
|  9> %output
| 10>   Print[ P_Mayer ] 1
| 11>   Print[ P_NatPop ] 1
| 12>   Print[ P_Hirshfeld ] 1
| 13>   Print[ P_Mulliken ] 1
| 14>   Print [ P_Loewdin ] 1
| 15> end
| 16>
| 17> * xyz 0 1
| 18>   C                      5.463850             9.221880             -0.277459
| 19>   O                      5.036390             10.494550            -0.505910
| 20>   H                      5.743985             10.983707            -0.944206
| 21>   H                      5.916438             8.874486             -1.241364
| 22>   H                      6.067915             9.211910             0.580314
| 23>   H                      4.583290             8.543651             -0.093264
| 24> *
| 25>
| 26>                          ****END OF INPUT****

CARTESIAN COORDINATES (ANGSTROEM)
---------------------------------
  C      5.463850    9.221880   -0.277459
  O      5.036390   10.494550   -0.505910
  H      5.743985   10.983707   -0.944206
  H      5.916438    8.874486   -1.241364
  H      6.067915    9.211910    0.580314
  H      4.583290    8.543651   -0.093264

 Total Charge           Charge          ....    0
 Multiplicity           Mult            ....    1
 Number of Electrons    NEL             ....   18
 Basis Dimension        Dim             ....   86

ORBITAL ENERGIES
----------------

  NO   OCC          E(Eh)            E(eV)
   0   2.0000     -19.224992      -523.1386
   1   2.0000     -10.309132      -280.5257
   2   2.0000      -1.150835       -31.3158
   3   2.0000      -0.789950       -21.4956
   4   2.0000      -0.612200       -16.6588
   5   2.0000      -0.563544       -15.3348
   6   2.0000      -0.531214       -14.4551
   7   2.0000      -0.417431       -11.3589
   8   2.0000      -0.370726       -10.0880
   9   0.0000       0.113675         3.0933
  10   0.0000       0.160454         4.3662
  11   0.0000       0.199138         5.4188
  12   0.0000       0.210074         5.7164
  13   0.0000       0.222346         6.0504

MULLIKEN ATOMIC CHARGES
-----------------------
   0 C :   -0.146771
   1 O :   -0.470895
   2 H :    0.318643
   3 H :    0.091186
   4 H :    0.101487
   5 H :    0.106350
Sum of atomic charges:   -0.0000000

LOEWDIN ATOMIC CHARGES
----------------------
   0 C :   -0.424009
   1 O :   -0.048358
   2 H :    0.175935
   3 H :    0.100020
   4 H :    0.083704
   5 H :    0.112707

  Mayer bond orders larger than 0.1
B(  0-C ,  1-O ) :   1.0011 B(  0-C ,  3-H ) :   0.9925 B(  0-C ,  4-H ) :   0.9772
B(  0-C ,  5-H ) :   0.9703 B(  1-O ,  2-H ) :   0.8944

Dispersion correction           -0.000203915
FINAL SINGLE POINT ENERGY      -115.728945190958

DIPOLE MOMENT
-------------
                                X             Y             Z
Electronic contribution:     -0.57520       1.62637      -0.13580
Nuclear contribution   :      1.17175      -1.78001      -0.05614
                        -----------------------------------------
Total Dipole Moment    :      0.59655      -0.15364      -0.19194
                        -----------------------------------------
Magnitude (a.u.)       :      0.64523
Magnitude (Debye)      :      1.64004

Rotational constants in cm-1:     4.181433     0.890363     0.861861
Rotational constants in MHz : 125356.203280 26692.423949 25837.951600

                             ****ORCA TERMINATED NORMALLY****
TOTAL RUN TIME: 0 days 0 hours 0 minutes 45 seconds 347 msec
