                         Program Version 4.1.2  - RELEASE  -
|  1> #Run DFT-D3 single point of the dimer
|  2> ! wB97X-D3 def2-TZVP TIGHTSCF CHELPG PMODEL PAL8
|  3>
|  4> %base "18-15_DFT_AB"
|  5>
|  6> %scf
|  7> MaxIter 1000
|  8> end
|  9>
| 10> * xyz 0 1
| 11>   C                      1.789285             9.798423             -2.464702
| 12>   O                      2.889570             10.586637            -2.007297
| 13>   H                      2.798921             10.643839            -1.020595
| 14>   H                      1.306149             10.392855            -3.281718
| 15>   H                      2.071224             8.818361             -2.858965
| 16>   H                      0.975558             9.695420             -1.724452
| 17>   C                      3.972388             7.500461             1.155394
| 18>   O                      3.101798             7.379041             0.041502
| 19>   H                      3.500956             6.762614             -0.586978
| 20>   H                      3.788559             6.744071             1.904720
| 21>   H                      4.981357             7.331220             0.888054
| 22>   H                      3.961077             8.467816             1.742621
| 23> *
| 24>
| 25> #Run DFT-D3 single point of the molecule with dimer basis set
| 26> $new_job
| 27> %base "18-15_DFT_A"
| 28> ! wB97X-D3 def2-TZVP TIGHTSCF CHELPG PMODEL
| 29>
| 30> %scf
| 31> MaxIter 1000
| 32> end
| 33>
| 34> * xyz 0 1
| 35>   C                      1.789285             9.798423             -2.464702
| 36>   O                      2.889570             10.586637            -2.007297
| 37>   H                      2.798921             10.643839            -1.020595
| 38>   H                      1.306149             10.392855            -3.281718
| 39>   H                      2.071224             8.818361             -2.858965
| 40>   H                      0.975558             9.695420             -1.724452
| 41>   C                    : 3.972388             7.500461             1.155394
| 42>   O                    : 3.101798             7.379041             0.041502
| 43>   H                    : 3.500956             6.762614             -0.586978
| 44>   H                    : 3.788559             6.744071             1.904720
| 45>   H                    : 4.981357             7.331220             0.888054
| 46>   H                    : 3.961077             8.467816             1.742621
| 47> *
| 48>
| 49> #Run DFT-D3 single point of the particle with dimer basis set
| 50> $new_job
| 51> %base "18-15_DFT_B"
| 52> ! wB97X-D3 def2-TZVP TIGHTSCF CHELPG PMODEL
| 53>
| 54> %scf
| 55> MaxIter 1000
| 56> end
| 57>
| 58> * xyz 0 1
| 59>   C                    : 1.789285             9.798423             -2.464702
| 60>   O                    : 2.889570             10.586637            -2.007297
| 61>   H                    : 2.798921             10.643839            -1.020595
| 62>   H                    : 1.306149             10.392855            -3.281718
| 63>   H                    : 2.071224             8.818361             -2.858965
| 64>   H                    : 0.975558             9.695420             -1.724452
| 65>   C                      3.972388             7.500461             1.155394
| 66>   O                      3.101798             7.379041             0.041502
| 67>   H                      3.500956             6.762614             -0.586978
| 68>   H                      3.788559             6.744071             1.904720
| 69>   H                      4.981357             7.331220             0.888054
| 70>   H                      3.961077             8.467816             1.742621
| 71> *
| 72>
| 73>                          ****END OF INPUT****
 Total Charge           Charge          ....    0
 Multiplicity           Mult            ....    1
 Number of Electrons    NEL             ....   36
Dispersion correction           -0.001420919
FINAL SINGLE POINT ENERGY      -231.465373810350
Dispersion correction           -0.000263189
FINAL SINGLE POINT ENERGY      -115.732775586272

CARTESIAN COORDINATES (ANGSTROEM)
---------------------------------
  C      1.789285    9.798423   -2.464702
  O      2.889570   10.586637   -2.007297
  H      2.798921   10.643839   -1.020595
  H      1.306149   10.392855   -3.281718
  H      2.071224    8.818361   -2.858965
  H      0.975558    9.695420   -1.724452
  C      3.972388    7.500461    1.155394
  O      3.101798    7.379041    0.041502
  H      3.500956    6.762614   -0.586978
  H      3.788559    6.744071    1.904720
  H      4.981357    7.331220    0.888054
  H      3.961077    8.467816    1.742621

 Multiplicity           Mult            ....    1
 Number of Electrons    NEL             ....   18
 Basis Dimension        Dim             ....  172

ORBITAL ENERGIES
----------------

  NO   OCC          E(Eh)            E(eV)
   0   2.0000     -19.233967      -523.3829
   1   2.0000     -10.312660      -280.6217
   2   2.0000      -1.135001       -30.8849
   3   2.0000      -0.799088       -21.7443
   4   2.0000      -0.615769       -16.7559
   5   2.0000      -0.536224       -14.5914
   6   2.0000      -0.528867       -14.3912
   7   2.0000      -0.434327       -11.8187
   8   2.0000      -0.373842       -10.1728
   9   0.0000       0.093734         2.5506
  10   0.0000       0.122459         3.3323
  11   0.0000       0.144192         3.9237
  12   0.0000       0.175500         4.7756
  13   0.0000       0.202971         5.5231

MULLIKEN ATOMIC CHARGES
-----------------------
   0 C :    0.001497
   1 O :   -0.000467
   2 H :   -0.001026
   3 H :   -0.000258
   4 H :   -0.002494
   5 H :   -0.001271
   6 C :   -0.177563
   7 O :   -0.471219
   8 H :    0.319689
   9 H :    0.104992
  10 H :    0.109177
  11 H :    0.118942
Sum of atomic charges:    0.0000000

LOEWDIN ATOMIC CHARGES
----------------------
   0 C :   -0.004949
   1 O :   -0.000410
   2 H :   -0.000981
   3 H :   -0.000082
   4 H :   -0.001231
   5 H :   -0.000639
   6 C :   -0.387650
   7 O :   -0.075856
   8 H :    0.175970
   9 H :    0.092708
  10 H :    0.088129
  11 H :    0.114992

  Mayer bond orders larger than 0.1
B(  6-C ,  7-O ) :   1.0008 B(  6-C ,  9-H ) :   0.9746 B(  6-C , 10-H ) :   0.9835
B(  6-C , 11-H ) :   0.9720 B(  7-O ,  8-H ) :   0.8944

Dispersion correction           -0.000254491
FINAL SINGLE POINT ENERGY      -115.730557411498

DIPOLE MOMENT
-------------
                                X             Y             Z
Electronic contribution:     -1.26764      -0.02257      -1.47940
Nuclear contribution   :      1.90549      -0.34397       1.52718
                        -----------------------------------------
Total Dipole Moment    :      0.63785      -0.36653       0.04778
                        -----------------------------------------
Magnitude (a.u.)       :      0.73721
Magnitude (Debye)      :      1.87385

Rotational constants in cm-1:     4.509878     0.815096     0.782392
Rotational constants in MHz : 135202.745422 24435.966552 23455.529700

                             ****ORCA TERMINATED NORMALLY****
TOTAL RUN TIME: 0 days 0 hours 0 minutes 56 seconds 971 msec
