                         Program Version 4.1.2  - RELEASE  -
|  1> #Run DFT-D3 single point of the dimer
|  2> ! wB97X-D3 def2-TZVP TIGHTSCF CHELPG PMODEL PAL8
|  3>
|  4> %base "1-50_DFT_AB"
|  5>
|  6> %scf
|  7> MaxIter 1000
|  8> end
|  9>
| 10> * xyz 0 1
| 11>   C                      -5.018804            -11.394211           4.335101
| 12>   O                      -4.125954            -10.858784           5.383765
| 13>   H                      -3.702437            -10.083851           5.035189
| 14>   H                      -5.527582            -10.505104           3.828122
| 15>   H                      -4.441818            -11.900742           3.519998
| 16>   H                      -5.719270            -12.198359           4.600835
| 17>   C                      -9.970660            -9.716221            6.321648
| 18>   O                      -10.114028           -10.228090           5.033935
| 19>   H                      -10.495750           -9.496585            4.516079
| 20>   H                      -10.912234           -9.484027            6.784882
| 21>   H                      -9.618788            -10.486873           6.993680
| 22>   H                      -9.238584            -8.894184            6.475215
| 23> *
| 24>
| 25> #Run DFT-D3 single point of the molecule with dimer basis set
| 26> $new_job
| 27> %base "1-50_DFT_A"
| 28> ! wB97X-D3 def2-TZVP TIGHTSCF CHELPG PMODEL
| 29>
| 30> %scf
| 31> MaxIter 1000
| 32> end
| 33>
| 34> * xyz 0 1
| 35>   C                      -5.018804            -11.394211           4.335101
| 36>   O                      -4.125954            -10.858784           5.383765
| 37>   H                      -3.702437            -10.083851           5.035189
| 38>   H                      -5.527582            -10.505104           3.828122
| 39>   H                      -4.441818            -11.900742           3.519998
| 40>   H                      -5.719270            -12.198359           4.600835
| 41>   C                    : -9.970660            -9.716221            6.321648
| 42>   O                    : -10.114028           -10.228090           5.033935
| 43>   H                    : -10.495750           -9.496585            4.516079
| 44>   H                    : -10.912234           -9.484027            6.784882
| 45>   H                    : -9.618788            -10.486873           6.993680
| 46>   H                    : -9.238584            -8.894184            6.475215
| 47> *
| 48>
| 49> #Run DFT-D3 single point of the particle with dimer basis set
| 50> $new_job
| 51> %base "1-50_DFT_B"
| 52> ! wB97X-D3 def2-TZVP TIGHTSCF CHELPG PMODEL
| 53>
| 54> %scf
| 55> MaxIter 1000
| 56> end
| 57>
| 58> * xyz 0 1
| 59>   C                    : -5.018804            -11.394211           4.335101
| 60>   O                    : -4.125954            -10.858784           5.383765
| 61>   H                    : -3.702437            -10.083851           5.035189
| 62>   H                    : -5.527582            -10.505104           3.828122
| 63>   H                    : -4.441818            -11.900742           3.519998
| 64>   H                    : -5.719270            -12.198359           4.600835
| 65>   C                      -9.970660            -9.716221            6.321648
| 66>   O                      -10.114028           -10.228090           5.033935
| 67>   H                      -10.495750           -9.496585            4.516079
| 68>   H                      -10.912234           -9.484027            6.784882
| 69>   H                      -9.618788            -10.486873           6.993680
| 70>   H                      -9.238584            -8.894184            6.475215
| 71> *
| 72>
| 73>                          ****END OF INPUT****
 Total Charge           Charge          ....    0
 Multiplicity           Mult            ....    1
 Number of Electrons    NEL             ....   36
Dispersion correction           -0.000697601
FINAL SINGLE POINT ENERGY      -231.459705542120
Dispersion correction           -0.000282966
FINAL SINGLE POINT ENERGY      -115.726171344406

CARTESIAN COORDINATES (ANGSTROEM)
---------------------------------
  C     -5.018804  -11.394211    4.335101
  O     -4.125954  -10.858784    5.383765
  H     -3.702437  -10.083851    5.035189
  H     -5.527582  -10.505104    3.828122
  H     -4.441818  -11.900742    3.519998
  H     -5.719270  -12.198359    4.600835
  C     -9.970660   -9.716221    6.321648
  O    -10.114028  -10.228090    5.033935
  H    -10.495750   -9.496585    4.516079
  H    -10.912234   -9.484027    6.784882
  H     -9.618788  -10.486873    6.993680
  H     -9.238584   -8.894184    6.475215

 Multiplicity           Mult            ....    1
 Number of Electrons    NEL             ....   18
 Basis Dimension        Dim             ....  172

ORBITAL ENERGIES
----------------

  NO   OCC          E(Eh)            E(eV)
   0   2.0000     -19.236256      -523.4451
   1   2.0000     -10.308558      -280.5101
   2   2.0000      -1.143794       -31.1242
   3   2.0000      -0.796465       -21.6729
   4   2.0000      -0.612221       -16.6594
   5   2.0000      -0.547045       -14.8858
   6   2.0000      -0.529386       -14.4053
   7   2.0000      -0.429729       -11.6935
   8   2.0000      -0.377709       -10.2780
   9   0.0000       0.090441         2.4610
  10   0.0000       0.116056         3.1581
  11   0.0000       0.152122         4.1395
  12   0.0000       0.166600         4.5334
  13   0.0000       0.197524         5.3749

MULLIKEN ATOMIC CHARGES
-----------------------
   0 C :    0.000055
   1 O :   -0.000000
   2 H :   -0.000000
   3 H :   -0.000158
   4 H :   -0.000015
   5 H :   -0.000064
   6 C :   -0.169961
   7 O :   -0.462969
   8 H :    0.318080
   9 H :    0.100949
  10 H :    0.116478
  11 H :    0.097607
Sum of atomic charges:    0.0000000

LOEWDIN ATOMIC CHARGES
----------------------
   0 C :   -0.000060
   1 O :   -0.000003
   2 H :   -0.000000
   3 H :   -0.000054
   4 H :   -0.000001
   5 H :   -0.000021
   6 C :   -0.414940
   7 O :   -0.061983
   8 H :    0.182204
   9 H :    0.090716
  10 H :    0.107267
  11 H :    0.096874

  Mayer bond orders larger than 0.1
B(  6-C ,  7-O ) :   1.0127 B(  6-C ,  9-H ) :   0.9789 B(  6-C , 10-H ) :   0.9748
B(  6-C , 11-H ) :   0.9703 B(  7-O ,  8-H ) :   0.8972

Dispersion correction           -0.000244186
FINAL SINGLE POINT ENERGY      -115.733160943216

DIPOLE MOMENT
-------------
                                X             Y             Z
Electronic contribution:     -0.14576      -0.75095      -1.80006
Nuclear contribution   :     -0.04612       1.36780       1.97981
                        -----------------------------------------
Total Dipole Moment    :     -0.19188       0.61685       0.17975
                        -----------------------------------------
Magnitude (a.u.)       :      0.67055
Magnitude (Debye)      :      1.70440

Rotational constants in cm-1:     4.423419     0.839589     0.817084
Rotational constants in MHz : 132610.754785 25170.237063 24495.569368

                             ****ORCA TERMINATED NORMALLY****
TOTAL RUN TIME: 0 days 0 hours 5 minutes 41 seconds 864 msec
