                         Program Version 4.1.2  - RELEASE  -
|  1> #Run DFT-D3 single point of the dimer
|  2> ! wB97X-D3 def2-TZVP TIGHTSCF CHELPG PMODEL PAL8
|  3>
|  4> %base "8-116_DFT_AB"
|  5>
|  6> %scf
|  7> MaxIter 1000
|  8> end
|  9>
| 10> * xyz 0 1
| 11>   C                      -3.085407            1.212228             -6.857028
| 12>   O                      -4.014511            0.679533             -7.754818
| 13>   H                      -3.617017            -0.153410            -8.081807
| 14>   H                      -3.475457            2.195119             -6.416982
| 15>   H                      -2.699295            0.539996             -6.108891
| 16>   H                      -2.225274            1.472159             -7.430988
| 17>   C                      -3.902687            -2.047055            -9.767899
| 18>   O                      -3.783327            -2.023162            -8.364810
| 19>   H                      -4.423023            -2.616315            -8.035842
| 20>   H                      -3.310654            -1.327274            -10.263219
| 21>   H                      -3.476127            -2.942526            -10.229169
| 22>   H                      -4.961791            -1.855243            -10.025167
| 23> *
| 24>
| 25> #Run DFT-D3 single point of the molecule with dimer basis set
| 26> $new_job
| 27> %base "8-116_DFT_A"
| 28> ! wB97X-D3 def2-TZVP TIGHTSCF CHELPG PMODEL
| 29>
| 30> %scf
| 31> MaxIter 1000
| 32> end
| 33>
| 34> * xyz 0 1
| 35>   C                      -3.085407            1.212228             -6.857028
| 36>   O                      -4.014511            0.679533             -7.754818
| 37>   H                      -3.617017            -0.153410            -8.081807
| 38>   H                      -3.475457            2.195119             -6.416982
| 39>   H                      -2.699295            0.539996             -6.108891
| 40>   H                      -2.225274            1.472159             -7.430988
| 41>   C                    : -3.902687            -2.047055            -9.767899
| 42>   O                    : -3.783327            -2.023162            -8.364810
| 43>   H                    : -4.423023            -2.616315            -8.035842
| 44>   H                    : -3.310654            -1.327274            -10.263219
| 45>   H                    : -3.476127            -2.942526            -10.229169
| 46>   H                    : -4.961791            -1.855243            -10.025167
| 47> *
| 48>
| 49> #Run DFT-D3 single point of the particle with dimer basis set
| 50> $new_job
| 51> %base "8-116_DFT_B"
| 52> ! wB97X-D3 def2-TZVP TIGHTSCF CHELPG PMODEL
| 53>
| 54> %scf
| 55> MaxIter 1000
| 56> end
| 57>
| 58> * xyz 0 1
| 59>   C                    : -3.085407            1.212228             -6.857028
| 60>   O                    : -4.014511            0.679533             -7.754818
| 61>   H                    : -3.617017            -0.153410            -8.081807
| 62>   H                    : -3.475457            2.195119             -6.416982
| 63>   H                    : -2.699295            0.539996             -6.108891
| 64>   H                    : -2.225274            1.472159             -7.430988
| 65>   C                      -3.902687            -2.047055            -9.767899
| 66>   O                      -3.783327            -2.023162            -8.364810
| 67>   H                      -4.423023            -2.616315            -8.035842
| 68>   H                      -3.310654            -1.327274            -10.263219
| 69>   H                      -3.476127            -2.942526            -10.229169
| 70>   H                      -4.961791            -1.855243            -10.025167
| 71> *
| 72>
| 73>                          ****END OF INPUT****
 Total Charge           Charge          ....    0
 Multiplicity           Mult            ....    1
 Number of Electrons    NEL             ....   36
Dispersion correction           -0.001709402
FINAL SINGLE POINT ENERGY      -231.468831676852
Dispersion correction           -0.000222222
FINAL SINGLE POINT ENERGY      -115.731160292422

CARTESIAN COORDINATES (ANGSTROEM)
---------------------------------
  C     -3.085407    1.212228   -6.857028
  O     -4.014511    0.679533   -7.754818
  H     -3.617017   -0.153410   -8.081807
  H     -3.475457    2.195119   -6.416982
  H     -2.699295    0.539996   -6.108891
  H     -2.225274    1.472159   -7.430988
  C     -3.902687   -2.047055   -9.767899
  O     -3.783327   -2.023162   -8.364810
  H     -4.423023   -2.616315   -8.035842
  H     -3.310654   -1.327274  -10.263219
  H     -3.476127   -2.942526  -10.229169
  H     -4.961791   -1.855243  -10.025167

 Multiplicity           Mult            ....    1
 Number of Electrons    NEL             ....   18
 Basis Dimension        Dim             ....  172

ORBITAL ENERGIES
----------------

  NO   OCC          E(Eh)            E(eV)
   0   2.0000     -19.228904      -523.2451
   1   2.0000     -10.310217      -280.5553
   2   2.0000      -1.145028       -31.1578
   3   2.0000      -0.801900       -21.8208
   4   2.0000      -0.610958       -16.6250
   5   2.0000      -0.553889       -15.0721
   6   2.0000      -0.530765       -14.4429
   7   2.0000      -0.430409       -11.7120
   8   2.0000      -0.375894       -10.2286
   9   0.0000       0.100080         2.7233
  10   0.0000       0.124942         3.3998
  11   0.0000       0.153348         4.1728
  12   0.0000       0.194305         5.2873
  13   0.0000       0.202132         5.5003

MULLIKEN ATOMIC CHARGES
-----------------------
   0 C :   -0.001463
   1 O :   -0.001910
   2 H :    0.001927
   3 H :   -0.000039
   4 H :   -0.000921
   5 H :   -0.000187
   6 C :   -0.168941
   7 O :   -0.465160
   8 H :    0.310680
   9 H :    0.120845
  10 H :    0.102296
  11 H :    0.102873
Sum of atomic charges:   -0.0000000

LOEWDIN ATOMIC CHARGES
----------------------
   0 C :   -0.002596
   1 O :   -0.008845
   2 H :   -0.040944
   3 H :   -0.000034
   4 H :   -0.000465
   5 H :   -0.000044
   6 C :   -0.382830
   7 O :   -0.017655
   8 H :    0.153125
   9 H :    0.101435
  10 H :    0.097439
  11 H :    0.101414

  Mayer bond orders larger than 0.1
B(  6-C ,  7-O ) :   0.9905 B(  6-C ,  9-H ) :   0.9792 B(  6-C , 10-H ) :   0.9685
B(  6-C , 11-H ) :   0.9867 B(  7-O ,  8-H ) :   0.9045

Dispersion correction           -0.000232750
FINAL SINGLE POINT ENERGY      -115.731640970554

DIPOLE MOMENT
-------------
                                X             Y             Z
Electronic contribution:      0.25771       0.12673       1.83547
Nuclear contribution   :     -0.68247      -0.49798      -2.19394
                        -----------------------------------------
Total Dipole Moment    :     -0.42476      -0.37125      -0.35847
                        -----------------------------------------
Magnitude (a.u.)       :      0.66839
Magnitude (Debye)      :      1.69891

Rotational constants in cm-1:     4.451057     0.833719     0.811032
Rotational constants in MHz : 133439.333566 24994.279863 24314.122164

                             ****ORCA TERMINATED NORMALLY****
TOTAL RUN TIME: 0 days 0 hours 0 minutes 48 seconds 510 msec
