                         Program Version 4.1.2  - RELEASE  -
|  1> #Run DFT-D3 single point of the dimer
|  2> ! wB97X-D3 def2-TZVP TIGHTSCF CHELPG PMODEL PAL8
|  3>
|  4> %base "9-8_DFT_AB"
|  5>
|  6> %scf
|  7> MaxIter 1000
|  8> end
|  9>
| 10> * xyz 0 1
| 11>   C                      5.326910             4.806322             -3.533113
| 12>   O                      6.034877             3.972360             -4.447765
| 13>   H                      6.237275             3.163824             -3.960999
| 14>   H                      6.014065             5.326131             -2.833834
| 15>   H                      4.817935             5.581777             -4.157801
| 16>   H                      4.623172             4.233674             -2.922331
| 17>   C                      8.440851             4.101556             -1.792450
| 18>   O                      7.899929             3.599774             -0.570047
| 19>   H                      8.574306             3.057650             -0.195285
| 20>   H                      9.545632             4.229841             -1.805738
| 21>   H                      8.330681             3.390921             -2.631952
| 22>   H                      8.075778             5.093911             -2.047035
| 23> *
| 24>
| 25> #Run DFT-D3 single point of the molecule with dimer basis set
| 26> $new_job
| 27> %base "9-8_DFT_A"
| 28> ! wB97X-D3 def2-TZVP TIGHTSCF CHELPG PMODEL
| 29>
| 30> %scf
| 31> MaxIter 1000
| 32> end
| 33>
| 34> * xyz 0 1
| 35>   C                      5.326910             4.806322             -3.533113
| 36>   O                      6.034877             3.972360             -4.447765
| 37>   H                      6.237275             3.163824             -3.960999
| 38>   H                      6.014065             5.326131             -2.833834
| 39>   H                      4.817935             5.581777             -4.157801
| 40>   H                      4.623172             4.233674             -2.922331
| 41>   C                    : 8.440851             4.101556             -1.792450
| 42>   O                    : 7.899929             3.599774             -0.570047
| 43>   H                    : 8.574306             3.057650             -0.195285
| 44>   H                    : 9.545632             4.229841             -1.805738
| 45>   H                    : 8.330681             3.390921             -2.631952
| 46>   H                    : 8.075778             5.093911             -2.047035
| 47> *
| 48>
| 49> #Run DFT-D3 single point of the particle with dimer basis set
| 50> $new_job
| 51> %base "9-8_DFT_B"
| 52> ! wB97X-D3 def2-TZVP TIGHTSCF CHELPG PMODEL
| 53>
| 54> %scf
| 55> MaxIter 1000
| 56> end
| 57>
| 58> * xyz 0 1
| 59>   C                    : 5.326910             4.806322             -3.533113
| 60>   O                    : 6.034877             3.972360             -4.447765
| 61>   H                    : 6.237275             3.163824             -3.960999
| 62>   H                    : 6.014065             5.326131             -2.833834
| 63>   H                    : 4.817935             5.581777             -4.157801
| 64>   H                    : 4.623172             4.233674             -2.922331
| 65>   C                      8.440851             4.101556             -1.792450
| 66>   O                      7.899929             3.599774             -0.570047
| 67>   H                      8.574306             3.057650             -0.195285
| 68>   H                      9.545632             4.229841             -1.805738
| 69>   H                      8.330681             3.390921             -2.631952
| 70>   H                      8.075778             5.093911             -2.047035
| 71> *
| 72>
| 73>                          ****END OF INPUT****
 Total Charge           Charge          ....    0
 Multiplicity           Mult            ....    1
 Number of Electrons    NEL             ....   36
Dispersion correction           -0.002005834
FINAL SINGLE POINT ENERGY      -231.470362122622
Dispersion correction           -0.000242129
FINAL SINGLE POINT ENERGY      -115.736291969913

CARTESIAN COORDINATES (ANGSTROEM)
---------------------------------
  C      5.326910    4.806322   -3.533113
  O      6.034877    3.972360   -4.447765
  H      6.237275    3.163824   -3.960999
  H      6.014065    5.326131   -2.833834
  H      4.817935    5.581777   -4.157801
  H      4.623172    4.233674   -2.922331
  C      8.440851    4.101556   -1.792450
  O      7.899929    3.599774   -0.570047
  H      8.574306    3.057650   -0.195285
  H      9.545632    4.229841   -1.805738
  H      8.330681    3.390921   -2.631952
  H      8.075778    5.093911   -2.047035

 Multiplicity           Mult            ....    1
 Number of Electrons    NEL             ....   18
 Basis Dimension        Dim             ....  172

ORBITAL ENERGIES
----------------

  NO   OCC          E(Eh)            E(eV)
   0   2.0000     -19.233646      -523.3741
   1   2.0000     -10.317481      -280.7529
   2   2.0000      -1.138895       -30.9909
   3   2.0000      -0.797364       -21.6974
   4   2.0000      -0.615172       -16.7397
   5   2.0000      -0.540568       -14.7096
   6   2.0000      -0.519431       -14.1344
   7   2.0000      -0.438913       -11.9434
   8   2.0000      -0.376218       -10.2374
   9   0.0000       0.093555         2.5458
  10   0.0000       0.121669         3.3108
  11   0.0000       0.151312         4.1174
  12   0.0000       0.167733         4.5642
  13   0.0000       0.192290         5.2325

MULLIKEN ATOMIC CHARGES
-----------------------
   0 C :    0.000083
   1 O :   -0.000815
   2 H :    0.000877
   3 H :    0.002333
   4 H :    0.000263
   5 H :   -0.000483
   6 C :   -0.189376
   7 O :   -0.461651
   8 H :    0.314267
   9 H :    0.110568
  10 H :    0.103486
  11 H :    0.120450
Sum of atomic charges:    0.0000000

LOEWDIN ATOMIC CHARGES
----------------------
   0 C :   -0.004795
   1 O :   -0.001354
   2 H :   -0.003500
   3 H :   -0.006198
   4 H :   -0.000011
   5 H :   -0.000103
   6 C :   -0.378974
   7 O :   -0.071958
   8 H :    0.159787
   9 H :    0.098845
  10 H :    0.099635
  11 H :    0.108625

  Mayer bond orders larger than 0.1
B(  6-C ,  7-O ) :   1.0097 B(  6-C ,  9-H ) :   0.9739 B(  6-C , 10-H ) :   0.9738
B(  6-C , 11-H ) :   0.9730 B(  7-O ,  8-H ) :   0.9033

Dispersion correction           -0.000259508
FINAL SINGLE POINT ENERGY      -115.732484550683

DIPOLE MOMENT
-------------
                                X             Y             Z
Electronic contribution:     -0.96498      -0.55475       1.64845
Nuclear contribution   :      1.63495       0.41693      -1.88000
                        -----------------------------------------
Total Dipole Moment    :      0.66997      -0.13782      -0.23155
                        -----------------------------------------
Magnitude (a.u.)       :      0.72213
Magnitude (Debye)      :      1.83551

Rotational constants in cm-1:     4.386345     0.808737     0.780491
Rotational constants in MHz : 131499.306465 24245.335217 23398.545140

                             ****ORCA TERMINATED NORMALLY****
TOTAL RUN TIME: 0 days 0 hours 0 minutes 44 seconds 440 msec
