                         Program Version 4.1.2  - RELEASE  -
|  1> #Run DFT-D3 single point of the dimer
|  2> ! wB97X-D3 def2-TZVP TIGHTSCF CHELPG PMODEL PAL8
|  3>
|  4> %base "11-69_DFT_AB"
|  5>
|  6> %scf
|  7> MaxIter 1000
|  8> end
|  9>
| 10> * xyz 0 1
| 11>   C                      0.029205             -3.305085            5.575801
| 12>   O                      -1.152025            -2.596991            5.492510
| 13>   H                      -0.980307            -2.042697            4.669758
| 14>   H                      0.889800             -2.641096            5.935441
| 15>   H                      -0.058726            -4.169142            6.203153
| 16>   H                      0.260555             -3.587206            4.550461
| 17>   C                      -3.670822            -6.064125            7.339894
| 18>   O                      -4.691461            -6.396064            6.476158
| 19>   H                      -4.406539            -7.041441            5.853589
| 20>   H                      -3.404148            -6.870549            8.037953
| 21>   H                      -2.844383            -5.877841            6.668155
| 22>   H                      -3.914924            -5.255383            8.072797
| 23> *
| 24>
| 25> #Run DFT-D3 single point of the molecule with dimer basis set
| 26> $new_job
| 27> %base "11-69_DFT_A"
| 28> ! wB97X-D3 def2-TZVP TIGHTSCF CHELPG PMODEL
| 29>
| 30> %scf
| 31> MaxIter 1000
| 32> end
| 33>
| 34> * xyz 0 1
| 35>   C                      0.029205             -3.305085            5.575801
| 36>   O                      -1.152025            -2.596991            5.492510
| 37>   H                      -0.980307            -2.042697            4.669758
| 38>   H                      0.889800             -2.641096            5.935441
| 39>   H                      -0.058726            -4.169142            6.203153
| 40>   H                      0.260555             -3.587206            4.550461
| 41>   C                    : -3.670822            -6.064125            7.339894
| 42>   O                    : -4.691461            -6.396064            6.476158
| 43>   H                    : -4.406539            -7.041441            5.853589
| 44>   H                    : -3.404148            -6.870549            8.037953
| 45>   H                    : -2.844383            -5.877841            6.668155
| 46>   H                    : -3.914924            -5.255383            8.072797
| 47> *
| 48>
| 49> #Run DFT-D3 single point of the particle with dimer basis set
| 50> $new_job
| 51> %base "11-69_DFT_B"
| 52> ! wB97X-D3 def2-TZVP TIGHTSCF CHELPG PMODEL
| 53>
| 54> %scf
| 55> MaxIter 1000
| 56> end
| 57>
| 58> * xyz 0 1
| 59>   C                    : 0.029205             -3.305085            5.575801
| 60>   O                    : -1.152025            -2.596991            5.492510
| 61>   H                    : -0.980307            -2.042697            4.669758
| 62>   H                    : 0.889800             -2.641096            5.935441
| 63>   H                    : -0.058726            -4.169142            6.203153
| 64>   H                    : 0.260555             -3.587206            4.550461
| 65>   C                      -3.670822            -6.064125            7.339894
| 66>   O                      -4.691461            -6.396064            6.476158
| 67>   H                      -4.406539            -7.041441            5.853589
| 68>   H                      -3.404148            -6.870549            8.037953
| 69>   H                      -2.844383            -5.877841            6.668155
| 70>   H                      -3.914924            -5.255383            8.072797
| 71> *
| 72>
| 73>                          ****END OF INPUT****
 Total Charge           Charge          ....    0
 Multiplicity           Mult            ....    1
 Number of Electrons    NEL             ....   36
Dispersion correction           -0.000829706
FINAL SINGLE POINT ENERGY      -231.456174783892
Dispersion correction           -0.000203093
FINAL SINGLE POINT ENERGY      -115.727939446756

CARTESIAN COORDINATES (ANGSTROEM)
---------------------------------
  C      0.029205   -3.305085    5.575801
  O     -1.152025   -2.596991    5.492510
  H     -0.980307   -2.042697    4.669758
  H      0.889800   -2.641096    5.935441
  H     -0.058726   -4.169142    6.203153
  H      0.260555   -3.587206    4.550461
  C     -3.670822   -6.064125    7.339894
  O     -4.691461   -6.396064    6.476158
  H     -4.406539   -7.041441    5.853589
  H     -3.404148   -6.870549    8.037953
  H     -2.844383   -5.877841    6.668155
  H     -3.914924   -5.255383    8.072797

 Multiplicity           Mult            ....    1
 Number of Electrons    NEL             ....   18
 Basis Dimension        Dim             ....  172

ORBITAL ENERGIES
----------------

  NO   OCC          E(Eh)            E(eV)
   0   2.0000     -19.224915      -523.1365
   1   2.0000     -10.312300      -280.6120
   2   2.0000      -1.149922       -31.2910
   3   2.0000      -0.795164       -21.6375
   4   2.0000      -0.618304       -16.8249
   5   2.0000      -0.559930       -15.2365
   6   2.0000      -0.526031       -14.3140
   7   2.0000      -0.424029       -11.5384
   8   2.0000      -0.367466        -9.9993
   9   0.0000       0.085007         2.3132
  10   0.0000       0.117507         3.1975
  11   0.0000       0.150136         4.0854
  12   0.0000       0.168183         4.5765
  13   0.0000       0.183553         4.9947

MULLIKEN ATOMIC CHARGES
-----------------------
   0 C :    0.000337
   1 O :    0.000024
   2 H :    0.000009
   3 H :   -0.000025
   4 H :   -0.000982
   5 H :   -0.000025
   6 C :   -0.155182
   7 O :   -0.470865
   8 H :    0.316006
   9 H :    0.091604
  10 H :    0.101010
  11 H :    0.118091
Sum of atomic charges:   -0.0000000

LOEWDIN ATOMIC CHARGES
----------------------
   0 C :   -0.000471
   1 O :   -0.000046
   2 H :   -0.000003
   3 H :   -0.000004
   4 H :   -0.000644
   5 H :   -0.000007
   6 C :   -0.413279
   7 O :   -0.046142
   8 H :    0.159590
   9 H :    0.091367
  10 H :    0.095314
  11 H :    0.114325

  Mayer bond orders larger than 0.1
B(  6-C ,  7-O ) :   0.9939 B(  6-C ,  9-H ) :   0.9685 B(  6-C , 10-H ) :   0.9975
B(  6-C , 11-H ) :   0.9679 B(  7-O ,  8-H ) :   0.8982

Dispersion correction           -0.000220017
FINAL SINGLE POINT ENERGY      -115.728031457405

DIPOLE MOMENT
-------------
                                X             Y             Z
Electronic contribution:     -1.42905      -0.26979      -1.08448
Nuclear contribution   :      1.99775      -0.02695       1.01610
                        -----------------------------------------
Total Dipole Moment    :      0.56871      -0.29674      -0.06838
                        -----------------------------------------
Magnitude (a.u.)       :      0.64510
Magnitude (Debye)      :      1.63972

Rotational constants in cm-1:     4.367979     0.867817     0.831457
Rotational constants in MHz : 130948.707391 26016.485263 24926.455337

                             ****ORCA TERMINATED NORMALLY****
TOTAL RUN TIME: 0 days 0 hours 1 minutes 11 seconds 51 msec
