                         Program Version 4.1.2  - RELEASE  -
|  1> #Run DFT-D3 single point of the dimer
|  2> ! wB97X-D3 def2-TZVP TIGHTSCF CHELPG PMODEL PAL8
|  3>
|  4> %base "3-53_DFT_AB"
|  5>
|  6> %scf
|  7> MaxIter 1000
|  8> end
|  9>
| 10> * xyz 0 1
| 11>   C                      -1.585375            -0.526504            1.034932
| 12>   O                      -1.659778            -0.611331            2.447003
| 13>   H                      -2.532319            -0.358363            2.745018
| 14>   H                      -0.888317            0.258825             0.604334
| 15>   H                      -1.291051            -1.503012            0.632394
| 16>   H                      -2.593034            -0.391837            0.618044
| 17>   C                      -2.104841            3.084643             0.843986
| 18>   O                      -2.083600            4.380224             0.255319
| 19>   H                      -2.532505            4.933065             0.852834
| 20>   H                      -3.153345            2.671950             0.795559
| 21>   H                      -1.390689            2.419240             0.375458
| 22>   H                      -1.825190            3.096817             1.930390
| 23> *
| 24>
| 25> #Run DFT-D3 single point of the molecule with dimer basis set
| 26> $new_job
| 27> %base "3-53_DFT_A"
| 28> ! wB97X-D3 def2-TZVP TIGHTSCF CHELPG PMODEL
| 29>
| 30> %scf
| 31> MaxIter 1000
| 32> end
| 33>
| 34> * xyz 0 1
| 35>   C                      -1.585375            -0.526504            1.034932
| 36>   O                      -1.659778            -0.611331            2.447003
| 37>   H                      -2.532319            -0.358363            2.745018
| 38>   H                      -0.888317            0.258825             0.604334
| 39>   H                      -1.291051            -1.503012            0.632394
| 40>   H                      -2.593034            -0.391837            0.618044
| 41>   C                    : -2.104841            3.084643             0.843986
| 42>   O                    : -2.083600            4.380224             0.255319
| 43>   H                    : -2.532505            4.933065             0.852834
| 44>   H                    : -3.153345            2.671950             0.795559
| 45>   H                    : -1.390689            2.419240             0.375458
| 46>   H                    : -1.825190            3.096817             1.930390
| 47> *
| 48>
| 49> #Run DFT-D3 single point of the particle with dimer basis set
| 50> $new_job
| 51> %base "3-53_DFT_B"
| 52> ! wB97X-D3 def2-TZVP TIGHTSCF CHELPG PMODEL
| 53>
| 54> %scf
| 55> MaxIter 1000
| 56> end
| 57>
| 58> * xyz 0 1
| 59>   C                    : -1.585375            -0.526504            1.034932
| 60>   O                    : -1.659778            -0.611331            2.447003
| 61>   H                    : -2.532319            -0.358363            2.745018
| 62>   H                    : -0.888317            0.258825             0.604334
| 63>   H                    : -1.291051            -1.503012            0.632394
| 64>   H                    : -2.593034            -0.391837            0.618044
| 65>   C                      -2.104841            3.084643             0.843986
| 66>   O                      -2.083600            4.380224             0.255319
| 67>   H                      -2.532505            4.933065             0.852834
| 68>   H                      -3.153345            2.671950             0.795559
| 69>   H                      -1.390689            2.419240             0.375458
| 70>   H                      -1.825190            3.096817             1.930390
| 71> *
| 72>
| 73>                          ****END OF INPUT****
 Total Charge           Charge          ....    0
 Multiplicity           Mult            ....    1
 Number of Electrons    NEL             ....   36
Dispersion correction           -0.001745007
FINAL SINGLE POINT ENERGY      -231.467459533672
Dispersion correction           -0.000262640
FINAL SINGLE POINT ENERGY      -115.732844180577

CARTESIAN COORDINATES (ANGSTROEM)
---------------------------------
  C     -1.585375   -0.526504    1.034932
  O     -1.659778   -0.611331    2.447003
  H     -2.532319   -0.358363    2.745018
  H     -0.888317    0.258825    0.604334
  H     -1.291051   -1.503012    0.632394
  H     -2.593034   -0.391837    0.618044
  C     -2.104841    3.084643    0.843986
  O     -2.083600    4.380224    0.255319
  H     -2.532505    4.933065    0.852834
  H     -3.153345    2.671950    0.795559
  H     -1.390689    2.419240    0.375458
  H     -1.825190    3.096817    1.930390

 Multiplicity           Mult            ....    1
 Number of Electrons    NEL             ....   18
 Basis Dimension        Dim             ....  172

ORBITAL ENERGIES
----------------

  NO   OCC          E(Eh)            E(eV)
   0   2.0000     -19.229074      -523.2497
   1   2.0000     -10.319990      -280.8212
   2   2.0000      -1.142018       -31.0759
   3   2.0000      -0.794198       -21.6112
   4   2.0000      -0.611527       -16.6405
   5   2.0000      -0.540733       -14.7141
   6   2.0000      -0.525042       -14.2871
   7   2.0000      -0.438845       -11.9416
   8   2.0000      -0.373804       -10.1717
   9   0.0000       0.082585         2.2473
  10   0.0000       0.118211         3.2167
  11   0.0000       0.155497         4.2313
  12   0.0000       0.165098         4.4925
  13   0.0000       0.181553         4.9403

MULLIKEN ATOMIC CHARGES
-----------------------
   0 C :    0.002024
   1 O :   -0.000029
   2 H :   -0.000147
   3 H :   -0.002026
   4 H :    0.000053
   5 H :   -0.000750
   6 C :   -0.185018
   7 O :   -0.462203
   8 H :    0.309371
   9 H :    0.104402
  10 H :    0.130838
  11 H :    0.103486
Sum of atomic charges:    0.0000000

LOEWDIN ATOMIC CHARGES
----------------------
   0 C :   -0.005057
   1 O :   -0.000079
   2 H :   -0.000147
   3 H :   -0.005328
   4 H :   -0.000016
   5 H :   -0.000867
   6 C :   -0.380941
   7 O :   -0.067529
   8 H :    0.149359
   9 H :    0.101948
  10 H :    0.109018
  11 H :    0.099639

  Mayer bond orders larger than 0.1
B(  6-C ,  7-O ) :   1.0013 B(  6-C ,  9-H ) :   0.9731 B(  6-C , 10-H ) :   0.9711
B(  6-C , 11-H ) :   0.9737 B(  7-O ,  8-H ) :   0.9079

Dispersion correction           -0.000241179
FINAL SINGLE POINT ENERGY      -115.734117248898

DIPOLE MOMENT
-------------
                                X             Y             Z
Electronic contribution:      0.16273       1.62220      -0.95803
Nuclear contribution   :     -0.43502      -1.77665       1.57268
                        -----------------------------------------
Total Dipole Moment    :     -0.27229      -0.15446       0.61465
                        -----------------------------------------
Magnitude (a.u.)       :      0.68977
Magnitude (Debye)      :      1.75327

Rotational constants in cm-1:     4.229870     0.820233     0.794229
Rotational constants in MHz : 126808.320701 24589.964557 23810.381988

                             ****ORCA TERMINATED NORMALLY****
TOTAL RUN TIME: 0 days 0 hours 5 minutes 59 seconds 213 msec
