                         Program Version 4.1.2  - RELEASE  -
|  1> #Run DFT-D3 single point of the dimer
|  2> ! wB97X-D3 def2-TZVP TIGHTSCF CHELPG PMODEL PAL8
|  3>
|  4> %base "21-134_DFT_AB"
|  5>
|  6> %scf
|  7> MaxIter 1000
|  8> end
|  9>
| 10> * xyz 0 1
| 11>   C                      -8.175844            -6.461726            -9.529841
| 12>   O                      -6.888502            -6.628987            -8.963924
| 13>   H                      -6.925999            -7.424524            -8.347092
| 14>   H                      -8.688891            -7.439171            -9.596102
| 15>   H                      -8.830355            -5.949237            -8.826932
| 16>   H                      -8.134614            -6.010198            -10.551838
| 17>   C                      -4.191851            -5.639233            -6.092348
| 18>   O                      -4.740001            -5.938197            -7.361074
| 19>   H                      -5.719560            -5.957338            -7.416808
| 20>   H                      -3.978246            -4.573620            -5.862607
| 21>   H                      -4.706726            -6.078706            -5.226175
| 22>   H                      -3.183972            -6.062330            -6.000709
| 23> *
| 24>
| 25> #Run DFT-D3 single point of the molecule with dimer basis set
| 26> $new_job
| 27> %base "21-134_DFT_A"
| 28> ! wB97X-D3 def2-TZVP TIGHTSCF CHELPG PMODEL
| 29>
| 30> %scf
| 31> MaxIter 1000
| 32> end
| 33>
| 34> * xyz 0 1
| 35>   C                      -8.175844            -6.461726            -9.529841
| 36>   O                      -6.888502            -6.628987            -8.963924
| 37>   H                      -6.925999            -7.424524            -8.347092
| 38>   H                      -8.688891            -7.439171            -9.596102
| 39>   H                      -8.830355            -5.949237            -8.826932
| 40>   H                      -8.134614            -6.010198            -10.551838
| 41>   C                    : -4.191851            -5.639233            -6.092348
| 42>   O                    : -4.740001            -5.938197            -7.361074
| 43>   H                    : -5.719560            -5.957338            -7.416808
| 44>   H                    : -3.978246            -4.573620            -5.862607
| 45>   H                    : -4.706726            -6.078706            -5.226175
| 46>   H                    : -3.183972            -6.062330            -6.000709
| 47> *
| 48>
| 49> #Run DFT-D3 single point of the particle with dimer basis set
| 50> $new_job
| 51> %base "21-134_DFT_B"
| 52> ! wB97X-D3 def2-TZVP TIGHTSCF CHELPG PMODEL
| 53>
| 54> %scf
| 55> MaxIter 1000
| 56> end
| 57>
| 58> * xyz 0 1
| 59>   C                    : -8.175844            -6.461726            -9.529841
| 60>   O                    : -6.888502            -6.628987            -8.963924
| 61>   H                    : -6.925999            -7.424524            -8.347092
| 62>   H                    : -8.688891            -7.439171            -9.596102
| 63>   H                    : -8.830355            -5.949237            -8.826932
| 64>   H                    : -8.134614            -6.010198            -10.551838
| 65>   C                      -4.191851            -5.639233            -6.092348
| 66>   O                      -4.740001            -5.938197            -7.361074
| 67>   H                      -5.719560            -5.957338            -7.416808
| 68>   H                      -3.978246            -4.573620            -5.862607
| 69>   H                      -4.706726            -6.078706            -5.226175
| 70>   H                      -3.183972            -6.062330            -6.000709
| 71> *
| 72>
| 73>                          ****END OF INPUT****
 Total Charge           Charge          ....    0
 Multiplicity           Mult            ....    1
 Number of Electrons    NEL             ....   36
Dispersion correction           -0.001351276
FINAL SINGLE POINT ENERGY      -231.464344711428
Dispersion correction           -0.000240568
FINAL SINGLE POINT ENERGY      -115.730862031505

CARTESIAN COORDINATES (ANGSTROEM)
---------------------------------
  C     -8.175844   -6.461726   -9.529841
  O     -6.888502   -6.628987   -8.963924
  H     -6.925999   -7.424524   -8.347092
  H     -8.688891   -7.439171   -9.596102
  H     -8.830355   -5.949237   -8.826932
  H     -8.134614   -6.010198  -10.551838
  C     -4.191851   -5.639233   -6.092348
  O     -4.740001   -5.938197   -7.361074
  H     -5.719560   -5.957338   -7.416808
  H     -3.978246   -4.573620   -5.862607
  H     -4.706726   -6.078706   -5.226175
  H     -3.183972   -6.062330   -6.000709

 Multiplicity           Mult            ....    1
 Number of Electrons    NEL             ....   18
 Basis Dimension        Dim             ....  172

ORBITAL ENERGIES
----------------

  NO   OCC          E(Eh)            E(eV)
   0   2.0000     -19.235155      -523.4152
   1   2.0000     -10.316324      -280.7215
   2   2.0000      -1.129272       -30.7291
   3   2.0000      -0.798899       -21.7391
   4   2.0000      -0.614445       -16.7199
   5   2.0000      -0.536040       -14.5864
   6   2.0000      -0.523945       -14.2573
   7   2.0000      -0.423121       -11.5137
   8   2.0000      -0.375199       -10.2097
   9   0.0000       0.075755         2.0614
  10   0.0000       0.126831         3.4512
  11   0.0000       0.144406         3.9295
  12   0.0000       0.182198         4.9579
  13   0.0000       0.194917         5.3040

MULLIKEN ATOMIC CHARGES
-----------------------
   0 C :    0.000101
   1 O :   -0.000260
   2 H :   -0.003971
   3 H :   -0.000025
   4 H :    0.000032
   5 H :   -0.000012
   6 C :   -0.161087
   7 O :   -0.475957
   8 H :    0.319357
   9 H :    0.100032
  10 H :    0.104500
  11 H :    0.117290
Sum of atomic charges:   -0.0000000

LOEWDIN ATOMIC CHARGES
----------------------
   0 C :   -0.001089
   1 O :   -0.015073
   2 H :   -0.005726
   3 H :   -0.000019
   4 H :   -0.000080
   5 H :   -0.000024
   6 C :   -0.396353
   7 O :   -0.073366
   8 H :    0.188912
   9 H :    0.097368
  10 H :    0.096639
  11 H :    0.108811

  Mayer bond orders larger than 0.1
B(  6-C ,  7-O ) :   1.0099 B(  6-C ,  9-H ) :   0.9705 B(  6-C , 10-H ) :   0.9755
B(  6-C , 11-H ) :   0.9751 B(  7-O ,  8-H ) :   0.8895

Dispersion correction           -0.000294403
FINAL SINGLE POINT ENERGY      -115.731357429842

DIPOLE MOMENT
-------------
                                X             Y             Z
Electronic contribution:     -0.74211      -0.37992      -1.76581
Nuclear contribution   :      0.35003       0.46367       2.25570
                        -----------------------------------------
Total Dipole Moment    :     -0.39207       0.08375       0.48989
                        -----------------------------------------
Magnitude (a.u.)       :      0.63303
Magnitude (Debye)      :      1.60904

Rotational constants in cm-1:     4.537886     0.800398     0.777457
Rotational constants in MHz : 136042.414160 23995.326468 23307.561494

                             ****ORCA TERMINATED NORMALLY****
TOTAL RUN TIME: 0 days 0 hours 1 minutes 2 seconds 609 msec
