                         Program Version 4.1.2  - RELEASE  -
|  1> #Run DFT-D3 single point of the dimer
|  2> ! wB97X-D3 def2-TZVP TIGHTSCF CHELPG PMODEL PAL8
|  3>
|  4> %base "19-161_DFT_AB"
|  5>
|  6> %scf
|  7> MaxIter 1000
|  8> end
|  9>
| 10> * xyz 0 1
| 11>   C                      8.510157             -10.398250           -10.235309
| 12>   O                      7.254456             -9.948081            -9.737780
| 13>   H                      6.666623             -9.857314            -10.452136
| 14>   H                      9.022312             -9.775662            -10.903889
| 15>   H                      9.198642             -10.657259           -9.413913
| 16>   H                      8.344879             -11.349580           -10.776448
| 17>   C                      4.563243             -8.956103            -7.843925
| 18>   O                      4.352439             -9.628202            -9.066214
| 19>   H                      4.870757             -10.458427           -8.890365
| 20>   H                      3.999747             -9.345409            -6.942468
| 21>   H                      5.655802             -9.041741            -7.518581
| 22>   H                      4.320447             -7.883231            -7.849700
| 23> *
| 24>
| 25> #Run DFT-D3 single point of the molecule with dimer basis set
| 26> $new_job
| 27> %base "19-161_DFT_A"
| 28> ! wB97X-D3 def2-TZVP TIGHTSCF CHELPG PMODEL
| 29>
| 30> %scf
| 31> MaxIter 1000
| 32> end
| 33>
| 34> * xyz 0 1
| 35>   C                      8.510157             -10.398250           -10.235309
| 36>   O                      7.254456             -9.948081            -9.737780
| 37>   H                      6.666623             -9.857314            -10.452136
| 38>   H                      9.022312             -9.775662            -10.903889
| 39>   H                      9.198642             -10.657259           -9.413913
| 40>   H                      8.344879             -11.349580           -10.776448
| 41>   C                    : 4.563243             -8.956103            -7.843925
| 42>   O                    : 4.352439             -9.628202            -9.066214
| 43>   H                    : 4.870757             -10.458427           -8.890365
| 44>   H                    : 3.999747             -9.345409            -6.942468
| 45>   H                    : 5.655802             -9.041741            -7.518581
| 46>   H                    : 4.320447             -7.883231            -7.849700
| 47> *
| 48>
| 49> #Run DFT-D3 single point of the particle with dimer basis set
| 50> $new_job
| 51> %base "19-161_DFT_B"
| 52> ! wB97X-D3 def2-TZVP TIGHTSCF CHELPG PMODEL
| 53>
| 54> %scf
| 55> MaxIter 1000
| 56> end
| 57>
| 58> * xyz 0 1
| 59>   C                    : 8.510157             -10.398250           -10.235309
| 60>   O                    : 7.254456             -9.948081            -9.737780
| 61>   H                    : 6.666623             -9.857314            -10.452136
| 62>   H                    : 9.022312             -9.775662            -10.903889
| 63>   H                    : 9.198642             -10.657259           -9.413913
| 64>   H                    : 8.344879             -11.349580           -10.776448
| 65>   C                      4.563243             -8.956103            -7.843925
| 66>   O                      4.352439             -9.628202            -9.066214
| 67>   H                      4.870757             -10.458427           -8.890365
| 68>   H                      3.999747             -9.345409            -6.942468
| 69>   H                      5.655802             -9.041741            -7.518581
| 70>   H                      4.320447             -7.883231            -7.849700
| 71> *
| 72>
| 73>                          ****END OF INPUT****
 Total Charge           Charge          ....    0
 Multiplicity           Mult            ....    1
 Number of Electrons    NEL             ....   36
Dispersion correction           -0.001693426
FINAL SINGLE POINT ENERGY      -231.467455414122
Dispersion correction           -0.000243574
FINAL SINGLE POINT ENERGY      -115.732961109912

CARTESIAN COORDINATES (ANGSTROEM)
---------------------------------
  C      8.510157  -10.398250  -10.235309
  O      7.254456   -9.948081   -9.737780
  H      6.666623   -9.857314  -10.452136
  H      9.022312   -9.775662  -10.903889
  H      9.198642  -10.657259   -9.413913
  H      8.344879  -11.349580  -10.776448
  C      4.563243   -8.956103   -7.843925
  O      4.352439   -9.628202   -9.066214
  H      4.870757  -10.458427   -8.890365
  H      3.999747   -9.345409   -6.942468
  H      5.655802   -9.041741   -7.518581
  H      4.320447   -7.883231   -7.849700

 Multiplicity           Mult            ....    1
 Number of Electrons    NEL             ....   18
 Basis Dimension        Dim             ....  172

ORBITAL ENERGIES
----------------

  NO   OCC          E(Eh)            E(eV)
   0   2.0000     -19.243809      -523.6507
   1   2.0000     -10.323979      -280.9297
   2   2.0000      -1.141154       -31.0524
   3   2.0000      -0.785393       -21.3716
   4   2.0000      -0.609423       -16.5832
   5   2.0000      -0.534437       -14.5428
   6   2.0000      -0.528759       -14.3883
   7   2.0000      -0.440951       -11.9989
   8   2.0000      -0.374195       -10.1824
   9   0.0000       0.078258         2.1295
  10   0.0000       0.118257         3.2179
  11   0.0000       0.145449         3.9579
  12   0.0000       0.182356         4.9622
  13   0.0000       0.185963         5.0603

MULLIKEN ATOMIC CHARGES
-----------------------
   0 C :   -0.000465
   1 O :   -0.004409
   2 H :   -0.005877
   3 H :    0.000002
   4 H :    0.000018
   5 H :   -0.000021
   6 C :   -0.199009
   7 O :   -0.444639
   8 H :    0.324617
   9 H :    0.102478
  10 H :    0.101644
  11 H :    0.125660
Sum of atomic charges:    0.0000000

LOEWDIN ATOMIC CHARGES
----------------------
   0 C :   -0.000395
   1 O :   -0.007976
   2 H :   -0.008415
   3 H :   -0.000007
   4 H :   -0.000015
   5 H :   -0.000011
   6 C :   -0.417107
   7 O :   -0.070810
   8 H :    0.198714
   9 H :    0.098051
  10 H :    0.101077
  11 H :    0.106895

  Mayer bond orders larger than 0.1
B(  6-C ,  7-O ) :   1.0103 B(  6-C ,  9-H ) :   0.9675 B(  6-C , 10-H ) :   0.9796
B(  6-C , 11-H ) :   0.9732 B(  7-O ,  8-H ) :   0.8928

Dispersion correction           -0.000251702
FINAL SINGLE POINT ENERGY      -115.729566292228

DIPOLE MOMENT
-------------
                                X             Y             Z
Electronic contribution:     -0.50492      -0.74803      -1.87120
Nuclear contribution   :      0.88013       0.51309       2.42435
                        -----------------------------------------
Total Dipole Moment    :      0.37522      -0.23494       0.55315
                        -----------------------------------------
Magnitude (a.u.)       :      0.70849
Magnitude (Debye)      :      1.80083

Rotational constants in cm-1:     4.138984     0.825294     0.788736
Rotational constants in MHz : 124083.606085 24741.697629 23645.724722

                             ****ORCA TERMINATED NORMALLY****
TOTAL RUN TIME: 0 days 0 hours 0 minutes 51 seconds 131 msec
