                         Program Version 4.1.2  - RELEASE  -
|  1> #Run DFT-D3 single point of the dimer
|  2> ! wB97X-D3 def2-TZVP TIGHTSCF CHELPG PMODEL PAL8
|  3>
|  4> %base "4-143_DFT_AB"
|  5>
|  6> %scf
|  7> MaxIter 1000
|  8> end
|  9>
| 10> * xyz 0 1
| 11>   C                      5.575884             3.455816             2.278661
| 12>   O                      5.570222             4.240747             1.097227
| 13>   H                      5.316256             5.104723             1.255462
| 14>   H                      6.440792             2.781911             2.223781
| 15>   H                      5.662425             4.071573             3.151950
| 16>   H                      4.681182             2.723832             2.396170
| 17>   C                      8.803671             5.429537             -0.344730
| 18>   O                      7.914857             5.250084             -1.418711
| 19>   H                      8.278456             5.800383             -2.093842
| 20>   H                      9.875000             5.493104             -0.713531
| 21>   H                      8.621284             6.403243             0.179232
| 22>   H                      8.789780             4.531197             0.299483
| 23> *
| 24>
| 25> #Run DFT-D3 single point of the molecule with dimer basis set
| 26> $new_job
| 27> %base "4-143_DFT_A"
| 28> ! wB97X-D3 def2-TZVP TIGHTSCF CHELPG PMODEL
| 29>
| 30> %scf
| 31> MaxIter 1000
| 32> end
| 33>
| 34> * xyz 0 1
| 35>   C                      5.575884             3.455816             2.278661
| 36>   O                      5.570222             4.240747             1.097227
| 37>   H                      5.316256             5.104723             1.255462
| 38>   H                      6.440792             2.781911             2.223781
| 39>   H                      5.662425             4.071573             3.151950
| 40>   H                      4.681182             2.723832             2.396170
| 41>   C                    : 8.803671             5.429537             -0.344730
| 42>   O                    : 7.914857             5.250084             -1.418711
| 43>   H                    : 8.278456             5.800383             -2.093842
| 44>   H                    : 9.875000             5.493104             -0.713531
| 45>   H                    : 8.621284             6.403243             0.179232
| 46>   H                    : 8.789780             4.531197             0.299483
| 47> *
| 48>
| 49> #Run DFT-D3 single point of the particle with dimer basis set
| 50> $new_job
| 51> %base "4-143_DFT_B"
| 52> ! wB97X-D3 def2-TZVP TIGHTSCF CHELPG PMODEL
| 53>
| 54> %scf
| 55> MaxIter 1000
| 56> end
| 57>
| 58> * xyz 0 1
| 59>   C                    : 5.575884             3.455816             2.278661
| 60>   O                    : 5.570222             4.240747             1.097227
| 61>   H                    : 5.316256             5.104723             1.255462
| 62>   H                    : 6.440792             2.781911             2.223781
| 63>   H                    : 5.662425             4.071573             3.151950
| 64>   H                    : 4.681182             2.723832             2.396170
| 65>   C                      8.803671             5.429537             -0.344730
| 66>   O                      7.914857             5.250084             -1.418711
| 67>   H                      8.278456             5.800383             -2.093842
| 68>   H                      9.875000             5.493104             -0.713531
| 69>   H                      8.621284             6.403243             0.179232
| 70>   H                      8.789780             4.531197             0.299483
| 71> *
| 72>
| 73>                          ****END OF INPUT****
 Total Charge           Charge          ....    0
 Multiplicity           Mult            ....    1
 Number of Electrons    NEL             ....   36
Dispersion correction           -0.001369691
FINAL SINGLE POINT ENERGY      -231.462901993401
Dispersion correction           -0.000266053
FINAL SINGLE POINT ENERGY      -115.730706431696

CARTESIAN COORDINATES (ANGSTROEM)
---------------------------------
  C      5.575884    3.455816    2.278661
  O      5.570222    4.240747    1.097227
  H      5.316256    5.104723    1.255462
  H      6.440792    2.781911    2.223781
  H      5.662425    4.071573    3.151950
  H      4.681182    2.723832    2.396170
  C      8.803671    5.429537   -0.344730
  O      7.914857    5.250084   -1.418711
  H      8.278456    5.800383   -2.093842
  H      9.875000    5.493104   -0.713531
  H      8.621284    6.403243    0.179232
  H      8.789780    4.531197    0.299483

 Multiplicity           Mult            ....    1
 Number of Electrons    NEL             ....   18
 Basis Dimension        Dim             ....  172

ORBITAL ENERGIES
----------------

  NO   OCC          E(Eh)            E(eV)
   0   2.0000     -19.230910      -523.2997
   1   2.0000     -10.321181      -280.8536
   2   2.0000      -1.146582       -31.2001
   3   2.0000      -0.788202       -21.4481
   4   2.0000      -0.613958       -16.7066
   5   2.0000      -0.545025       -14.8309
   6   2.0000      -0.521761       -14.1978
   7   2.0000      -0.436580       -11.8799
   8   2.0000      -0.373980       -10.1765
   9   0.0000       0.088851         2.4178
  10   0.0000       0.116557         3.1717
  11   0.0000       0.155705         4.2370
  12   0.0000       0.169687         4.6174
  13   0.0000       0.182502         4.9661

MULLIKEN ATOMIC CHARGES
-----------------------
   0 C :    0.000208
   1 O :   -0.000160
   2 H :   -0.000289
   3 H :   -0.000153
   4 H :   -0.000045
   5 H :   -0.000006
   6 C :   -0.185898
   7 O :   -0.457710
   8 H :    0.312799
   9 H :    0.100672
  10 H :    0.104649
  11 H :    0.125934
Sum of atomic charges:   -0.0000000

LOEWDIN ATOMIC CHARGES
----------------------
   0 C :   -0.000363
   1 O :   -0.000649
   2 H :   -0.000326
   3 H :   -0.000157
   4 H :   -0.000011
   5 H :   -0.000002
   6 C :   -0.405433
   7 O :   -0.063502
   8 H :    0.161864
   9 H :    0.100007
  10 H :    0.098905
  11 H :    0.109667

  Mayer bond orders larger than 0.1
B(  6-C ,  7-O ) :   0.9955 B(  6-C ,  9-H ) :   0.9797 B(  6-C , 10-H ) :   0.9697
B(  6-C , 11-H ) :   0.9721 B(  7-O ,  8-H ) :   0.9048

Dispersion correction           -0.000231076
FINAL SINGLE POINT ENERGY      -115.732990174898

DIPOLE MOMENT
-------------
                                X             Y             Z
Electronic contribution:     -1.36718      -0.35578      -1.26625
Nuclear contribution   :      1.94560       0.75277       1.22599
                        -----------------------------------------
Total Dipole Moment    :      0.57843       0.39699      -0.04027
                        -----------------------------------------
Magnitude (a.u.)       :      0.70271
Magnitude (Debye)      :      1.78614

Rotational constants in cm-1:     4.098339     0.841201     0.811765
Rotational constants in MHz : 122865.110840 25218.586508 24336.087574

                             ****ORCA TERMINATED NORMALLY****
TOTAL RUN TIME: 0 days 0 hours 1 minutes 35 seconds 1 msec
