                         Program Version 4.1.2  - RELEASE  -
|  1> #Run DFT-D3 single point of the dimer
|  2> ! wB97X-D3 def2-TZVP TIGHTSCF CHELPG PMODEL PAL8
|  3>
|  4> %base "17-71_DFT_AB"
|  5>
|  6> %scf
|  7> MaxIter 1000
|  8> end
|  9>
| 10> * xyz 0 1
| 11>   C                      3.428928             8.666497             5.285069
| 12>   O                      4.762131             8.230754             5.347500
| 13>   H                      4.851017             7.570642             4.577961
| 14>   H                      3.003292             8.738284             4.342669
| 15>   H                      2.793504             7.932422             5.811546
| 16>   H                      3.320919             9.639837             5.807513
| 17>   C                      9.948609             7.295253             3.797879
| 18>   O                      8.533854             7.283289             3.495953
| 19>   H                      8.251028             8.206076             3.583732
| 20>   H                      10.303462            6.302159             3.959882
| 21>   H                      10.491303            7.784051             2.938206
| 22>   H                      10.231001            7.925730             4.639789
| 23> *
| 24>
| 25> #Run DFT-D3 single point of the molecule with dimer basis set
| 26> $new_job
| 27> %base "17-71_DFT_A"
| 28> ! wB97X-D3 def2-TZVP TIGHTSCF CHELPG PMODEL
| 29>
| 30> %scf
| 31> MaxIter 1000
| 32> end
| 33>
| 34> * xyz 0 1
| 35>   C                      3.428928             8.666497             5.285069
| 36>   O                      4.762131             8.230754             5.347500
| 37>   H                      4.851017             7.570642             4.577961
| 38>   H                      3.003292             8.738284             4.342669
| 39>   H                      2.793504             7.932422             5.811546
| 40>   H                      3.320919             9.639837             5.807513
| 41>   C                    : 9.948609             7.295253             3.797879
| 42>   O                    : 8.533854             7.283289             3.495953
| 43>   H                    : 8.251028             8.206076             3.583732
| 44>   H                    : 10.303462            6.302159             3.959882
| 45>   H                    : 10.491303            7.784051             2.938206
| 46>   H                    : 10.231001            7.925730             4.639789
| 47> *
| 48>
| 49> #Run DFT-D3 single point of the particle with dimer basis set
| 50> $new_job
| 51> %base "17-71_DFT_B"
| 52> ! wB97X-D3 def2-TZVP TIGHTSCF CHELPG PMODEL
| 53>
| 54> %scf
| 55> MaxIter 1000
| 56> end
| 57>
| 58> * xyz 0 1
| 59>   C                    : 3.428928             8.666497             5.285069
| 60>   O                    : 4.762131             8.230754             5.347500
| 61>   H                    : 4.851017             7.570642             4.577961
| 62>   H                    : 3.003292             8.738284             4.342669
| 63>   H                    : 2.793504             7.932422             5.811546
| 64>   H                    : 3.320919             9.639837             5.807513
| 65>   C                      9.948609             7.295253             3.797879
| 66>   O                      8.533854             7.283289             3.495953
| 67>   H                      8.251028             8.206076             3.583732
| 68>   H                      10.303462            6.302159             3.959882
| 69>   H                      10.491303            7.784051             2.938206
| 70>   H                      10.231001            7.925730             4.639789
| 71> *
| 72>
| 73>                          ****END OF INPUT****
 Total Charge           Charge          ....    0
 Multiplicity           Mult            ....    1
 Number of Electrons    NEL             ....   36
Dispersion correction           -0.000738432
FINAL SINGLE POINT ENERGY      -231.464475338964
Dispersion correction           -0.000231716
FINAL SINGLE POINT ENERGY      -115.729407261265

CARTESIAN COORDINATES (ANGSTROEM)
---------------------------------
  C      3.428928    8.666497    5.285069
  O      4.762131    8.230754    5.347500
  H      4.851017    7.570642    4.577961
  H      3.003292    8.738284    4.342669
  H      2.793504    7.932422    5.811546
  H      3.320919    9.639837    5.807513
  C      9.948609    7.295253    3.797879
  O      8.533854    7.283289    3.495953
  H      8.251028    8.206076    3.583732
  H     10.303462    6.302159    3.959882
  H     10.491303    7.784051    2.938206
  H     10.231001    7.925730    4.639789

 Multiplicity           Mult            ....    1
 Number of Electrons    NEL             ....   18
 Basis Dimension        Dim             ....  172

ORBITAL ENERGIES
----------------

  NO   OCC          E(Eh)            E(eV)
   0   2.0000     -19.232329      -523.3383
   1   2.0000     -10.316408      -280.7237
   2   2.0000      -1.126843       -30.6630
   3   2.0000      -0.795604       -21.6495
   4   2.0000      -0.606985       -16.5169
   5   2.0000      -0.533828       -14.5262
   6   2.0000      -0.522043       -14.2055
   7   2.0000      -0.445636       -12.1264
   8   2.0000      -0.371556       -10.1105
   9   0.0000       0.087840         2.3902
  10   0.0000       0.112614         3.0644
  11   0.0000       0.148473         4.0402
  12   0.0000       0.180333         4.9071
  13   0.0000       0.194818         5.3013

MULLIKEN ATOMIC CHARGES
-----------------------
   0 C :    0.000024
   1 O :   -0.000059
   2 H :   -0.000855
   3 H :   -0.000007
   4 H :   -0.000003
   5 H :    0.000004
   6 C :   -0.179539
   7 O :   -0.471875
   8 H :    0.313748
   9 H :    0.127218
  10 H :    0.101923
  11 H :    0.109421
Sum of atomic charges:    0.0000000

LOEWDIN ATOMIC CHARGES
----------------------
   0 C :   -0.000012
   1 O :   -0.000132
   2 H :   -0.000579
   3 H :   -0.000000
   4 H :   -0.000000
   5 H :   -0.000001
   6 C :   -0.364932
   7 O :   -0.103911
   8 H :    0.172596
   9 H :    0.101537
  10 H :    0.101670
  11 H :    0.093764

  Mayer bond orders larger than 0.1
B(  6-C ,  7-O ) :   0.9964 B(  6-C ,  9-H ) :   0.9736 B(  6-C , 10-H ) :   0.9778
B(  6-C , 11-H ) :   0.9721 B(  7-O ,  8-H ) :   0.9006

Dispersion correction           -0.000247146
FINAL SINGLE POINT ENERGY      -115.733664347337

DIPOLE MOMENT
-------------
                                X             Y             Z
Electronic contribution:     -1.81183      -0.29405      -0.30933
Nuclear contribution   :      2.21617       0.87232       0.50621
                        -----------------------------------------
Total Dipole Moment    :      0.40434       0.57826       0.19688
                        -----------------------------------------
Magnitude (a.u.)       :      0.73256
Magnitude (Debye)      :      1.86202

Rotational constants in cm-1:     4.252017     0.804522     0.771177
Rotational constants in MHz : 127472.258283 24118.954024 23119.313181

                             ****ORCA TERMINATED NORMALLY****
TOTAL RUN TIME: 0 days 0 hours 1 minutes 11 seconds 308 msec
