                         Program Version 4.1.2  - RELEASE  -
|  1> #Run DFT-D3 single point of the dimer
|  2> ! wB97X-D3 def2-TZVP TIGHTSCF CHELPG PMODEL PAL8
|  3>
|  4> %base "15-196_DFT_AB"
|  5>
|  6> %scf
|  7> MaxIter 1000
|  8> end
|  9>
| 10> * xyz 0 1
| 11>   C                      -0.934420            -1.501478            -4.577652
| 12>   O                      -1.421709            -2.465679            -3.642206
| 13>   H                      -0.741423            -3.108189            -3.495462
| 14>   H                      -0.216309            -0.881202            -4.057632
| 15>   H                      -0.440611            -1.899452            -5.463402
| 16>   H                      -1.623490            -0.727408            -4.985823
| 17>   C                      1.674890             -5.070432            -4.306692
| 18>   O                      0.651857             -4.569950            -3.366266
| 19>   H                      1.142490             -4.351245            -2.580795
| 20>   H                      2.465199             -4.304580            -4.429567
| 21>   H                      2.164696             -5.972457            -3.822451
| 22>   H                      1.296751             -5.369933            -5.330497
| 23> *
| 24>
| 25> #Run DFT-D3 single point of the molecule with dimer basis set
| 26> $new_job
| 27> %base "15-196_DFT_A"
| 28> ! wB97X-D3 def2-TZVP TIGHTSCF CHELPG PMODEL
| 29>
| 30> %scf
| 31> MaxIter 1000
| 32> end
| 33>
| 34> * xyz 0 1
| 35>   C                      -0.934420            -1.501478            -4.577652
| 36>   O                      -1.421709            -2.465679            -3.642206
| 37>   H                      -0.741423            -3.108189            -3.495462
| 38>   H                      -0.216309            -0.881202            -4.057632
| 39>   H                      -0.440611            -1.899452            -5.463402
| 40>   H                      -1.623490            -0.727408            -4.985823
| 41>   C                    : 1.674890             -5.070432            -4.306692
| 42>   O                    : 0.651857             -4.569950            -3.366266
| 43>   H                    : 1.142490             -4.351245            -2.580795
| 44>   H                    : 2.465199             -4.304580            -4.429567
| 45>   H                    : 2.164696             -5.972457            -3.822451
| 46>   H                    : 1.296751             -5.369933            -5.330497
| 47> *
| 48>
| 49> #Run DFT-D3 single point of the particle with dimer basis set
| 50> $new_job
| 51> %base "15-196_DFT_B"
| 52> ! wB97X-D3 def2-TZVP TIGHTSCF CHELPG PMODEL
| 53>
| 54> %scf
| 55> MaxIter 1000
| 56> end
| 57>
| 58> * xyz 0 1
| 59>   C                    : -0.934420            -1.501478            -4.577652
| 60>   O                    : -1.421709            -2.465679            -3.642206
| 61>   H                    : -0.741423            -3.108189            -3.495462
| 62>   H                    : -0.216309            -0.881202            -4.057632
| 63>   H                    : -0.440611            -1.899452            -5.463402
| 64>   H                    : -1.623490            -0.727408            -4.985823
| 65>   C                      1.674890             -5.070432            -4.306692
| 66>   O                      0.651857             -4.569950            -3.366266
| 67>   H                      1.142490             -4.351245            -2.580795
| 68>   H                      2.465199             -4.304580            -4.429567
| 69>   H                      2.164696             -5.972457            -3.822451
| 70>   H                      1.296751             -5.369933            -5.330497
| 71> *
| 72>
| 73>                          ****END OF INPUT****
 Total Charge           Charge          ....    0
 Multiplicity           Mult            ....    1
 Number of Electrons    NEL             ....   36
Dispersion correction           -0.001672283
FINAL SINGLE POINT ENERGY      -231.467904187027
Dispersion correction           -0.000259603
FINAL SINGLE POINT ENERGY      -115.729691037161

CARTESIAN COORDINATES (ANGSTROEM)
---------------------------------
  C     -0.934420   -1.501478   -4.577652
  O     -1.421709   -2.465679   -3.642206
  H     -0.741423   -3.108189   -3.495462
  H     -0.216309   -0.881202   -4.057632
  H     -0.440611   -1.899452   -5.463402
  H     -1.623490   -0.727408   -4.985823
  C      1.674890   -5.070432   -4.306692
  O      0.651857   -4.569950   -3.366266
  H      1.142490   -4.351245   -2.580795
  H      2.465199   -4.304580   -4.429567
  H      2.164696   -5.972457   -3.822451
  H      1.296751   -5.369933   -5.330497

 Multiplicity           Mult            ....    1
 Number of Electrons    NEL             ....   18
 Basis Dimension        Dim             ....  172

ORBITAL ENERGIES
----------------

  NO   OCC          E(Eh)            E(eV)
   0   2.0000     -19.231877      -523.3260
   1   2.0000     -10.330459      -281.1061
   2   2.0000      -1.123587       -30.5743
   3   2.0000      -0.790506       -21.5108
   4   2.0000      -0.597944       -16.2709
   5   2.0000      -0.531751       -14.4697
   6   2.0000      -0.523785       -14.2529
   7   2.0000      -0.439153       -11.9500
   8   2.0000      -0.374724       -10.1967
   9   0.0000       0.094217         2.5638
  10   0.0000       0.124155         3.3784
  11   0.0000       0.144204         3.9240
  12   0.0000       0.189963         5.1692
  13   0.0000       0.192756         5.2452

MULLIKEN ATOMIC CHARGES
-----------------------
   0 C :   -0.001553
   1 O :    0.000317
   2 H :   -0.009139
   3 H :   -0.000562
   4 H :   -0.000382
   5 H :   -0.000257
   6 C :   -0.180432
   7 O :   -0.471460
   8 H :    0.313881
   9 H :    0.112805
  10 H :    0.107700
  11 H :    0.129082
Sum of atomic charges:    0.0000000

LOEWDIN ATOMIC CHARGES
----------------------
   0 C :   -0.003318
   1 O :   -0.004224
   2 H :   -0.037907
   3 H :   -0.000236
   4 H :   -0.000351
   5 H :   -0.000070
   6 C :   -0.352838
   7 O :   -0.080614
   8 H :    0.161583
   9 H :    0.097468
  10 H :    0.104493
  11 H :    0.116014

  Mayer bond orders larger than 0.1
B(  6-C ,  7-O ) :   0.9729 B(  6-C ,  9-H ) :   0.9741 B(  6-C , 10-H ) :   0.9739
B(  6-C , 11-H ) :   0.9702 B(  7-O ,  8-H ) :   0.9001

Dispersion correction           -0.000261122
FINAL SINGLE POINT ENERGY      -115.730317269671

DIPOLE MOMENT
-------------
                                X             Y             Z
Electronic contribution:     -1.46228       0.61914       0.97241
Nuclear contribution   :      2.21228      -0.70170      -0.88351
                        -----------------------------------------
Total Dipole Moment    :      0.75000      -0.08256       0.08890
                        -----------------------------------------
Magnitude (a.u.)       :      0.75975
Magnitude (Debye)      :      1.93113

Rotational constants in cm-1:     4.102123     0.772472     0.743814
Rotational constants in MHz : 122978.562849 23158.139522 22298.973280

                             ****ORCA TERMINATED NORMALLY****
TOTAL RUN TIME: 0 days 0 hours 1 minutes 7 seconds 123 msec
