                         Program Version 4.1.2  - RELEASE  -
|  1> #Run DFT-D3 single point of the dimer
|  2> ! wB97X-D3 def2-TZVP TIGHTSCF CHELPG PMODEL PAL8
|  3>
|  4> %base "18-149_DFT_AB"
|  5>
|  6> %scf
|  7> MaxIter 1000
|  8> end
|  9>
| 10> * xyz 0 1
| 11>   C                      -0.641337            -1.278704            2.735910
| 12>   O                      -0.235503            -1.995124            1.558616
| 13>   H                      -0.216393            -1.287634            0.896333
| 14>   H                      -1.715056            -1.169015            2.646839
| 15>   H                      -0.486806            -1.780883            3.720906
| 16>   H                      -0.073791            -0.337690            2.824643
| 17>   C                      -0.304787            0.711468             -1.671236
| 18>   O                      -0.358913            0.136075             -0.411054
| 19>   H                      -0.991350            0.716798             0.069101
| 20>   H                      -0.935680            0.160877             -2.344525
| 21>   H                      -0.561862            1.807531             -1.623286
| 22>   H                      0.713129             0.581412             -2.045958
| 23> *
| 24>
| 25> #Run DFT-D3 single point of the molecule with dimer basis set
| 26> $new_job
| 27> %base "18-149_DFT_A"
| 28> ! wB97X-D3 def2-TZVP TIGHTSCF CHELPG PMODEL
| 29>
| 30> %scf
| 31> MaxIter 1000
| 32> end
| 33>
| 34> * xyz 0 1
| 35>   C                      -0.641337            -1.278704            2.735910
| 36>   O                      -0.235503            -1.995124            1.558616
| 37>   H                      -0.216393            -1.287634            0.896333
| 38>   H                      -1.715056            -1.169015            2.646839
| 39>   H                      -0.486806            -1.780883            3.720906
| 40>   H                      -0.073791            -0.337690            2.824643
| 41>   C                    : -0.304787            0.711468             -1.671236
| 42>   O                    : -0.358913            0.136075             -0.411054
| 43>   H                    : -0.991350            0.716798             0.069101
| 44>   H                    : -0.935680            0.160877             -2.344525
| 45>   H                    : -0.561862            1.807531             -1.623286
| 46>   H                    : 0.713129             0.581412             -2.045958
| 47> *
| 48>
| 49> #Run DFT-D3 single point of the particle with dimer basis set
| 50> $new_job
| 51> %base "18-149_DFT_B"
| 52> ! wB97X-D3 def2-TZVP TIGHTSCF CHELPG PMODEL
| 53>
| 54> %scf
| 55> MaxIter 1000
| 56> end
| 57>
| 58> * xyz 0 1
| 59>   C                    : -0.641337            -1.278704            2.735910
| 60>   O                    : -0.235503            -1.995124            1.558616
| 61>   H                    : -0.216393            -1.287634            0.896333
| 62>   H                    : -1.715056            -1.169015            2.646839
| 63>   H                    : -0.486806            -1.780883            3.720906
| 64>   H                    : -0.073791            -0.337690            2.824643
| 65>   C                      -0.304787            0.711468             -1.671236
| 66>   O                      -0.358913            0.136075             -0.411054
| 67>   H                      -0.991350            0.716798             0.069101
| 68>   H                      -0.935680            0.160877             -2.344525
| 69>   H                      -0.561862            1.807531             -1.623286
| 70>   H                      0.713129             0.581412             -2.045958
| 71> *
| 72>
| 73>                          ****END OF INPUT****
 Total Charge           Charge          ....    0
 Multiplicity           Mult            ....    1
 Number of Electrons    NEL             ....   36
Dispersion correction           -0.001613647
FINAL SINGLE POINT ENERGY      -231.469372154415
Dispersion correction           -0.000232225
FINAL SINGLE POINT ENERGY      -115.730394016924

CARTESIAN COORDINATES (ANGSTROEM)
---------------------------------
  C     -0.641337   -1.278704    2.735910
  O     -0.235503   -1.995124    1.558616
  H     -0.216393   -1.287634    0.896333
  H     -1.715056   -1.169015    2.646839
  H     -0.486806   -1.780883    3.720906
  H     -0.073791   -0.337690    2.824643
  C     -0.304787    0.711468   -1.671236
  O     -0.358913    0.136075   -0.411054
  H     -0.991350    0.716798    0.069101
  H     -0.935680    0.160877   -2.344525
  H     -0.561862    1.807531   -1.623286
  H      0.713129    0.581412   -2.045958

 Multiplicity           Mult            ....    1
 Number of Electrons    NEL             ....   18
 Basis Dimension        Dim             ....  172

ORBITAL ENERGIES
----------------

  NO   OCC          E(Eh)            E(eV)
   0   2.0000     -19.232057      -523.3309
   1   2.0000     -10.311442      -280.5886
   2   2.0000      -1.144499       -31.1434
   3   2.0000      -0.788164       -21.4470
   4   2.0000      -0.611389       -16.6367
   5   2.0000      -0.548141       -14.9157
   6   2.0000      -0.529540       -14.4095
   7   2.0000      -0.435816       -11.8591
   8   2.0000      -0.370347       -10.0777
   9   0.0000       0.091240         2.4828
  10   0.0000       0.121659         3.3105
  11   0.0000       0.160257         4.3608
  12   0.0000       0.183603         4.9961
  13   0.0000       0.203074         5.5259

MULLIKEN ATOMIC CHARGES
-----------------------
   0 C :    0.001544
   1 O :    0.001138
   2 H :   -0.012189
   3 H :   -0.000483
   4 H :   -0.000117
   5 H :   -0.002192
   6 C :   -0.161686
   7 O :   -0.451853
   8 H :    0.318313
   9 H :    0.099239
  10 H :    0.096647
  11 H :    0.111638
Sum of atomic charges:    0.0000000

LOEWDIN ATOMIC CHARGES
----------------------
   0 C :   -0.003364
   1 O :   -0.004372
   2 H :   -0.041016
   3 H :   -0.000273
   4 H :   -0.000024
   5 H :   -0.001026
   6 C :   -0.407296
   7 O :   -0.031479
   8 H :    0.191294
   9 H :    0.090491
  10 H :    0.102807
  11 H :    0.104259

  Mayer bond orders larger than 0.1
B(  6-C ,  7-O ) :   1.0022 B(  6-C ,  9-H ) :   0.9772 B(  6-C , 10-H ) :   0.9804
B(  6-C , 11-H ) :   0.9815 B(  7-O ,  8-H ) :   0.8945

Dispersion correction           -0.000218293
FINAL SINGLE POINT ENERGY      -115.732348092319

DIPOLE MOMENT
-------------
                                X             Y             Z
Electronic contribution:     -0.00764      -0.84159       1.57193
Nuclear contribution   :     -0.35521       1.41876      -1.74520
                        -----------------------------------------
Total Dipole Moment    :     -0.36285       0.57717      -0.17327
                        -----------------------------------------
Magnitude (a.u.)       :      0.70343
Magnitude (Debye)      :      1.78797

Rotational constants in cm-1:     4.114618     0.875114     0.831834
Rotational constants in MHz : 123353.142452 26235.261042 24937.757424

                             ****ORCA TERMINATED NORMALLY****
TOTAL RUN TIME: 0 days 0 hours 0 minutes 59 seconds 120 msec
