                         Program Version 4.1.2  - RELEASE  -
|  1> #Run DFT-D3 single point of the dimer
|  2> ! wB97X-D3 def2-TZVP TIGHTSCF CHELPG PMODEL PAL8
|  3>
|  4> %base "14-174_DFT_AB"
|  5>
|  6> %scf
|  7> MaxIter 1000
|  8> end
|  9>
| 10> * xyz 0 1
| 11>   C                      -10.087581           -1.212474            -9.669881
| 12>   O                      -9.263157            -0.086489            -9.994473
| 13>   H                      -8.491873            -0.476232            -10.390221
| 14>   H                      -11.102939           -0.924491            -9.323504
| 15>   H                      -10.176577           -1.898669            -10.562449
| 16>   H                      -9.520877            -1.804414            -8.913006
| 17>   C                      -6.434173            0.024591             -8.359033
| 18>   O                      -7.570625            -0.647804            -7.851217
| 19>   H                      -8.348332            -0.035865            -8.046611
| 20>   H                      -6.472714            1.133618             -8.227095
| 21>   H                      -5.556411            -0.407620            -7.961578
| 22>   H                      -6.436764            -0.065187            -9.452756
| 23> *
| 24>
| 25> #Run DFT-D3 single point of the molecule with dimer basis set
| 26> $new_job
| 27> %base "14-174_DFT_A"
| 28> ! wB97X-D3 def2-TZVP TIGHTSCF CHELPG PMODEL
| 29>
| 30> %scf
| 31> MaxIter 1000
| 32> end
| 33>
| 34> * xyz 0 1
| 35>   C                      -10.087581           -1.212474            -9.669881
| 36>   O                      -9.263157            -0.086489            -9.994473
| 37>   H                      -8.491873            -0.476232            -10.390221
| 38>   H                      -11.102939           -0.924491            -9.323504
| 39>   H                      -10.176577           -1.898669            -10.562449
| 40>   H                      -9.520877            -1.804414            -8.913006
| 41>   C                    : -6.434173            0.024591             -8.359033
| 42>   O                    : -7.570625            -0.647804            -7.851217
| 43>   H                    : -8.348332            -0.035865            -8.046611
| 44>   H                    : -6.472714            1.133618             -8.227095
| 45>   H                    : -5.556411            -0.407620            -7.961578
| 46>   H                    : -6.436764            -0.065187            -9.452756
| 47> *
| 48>
| 49> #Run DFT-D3 single point of the particle with dimer basis set
| 50> $new_job
| 51> %base "14-174_DFT_B"
| 52> ! wB97X-D3 def2-TZVP TIGHTSCF CHELPG PMODEL
| 53>
| 54> %scf
| 55> MaxIter 1000
| 56> end
| 57>
| 58> * xyz 0 1
| 59>   C                    : -10.087581           -1.212474            -9.669881
| 60>   O                    : -9.263157            -0.086489            -9.994473
| 61>   H                    : -8.491873            -0.476232            -10.390221
| 62>   H                    : -11.102939           -0.924491            -9.323504
| 63>   H                    : -10.176577           -1.898669            -10.562449
| 64>   H                    : -9.520877            -1.804414            -8.913006
| 65>   C                      -6.434173            0.024591             -8.359033
| 66>   O                      -7.570625            -0.647804            -7.851217
| 67>   H                      -8.348332            -0.035865            -8.046611
| 68>   H                      -6.472714            1.133618             -8.227095
| 69>   H                      -5.556411            -0.407620            -7.961578
| 70>   H                      -6.436764            -0.065187            -9.452756
| 71> *
| 72>
| 73>                          ****END OF INPUT****
 Total Charge           Charge          ....    0
 Multiplicity           Mult            ....    1
 Number of Electrons    NEL             ....   36
Dispersion correction           -0.002146503
FINAL SINGLE POINT ENERGY      -231.470896618682
Dispersion correction           -0.000229856
FINAL SINGLE POINT ENERGY      -115.733304555523

CARTESIAN COORDINATES (ANGSTROEM)
---------------------------------
  C    -10.087581   -1.212474   -9.669881
  O     -9.263157   -0.086489   -9.994473
  H     -8.491873   -0.476232  -10.390221
  H    -11.102939   -0.924491   -9.323504
  H    -10.176577   -1.898669  -10.562449
  H     -9.520877   -1.804414   -8.913006
  C     -6.434173    0.024591   -8.359033
  O     -7.570625   -0.647804   -7.851217
  H     -8.348332   -0.035865   -8.046611
  H     -6.472714    1.133618   -8.227095
  H     -5.556411   -0.407620   -7.961578
  H     -6.436764   -0.065187   -9.452756

 Multiplicity           Mult            ....    1
 Number of Electrons    NEL             ....   18
 Basis Dimension        Dim             ....  172

ORBITAL ENERGIES
----------------

  NO   OCC          E(Eh)            E(eV)
   0   2.0000     -19.236758      -523.4588
   1   2.0000     -10.312198      -280.6092
   2   2.0000      -1.130311       -30.7573
   3   2.0000      -0.792008       -21.5516
   4   2.0000      -0.609402       -16.5827
   5   2.0000      -0.537103       -14.6153
   6   2.0000      -0.527529       -14.3548
   7   2.0000      -0.443320       -12.0634
   8   2.0000      -0.368909       -10.0385
   9   0.0000       0.079918         2.1747
  10   0.0000       0.131073         3.5667
  11   0.0000       0.150166         4.0862
  12   0.0000       0.174033         4.7357
  13   0.0000       0.196736         5.3535

MULLIKEN ATOMIC CHARGES
-----------------------
   0 C :   -0.003083
   1 O :   -0.008194
   2 H :    0.000759
   3 H :    0.000422
   4 H :   -0.000073
   5 H :   -0.006376
   6 C :   -0.179394
   7 O :   -0.455410
   8 H :    0.319690
   9 H :    0.105345
  10 H :    0.125675
  11 H :    0.100639
Sum of atomic charges:   -0.0000000

LOEWDIN ATOMIC CHARGES
----------------------
   0 C :   -0.014596
   1 O :   -0.015273
   2 H :   -0.006554
   3 H :   -0.000229
   4 H :   -0.000171
   5 H :   -0.010729
   6 C :   -0.385309
   7 O :   -0.069419
   8 H :    0.206997
   9 H :    0.100012
  10 H :    0.099009
  11 H :    0.096261

  Mayer bond orders larger than 0.1
B(  6-C ,  7-O ) :   1.0060 B(  6-C ,  9-H ) :   0.9781 B(  6-C , 10-H ) :   0.9755
B(  6-C , 11-H ) :   0.9762 B(  7-O ,  8-H ) :   0.8923

Dispersion correction           -0.000230843
FINAL SINGLE POINT ENERGY      -115.732255481265

DIPOLE MOMENT
-------------
                                X             Y             Z
Electronic contribution:     -1.24856      -1.05552       0.85012
Nuclear contribution   :      1.23784       1.68655      -1.15425
                        -----------------------------------------
Total Dipole Moment    :     -0.01072       0.63104      -0.30413
                        -----------------------------------------
Magnitude (a.u.)       :      0.70058
Magnitude (Debye)      :      1.78074

Rotational constants in cm-1:     4.186332     0.839760     0.796696
Rotational constants in MHz : 125503.076854 25175.366414 23884.352421

                             ****ORCA TERMINATED NORMALLY****
TOTAL RUN TIME: 0 days 0 hours 1 minutes 5 seconds 251 msec
