                         Program Version 4.1.2  - RELEASE  -
|  1> #Run DFT-D3 single point of the dimer
|  2> ! wB97X-D3 def2-TZVP TIGHTSCF CHELPG PMODEL PAL8
|  3>
|  4> %base "15-167_DFT_AB"
|  5>
|  6> %scf
|  7> MaxIter 1000
|  8> end
|  9>
| 10> * xyz 0 1
| 11>   C                      -6.575508            11.139790            -5.753849
| 12>   O                      -5.235632            11.502627            -5.925440
| 13>   H                      -4.668059            11.114250            -5.220568
| 14>   H                      -7.180906            12.044242            -5.578026
| 15>   H                      -6.971407            10.543566            -6.595920
| 16>   H                      -6.679509            10.539642            -4.838182
| 17>   C                      -2.802171            8.921985             -4.223362
| 18>   O                      -2.682968            10.191465            -4.918048
| 19>   H                      -1.840277            10.511214            -4.686150
| 20>   H                      -2.700391            8.977356             -3.177137
| 21>   H                      -3.730556            8.386122             -4.466392
| 22>   H                      -1.986734            8.258888             -4.570737
| 23> *
| 24>
| 25> #Run DFT-D3 single point of the molecule with dimer basis set
| 26> $new_job
| 27> %base "15-167_DFT_A"
| 28> ! wB97X-D3 def2-TZVP TIGHTSCF CHELPG PMODEL
| 29>
| 30> %scf
| 31> MaxIter 1000
| 32> end
| 33>
| 34> * xyz 0 1
| 35>   C                      -6.575508            11.139790            -5.753849
| 36>   O                      -5.235632            11.502627            -5.925440
| 37>   H                      -4.668059            11.114250            -5.220568
| 38>   H                      -7.180906            12.044242            -5.578026
| 39>   H                      -6.971407            10.543566            -6.595920
| 40>   H                      -6.679509            10.539642            -4.838182
| 41>   C                    : -2.802171            8.921985             -4.223362
| 42>   O                    : -2.682968            10.191465            -4.918048
| 43>   H                    : -1.840277            10.511214            -4.686150
| 44>   H                    : -2.700391            8.977356             -3.177137
| 45>   H                    : -3.730556            8.386122             -4.466392
| 46>   H                    : -1.986734            8.258888             -4.570737
| 47> *
| 48>
| 49> #Run DFT-D3 single point of the particle with dimer basis set
| 50> $new_job
| 51> %base "15-167_DFT_B"
| 52> ! wB97X-D3 def2-TZVP TIGHTSCF CHELPG PMODEL
| 53>
| 54> %scf
| 55> MaxIter 1000
| 56> end
| 57>
| 58> * xyz 0 1
| 59>   C                    : -6.575508            11.139790            -5.753849
| 60>   O                    : -5.235632            11.502627            -5.925440
| 61>   H                    : -4.668059            11.114250            -5.220568
| 62>   H                    : -7.180906            12.044242            -5.578026
| 63>   H                    : -6.971407            10.543566            -6.595920
| 64>   H                    : -6.679509            10.539642            -4.838182
| 65>   C                      -2.802171            8.921985             -4.223362
| 66>   O                      -2.682968            10.191465            -4.918048
| 67>   H                      -1.840277            10.511214            -4.686150
| 68>   H                      -2.700391            8.977356             -3.177137
| 69>   H                      -3.730556            8.386122             -4.466392
| 70>   H                      -1.986734            8.258888             -4.570737
| 71> *
| 72>
| 73>                          ****END OF INPUT****
 Total Charge           Charge          ....    0
 Multiplicity           Mult            ....    1
 Number of Electrons    NEL             ....   36
Dispersion correction           -0.001519033
FINAL SINGLE POINT ENERGY      -231.471739163617
Dispersion correction           -0.000248155
FINAL SINGLE POINT ENERGY      -115.734123869650

CARTESIAN COORDINATES (ANGSTROEM)
---------------------------------
  C     -6.575508   11.139790   -5.753849
  O     -5.235632   11.502627   -5.925440
  H     -4.668059   11.114250   -5.220568
  H     -7.180906   12.044242   -5.578026
  H     -6.971407   10.543566   -6.595920
  H     -6.679509   10.539642   -4.838182
  C     -2.802171    8.921985   -4.223362
  O     -2.682968   10.191465   -4.918048
  H     -1.840277   10.511214   -4.686150
  H     -2.700391    8.977356   -3.177137
  H     -3.730556    8.386122   -4.466392
  H     -1.986734    8.258888   -4.570737

 Multiplicity           Mult            ....    1
 Number of Electrons    NEL             ....   18
 Basis Dimension        Dim             ....  172

ORBITAL ENERGIES
----------------

  NO   OCC          E(Eh)            E(eV)
   0   2.0000     -19.229872      -523.2714
   1   2.0000     -10.314667      -280.6764
   2   2.0000      -1.133931       -30.8558
   3   2.0000      -0.801584       -21.8122
   4   2.0000      -0.609359       -16.5815
   5   2.0000      -0.538749       -14.6601
   6   2.0000      -0.525766       -14.3068
   7   2.0000      -0.442240       -12.0340
   8   2.0000      -0.376636       -10.2488
   9   0.0000       0.097187         2.6446
  10   0.0000       0.122376         3.3300
  11   0.0000       0.150895         4.1061
  12   0.0000       0.188718         5.1353
  13   0.0000       0.202194         5.5020

MULLIKEN ATOMIC CHARGES
-----------------------
   0 C :    0.000600
   1 O :    0.000567
   2 H :   -0.010285
   3 H :   -0.000038
   4 H :    0.000006
   5 H :   -0.000131
   6 C :   -0.186211
   7 O :   -0.462948
   8 H :    0.305879
   9 H :    0.116765
  10 H :    0.128380
  11 H :    0.107414
Sum of atomic charges:   -0.0000000

LOEWDIN ATOMIC CHARGES
----------------------
   0 C :   -0.000310
   1 O :   -0.003578
   2 H :   -0.023589
   3 H :   -0.000005
   4 H :   -0.000005
   5 H :   -0.000068
   6 C :   -0.354001
   7 O :   -0.065114
   8 H :    0.147529
   9 H :    0.086168
  10 H :    0.112062
  11 H :    0.100911

  Mayer bond orders larger than 0.1
B(  6-C ,  7-O ) :   0.9808 B(  6-C ,  9-H ) :   0.9687 B(  6-C , 10-H ) :   0.9747
B(  6-C , 11-H ) :   0.9784 B(  7-O ,  8-H ) :   0.9074

Dispersion correction           -0.000243158
FINAL SINGLE POINT ENERGY      -115.732484691788

DIPOLE MOMENT
-------------
                                X             Y             Z
Electronic contribution:     -0.06315       1.66346      -0.84816
Nuclear contribution   :      0.55679      -2.00405       1.29083
                        -----------------------------------------
Total Dipole Moment    :      0.49364      -0.34059       0.44267
                        -----------------------------------------
Magnitude (a.u.)       :      0.74541
Magnitude (Debye)      :      1.89468

Rotational constants in cm-1:     4.426177     0.798161     0.768684
Rotational constants in MHz : 132693.442023 23928.272523 23044.557054

                             ****ORCA TERMINATED NORMALLY****
TOTAL RUN TIME: 0 days 0 hours 1 minutes 5 seconds 785 msec
