                         Program Version 4.1.2  - RELEASE  -
|  1> #Run DFT-D3 single point of the dimer
|  2> ! wB97X-D3 def2-TZVP TIGHTSCF CHELPG PMODEL PAL8
|  3>
|  4> %base "13-67_DFT_AB"
|  5>
|  6> %scf
|  7> MaxIter 1000
|  8> end
|  9>
| 10> * xyz 0 1
| 11>   C                      6.579677             -4.656054            2.098122
| 12>   O                      6.418017             -5.253259            3.379541
| 13>   H                      5.507121             -5.599913            3.333520
| 14>   H                      5.924402             -3.782596            1.864666
| 15>   H                      7.523478             -4.087973            1.999012
| 16>   H                      6.439044             -5.427651            1.315982
| 17>   C                      9.815075             -3.424375            4.878584
| 18>   O                      10.820362            -2.705251            5.617242
| 19>   H                      11.187680            -3.311640            6.224069
| 20>   H                      10.173444            -4.331962            4.363986
| 21>   H                      8.986311             -3.762645            5.565948
| 22>   H                      9.261578             -2.853196            4.128685
| 23> *
| 24>
| 25> #Run DFT-D3 single point of the molecule with dimer basis set
| 26> $new_job
| 27> %base "13-67_DFT_A"
| 28> ! wB97X-D3 def2-TZVP TIGHTSCF CHELPG PMODEL
| 29>
| 30> %scf
| 31> MaxIter 1000
| 32> end
| 33>
| 34> * xyz 0 1
| 35>   C                      6.579677             -4.656054            2.098122
| 36>   O                      6.418017             -5.253259            3.379541
| 37>   H                      5.507121             -5.599913            3.333520
| 38>   H                      5.924402             -3.782596            1.864666
| 39>   H                      7.523478             -4.087973            1.999012
| 40>   H                      6.439044             -5.427651            1.315982
| 41>   C                    : 9.815075             -3.424375            4.878584
| 42>   O                    : 10.820362            -2.705251            5.617242
| 43>   H                    : 11.187680            -3.311640            6.224069
| 44>   H                    : 10.173444            -4.331962            4.363986
| 45>   H                    : 8.986311             -3.762645            5.565948
| 46>   H                    : 9.261578             -2.853196            4.128685
| 47> *
| 48>
| 49> #Run DFT-D3 single point of the particle with dimer basis set
| 50> $new_job
| 51> %base "13-67_DFT_B"
| 52> ! wB97X-D3 def2-TZVP TIGHTSCF CHELPG PMODEL
| 53>
| 54> %scf
| 55> MaxIter 1000
| 56> end
| 57>
| 58> * xyz 0 1
| 59>   C                    : 6.579677             -4.656054            2.098122
| 60>   O                    : 6.418017             -5.253259            3.379541
| 61>   H                    : 5.507121             -5.599913            3.333520
| 62>   H                    : 5.924402             -3.782596            1.864666
| 63>   H                    : 7.523478             -4.087973            1.999012
| 64>   H                    : 6.439044             -5.427651            1.315982
| 65>   C                      9.815075             -3.424375            4.878584
| 66>   O                      10.820362            -2.705251            5.617242
| 67>   H                      11.187680            -3.311640            6.224069
| 68>   H                      10.173444            -4.331962            4.363986
| 69>   H                      8.986311             -3.762645            5.565948
| 70>   H                      9.261578             -2.853196            4.128685
| 71> *
| 72>
| 73>                          ****END OF INPUT****
 Total Charge           Charge          ....    0
 Multiplicity           Mult            ....    1
 Number of Electrons    NEL             ....   36
Dispersion correction           -0.001228833
FINAL SINGLE POINT ENERGY      -231.463175180022
Dispersion correction           -0.000250269
FINAL SINGLE POINT ENERGY      -115.729951762836

CARTESIAN COORDINATES (ANGSTROEM)
---------------------------------
  C      6.579677   -4.656054    2.098122
  O      6.418017   -5.253259    3.379541
  H      5.507121   -5.599913    3.333520
  H      5.924402   -3.782596    1.864666
  H      7.523478   -4.087973    1.999012
  H      6.439044   -5.427651    1.315982
  C      9.815075   -3.424375    4.878584
  O     10.820362   -2.705251    5.617242
  H     11.187680   -3.311640    6.224069
  H     10.173444   -4.331962    4.363986
  H      8.986311   -3.762645    5.565948
  H      9.261578   -2.853196    4.128685

 Multiplicity           Mult            ....    1
 Number of Electrons    NEL             ....   18
 Basis Dimension        Dim             ....  172

ORBITAL ENERGIES
----------------

  NO   OCC          E(Eh)            E(eV)
   0   2.0000     -19.232299      -523.3375
   1   2.0000     -10.321059      -280.8503
   2   2.0000      -1.136822       -30.9345
   3   2.0000      -0.797730       -21.7073
   4   2.0000      -0.610160       -16.6033
   5   2.0000      -0.534089       -14.5333
   6   2.0000      -0.528082       -14.3698
   7   2.0000      -0.436311       -11.8726
   8   2.0000      -0.376292       -10.2394
   9   0.0000       0.080236         2.1833
  10   0.0000       0.118769         3.2319
  11   0.0000       0.141269         3.8441
  12   0.0000       0.160099         4.3565
  13   0.0000       0.189347         5.1524

MULLIKEN ATOMIC CHARGES
-----------------------
   0 C :    0.000150
   1 O :    0.000053
   2 H :   -0.000004
   3 H :   -0.000007
   4 H :   -0.000550
   5 H :   -0.000010
   6 C :   -0.184024
   7 O :   -0.464974
   8 H :    0.311886
   9 H :    0.107573
  10 H :    0.102439
  11 H :    0.127467
Sum of atomic charges:   -0.0000000

LOEWDIN ATOMIC CHARGES
----------------------
   0 C :   -0.000427
   1 O :   -0.000171
   2 H :   -0.000010
   3 H :   -0.000006
   4 H :   -0.000625
   5 H :   -0.000003
   6 C :   -0.377956
   7 O :   -0.078423
   8 H :    0.151720
   9 H :    0.096355
  10 H :    0.101299
  11 H :    0.108247

  Mayer bond orders larger than 0.1
B(  6-C ,  7-O ) :   1.0009 B(  6-C ,  9-H ) :   0.9710 B(  6-C , 10-H ) :   0.9776
B(  6-C , 11-H ) :   0.9717 B(  7-O ,  8-H ) :   0.9052

Dispersion correction           -0.000266137
FINAL SINGLE POINT ENERGY      -115.731869498157

DIPOLE MOMENT
-------------
                                X             Y             Z
Electronic contribution:      1.40927       1.13004       0.82827
Nuclear contribution   :     -1.59041      -1.80275      -0.74883
                        -----------------------------------------
Total Dipole Moment    :     -0.18114      -0.67271       0.07944
                        -----------------------------------------
Magnitude (a.u.)       :      0.70118
Magnitude (Debye)      :      1.78227

Rotational constants in cm-1:     4.397096     0.792308     0.769386
Rotational constants in MHz : 131821.631192 23752.792639 23065.612327

                             ****ORCA TERMINATED NORMALLY****
TOTAL RUN TIME: 0 days 0 hours 1 minutes 10 seconds 955 msec
