                         Program Version 4.1.2  - RELEASE  -
|  1> #Run DFT-D3 single point of the dimer
|  2> ! wB97X-D3 def2-TZVP TIGHTSCF CHELPG PMODEL PAL8
|  3>
|  4> %base "21-183_DFT_AB"
|  5>
|  6> %scf
|  7> MaxIter 1000
|  8> end
|  9>
| 10> * xyz 0 1
| 11>   C                      -0.209073            7.246687             3.659188
| 12>   O                      -1.346885            8.025318             3.141750
| 13>   H                      -1.003598            8.635182             2.472548
| 14>   H                      0.609450             7.974867             3.989157
| 15>   H                      -0.527729            6.725133             4.575650
| 16>   H                      0.160751             6.566100             2.895262
| 17>   C                      -1.804028            9.062981             -1.684498
| 18>   O                      -1.185827            8.137430             -0.790392
| 19>   H                      -0.857489            8.554327             0.021385
| 20>   H                      -1.514621            8.858486             -2.740619
| 21>   H                      -2.837264            8.982155             -1.610011
| 22>   H                      -1.602605            10.074410            -1.308795
| 23> *
| 24>
| 25> #Run DFT-D3 single point of the molecule with dimer basis set
| 26> $new_job
| 27> %base "21-183_DFT_A"
| 28> ! wB97X-D3 def2-TZVP TIGHTSCF CHELPG PMODEL
| 29>
| 30> %scf
| 31> MaxIter 1000
| 32> end
| 33>
| 34> * xyz 0 1
| 35>   C                      -0.209073            7.246687             3.659188
| 36>   O                      -1.346885            8.025318             3.141750
| 37>   H                      -1.003598            8.635182             2.472548
| 38>   H                      0.609450             7.974867             3.989157
| 39>   H                      -0.527729            6.725133             4.575650
| 40>   H                      0.160751             6.566100             2.895262
| 41>   C                    : -1.804028            9.062981             -1.684498
| 42>   O                    : -1.185827            8.137430             -0.790392
| 43>   H                    : -0.857489            8.554327             0.021385
| 44>   H                    : -1.514621            8.858486             -2.740619
| 45>   H                    : -2.837264            8.982155             -1.610011
| 46>   H                    : -1.602605            10.074410            -1.308795
| 47> *
| 48>
| 49> #Run DFT-D3 single point of the particle with dimer basis set
| 50> $new_job
| 51> %base "21-183_DFT_B"
| 52> ! wB97X-D3 def2-TZVP TIGHTSCF CHELPG PMODEL
| 53>
| 54> %scf
| 55> MaxIter 1000
| 56> end
| 57>
| 58> * xyz 0 1
| 59>   C                    : -0.209073            7.246687             3.659188
| 60>   O                    : -1.346885            8.025318             3.141750
| 61>   H                    : -1.003598            8.635182             2.472548
| 62>   H                    : 0.609450             7.974867             3.989157
| 63>   H                    : -0.527729            6.725133             4.575650
| 64>   H                    : 0.160751             6.566100             2.895262
| 65>   C                      -1.804028            9.062981             -1.684498
| 66>   O                      -1.185827            8.137430             -0.790392
| 67>   H                      -0.857489            8.554327             0.021385
| 68>   H                      -1.514621            8.858486             -2.740619
| 69>   H                      -2.837264            8.982155             -1.610011
| 70>   H                      -1.602605            10.074410            -1.308795
| 71> *
| 72>
| 73>                          ****END OF INPUT****
 Total Charge           Charge          ....    0
 Multiplicity           Mult            ....    1
 Number of Electrons    NEL             ....   36
Dispersion correction           -0.001151411
FINAL SINGLE POINT ENERGY      -231.461808889746
Dispersion correction           -0.000262623
FINAL SINGLE POINT ENERGY      -115.733485911779

CARTESIAN COORDINATES (ANGSTROEM)
---------------------------------
  C     -0.209073    7.246687    3.659188
  O     -1.346885    8.025318    3.141750
  H     -1.003598    8.635182    2.472548
  H      0.609450    7.974867    3.989157
  H     -0.527729    6.725133    4.575650
  H      0.160751    6.566100    2.895262
  C     -1.804028    9.062981   -1.684498
  O     -1.185827    8.137430   -0.790392
  H     -0.857489    8.554327    0.021385
  H     -1.514621    8.858486   -2.740619
  H     -2.837264    8.982155   -1.610011
  H     -1.602605   10.074410   -1.308795

 Multiplicity           Mult            ....    1
 Number of Electrons    NEL             ....   18
 Basis Dimension        Dim             ....  172

ORBITAL ENERGIES
----------------

  NO   OCC          E(Eh)            E(eV)
   0   2.0000     -19.225492      -523.1522
   1   2.0000     -10.311610      -280.5932
   2   2.0000      -1.125388       -30.6234
   3   2.0000      -0.799445       -21.7540
   4   2.0000      -0.608441       -16.5565
   5   2.0000      -0.537486       -14.6257
   6   2.0000      -0.533842       -14.5266
   7   2.0000      -0.426582       -11.6079
   8   2.0000      -0.370475       -10.0811
   9   0.0000       0.077274         2.1027
  10   0.0000       0.118880         3.2349
  11   0.0000       0.151974         4.1354
  12   0.0000       0.183952         5.0056
  13   0.0000       0.195534         5.3208

MULLIKEN ATOMIC CHARGES
-----------------------
   0 C :    0.000372
   1 O :    0.000008
   2 H :   -0.002459
   3 H :   -0.000004
   4 H :    0.000014
   5 H :   -0.000188
   6 C :   -0.157022
   7 O :   -0.494079
   8 H :    0.320955
   9 H :    0.115928
  10 H :    0.115487
  11 H :    0.100988
Sum of atomic charges:   -0.0000000

LOEWDIN ATOMIC CHARGES
----------------------
   0 C :   -0.000144
   1 O :   -0.000374
   2 H :   -0.003162
   3 H :   -0.000001
   4 H :   -0.000001
   5 H :   -0.000062
   6 C :   -0.365075
   7 O :   -0.097374
   8 H :    0.171868
   9 H :    0.109827
  10 H :    0.085131
  11 H :    0.099367

  Mayer bond orders larger than 0.1
B(  6-C ,  7-O ) :   0.9978 B(  6-C ,  9-H ) :   0.9735 B(  6-C , 10-H ) :   0.9730
B(  6-C , 11-H ) :   0.9913 B(  7-O ,  8-H ) :   0.8942

Dispersion correction           -0.000245119
FINAL SINGLE POINT ENERGY      -115.730087836329

DIPOLE MOMENT
-------------
                                X             Y             Z
Electronic contribution:      0.75194      -1.23774       0.93366
Nuclear contribution   :     -0.82254       1.90566      -0.76715
                        -----------------------------------------
Total Dipole Moment    :     -0.07060       0.66791       0.16651
                        -----------------------------------------
Magnitude (a.u.)       :      0.69197
Magnitude (Debye)      :      1.75884

Rotational constants in cm-1:     4.353536     0.825151     0.784574
Rotational constants in MHz : 130515.719426 24737.410517 23520.933872

                             ****ORCA TERMINATED NORMALLY****
TOTAL RUN TIME: 0 days 0 hours 0 minutes 57 seconds 110 msec
