                         Program Version 4.1.2  - RELEASE  -
|  1> #Run DFT-D3 single point of the dimer
|  2> ! wB97X-D3 def2-TZVP TIGHTSCF CHELPG PMODEL PAL8
|  3>
|  4> %base "18-49_DFT_AB"
|  5>
|  6> %scf
|  7> MaxIter 1000
|  8> end
|  9>
| 10> * xyz 0 1
| 11>   C                      -2.012563            4.665636             -1.975602
| 12>   O                      -2.587163            3.443356             -2.387225
| 13>   H                      -2.699769            2.832937             -1.683804
| 14>   H                      -1.104865            4.452574             -1.373677
| 15>   H                      -1.693675            5.183946             -2.882772
| 16>   H                      -2.766827            5.318061             -1.491630
| 17>   C                      -2.416561            4.623736             -5.912882
| 18>   O                      -3.210156            3.711580             -5.176579
| 19>   H                      -2.795461            3.696916             -4.320566
| 20>   H                      -2.690386            4.638181             -7.028107
| 21>   H                      -2.587570            5.667725             -5.499925
| 22>   H                      -1.369802            4.321976             -5.810700
| 23> *
| 24>
| 25> #Run DFT-D3 single point of the molecule with dimer basis set
| 26> $new_job
| 27> %base "18-49_DFT_A"
| 28> ! wB97X-D3 def2-TZVP TIGHTSCF CHELPG PMODEL
| 29>
| 30> %scf
| 31> MaxIter 1000
| 32> end
| 33>
| 34> * xyz 0 1
| 35>   C                      -2.012563            4.665636             -1.975602
| 36>   O                      -2.587163            3.443356             -2.387225
| 37>   H                      -2.699769            2.832937             -1.683804
| 38>   H                      -1.104865            4.452574             -1.373677
| 39>   H                      -1.693675            5.183946             -2.882772
| 40>   H                      -2.766827            5.318061             -1.491630
| 41>   C                    : -2.416561            4.623736             -5.912882
| 42>   O                    : -3.210156            3.711580             -5.176579
| 43>   H                    : -2.795461            3.696916             -4.320566
| 44>   H                    : -2.690386            4.638181             -7.028107
| 45>   H                    : -2.587570            5.667725             -5.499925
| 46>   H                    : -1.369802            4.321976             -5.810700
| 47> *
| 48>
| 49> #Run DFT-D3 single point of the particle with dimer basis set
| 50> $new_job
| 51> %base "18-49_DFT_B"
| 52> ! wB97X-D3 def2-TZVP TIGHTSCF CHELPG PMODEL
| 53>
| 54> %scf
| 55> MaxIter 1000
| 56> end
| 57>
| 58> * xyz 0 1
| 59>   C                    : -2.012563            4.665636             -1.975602
| 60>   O                    : -2.587163            3.443356             -2.387225
| 61>   H                    : -2.699769            2.832937             -1.683804
| 62>   H                    : -1.104865            4.452574             -1.373677
| 63>   H                    : -1.693675            5.183946             -2.882772
| 64>   H                    : -2.766827            5.318061             -1.491630
| 65>   C                      -2.416561            4.623736             -5.912882
| 66>   O                      -3.210156            3.711580             -5.176579
| 67>   H                      -2.795461            3.696916             -4.320566
| 68>   H                      -2.690386            4.638181             -7.028107
| 69>   H                      -2.587570            5.667725             -5.499925
| 70>   H                      -1.369802            4.321976             -5.810700
| 71> *
| 72>
| 73>                          ****END OF INPUT****
 Total Charge           Charge          ....    0
 Multiplicity           Mult            ....    1
 Number of Electrons    NEL             ....   36
Dispersion correction           -0.001942602
FINAL SINGLE POINT ENERGY      -231.474069472657
Dispersion correction           -0.000246454
FINAL SINGLE POINT ENERGY      -115.735309483615

CARTESIAN COORDINATES (ANGSTROEM)
---------------------------------
  C     -2.012563    4.665636   -1.975602
  O     -2.587163    3.443356   -2.387225
  H     -2.699769    2.832937   -1.683804
  H     -1.104865    4.452574   -1.373677
  H     -1.693675    5.183946   -2.882772
  H     -2.766827    5.318061   -1.491630
  C     -2.416561    4.623736   -5.912882
  O     -3.210156    3.711580   -5.176579
  H     -2.795461    3.696916   -4.320566
  H     -2.690386    4.638181   -7.028107
  H     -2.587570    5.667725   -5.499925
  H     -1.369802    4.321976   -5.810700

 Multiplicity           Mult            ....    1
 Number of Electrons    NEL             ....   18
 Basis Dimension        Dim             ....  172

ORBITAL ENERGIES
----------------

  NO   OCC          E(Eh)            E(eV)
   0   2.0000     -19.230441      -523.2869
   1   2.0000     -10.323735      -280.9231
   2   2.0000      -1.141400       -31.0591
   3   2.0000      -0.785758       -21.3816
   4   2.0000      -0.607993       -16.5443
   5   2.0000      -0.543671       -14.7940
   6   2.0000      -0.524868       -14.2824
   7   2.0000      -0.434035       -11.8107
   8   2.0000      -0.372966       -10.1489
   9   0.0000       0.069274         1.8850
  10   0.0000       0.132173         3.5966
  11   0.0000       0.147885         4.0241
  12   0.0000       0.173001         4.7076
  13   0.0000       0.183242         4.9863

MULLIKEN ATOMIC CHARGES
-----------------------
   0 C :   -0.006059
   1 O :   -0.000888
   2 H :   -0.000140
   3 H :    0.000014
   4 H :    0.001608
   5 H :    0.000563
   6 C :   -0.190377
   7 O :   -0.454159
   8 H :    0.309727
   9 H :    0.125404
  10 H :    0.103154
  11 H :    0.111152
Sum of atomic charges:    0.0000000

LOEWDIN ATOMIC CHARGES
----------------------
   0 C :   -0.007214
   1 O :   -0.017841
   2 H :   -0.000769
   3 H :   -0.000117
   4 H :   -0.002607
   5 H :   -0.000124
   6 C :   -0.395318
   7 O :   -0.064613
   8 H :    0.174052
   9 H :    0.118111
  10 H :    0.101299
  11 H :    0.095141

  Mayer bond orders larger than 0.1
B(  6-C ,  7-O ) :   0.9890 B(  6-C ,  9-H ) :   0.9690 B(  6-C , 10-H ) :   0.9726
B(  6-C , 11-H ) :   0.9807 B(  7-O ,  8-H ) :   0.9095

Dispersion correction           -0.000228631
FINAL SINGLE POINT ENERGY      -115.732700839343

DIPOLE MOMENT
-------------
                                X             Y             Z
Electronic contribution:     -1.09588      -1.23812       0.79872
Nuclear contribution   :      1.66395       1.56296      -0.56093
                        -----------------------------------------
Total Dipole Moment    :      0.56806       0.32484       0.23779
                        -----------------------------------------
Magnitude (a.u.)       :      0.69625
Magnitude (Debye)      :      1.76973

Rotational constants in cm-1:     4.038669     0.832505     0.803018
Rotational constants in MHz : 121076.254096 24957.860829 24073.865258

                             ****ORCA TERMINATED NORMALLY****
TOTAL RUN TIME: 0 days 0 hours 1 minutes 3 seconds 416 msec
