                         Program Version 4.1.2  - RELEASE  -
|  1> #Run DFT-D3 single point of the dimer
|  2> ! wB97X-D3 def2-TZVP TIGHTSCF CHELPG PMODEL PAL8
|  3>
|  4> %base "22-105_DFT_AB"
|  5>
|  6> %scf
|  7> MaxIter 1000
|  8> end
|  9>
| 10> * xyz 0 1
| 11>   C                      5.079205             10.088721            1.155748
| 12>   O                      4.727494             10.801788            -0.003881
| 13>   H                      5.357990             11.570185            -0.053049
| 14>   H                      4.991311             9.059950             0.974332
| 15>   H                      6.151954             10.261616            1.523012
| 16>   H                      4.377701             10.170308            2.005355
| 17>   C                      6.482601             7.842035             -1.496625
| 18>   O                      5.451297             7.279990             -2.213697
| 19>   H                      5.302266             7.795353             -3.038521
| 20>   H                      7.370266             7.345764             -1.568673
| 21>   H                      6.736706             8.879642             -1.829562
| 22>   H                      6.207652             7.865627             -0.439105
| 23> *
| 24>
| 25> #Run DFT-D3 single point of the molecule with dimer basis set
| 26> $new_job
| 27> %base "22-105_DFT_A"
| 28> ! wB97X-D3 def2-TZVP TIGHTSCF CHELPG PMODEL
| 29>
| 30> %scf
| 31> MaxIter 1000
| 32> end
| 33>
| 34> * xyz 0 1
| 35>   C                      5.079205             10.088721            1.155748
| 36>   O                      4.727494             10.801788            -0.003881
| 37>   H                      5.357990             11.570185            -0.053049
| 38>   H                      4.991311             9.059950             0.974332
| 39>   H                      6.151954             10.261616            1.523012
| 40>   H                      4.377701             10.170308            2.005355
| 41>   C                    : 6.482601             7.842035             -1.496625
| 42>   O                    : 5.451297             7.279990             -2.213697
| 43>   H                    : 5.302266             7.795353             -3.038521
| 44>   H                    : 7.370266             7.345764             -1.568673
| 45>   H                    : 6.736706             8.879642             -1.829562
| 46>   H                    : 6.207652             7.865627             -0.439105
| 47> *
| 48>
| 49> #Run DFT-D3 single point of the particle with dimer basis set
| 50> $new_job
| 51> %base "22-105_DFT_B"
| 52> ! wB97X-D3 def2-TZVP TIGHTSCF CHELPG PMODEL
| 53>
| 54> %scf
| 55> MaxIter 1000
| 56> end
| 57>
| 58> * xyz 0 1
| 59>   C                    : 5.079205             10.088721            1.155748
| 60>   O                    : 4.727494             10.801788            -0.003881
| 61>   H                    : 5.357990             11.570185            -0.053049
| 62>   H                    : 4.991311             9.059950             0.974332
| 63>   H                    : 6.151954             10.261616            1.523012
| 64>   H                    : 4.377701             10.170308            2.005355
| 65>   C                      6.482601             7.842035             -1.496625
| 66>   O                      5.451297             7.279990             -2.213697
| 67>   H                      5.302266             7.795353             -3.038521
| 68>   H                      7.370266             7.345764             -1.568673
| 69>   H                      6.736706             8.879642             -1.829562
| 70>   H                      6.207652             7.865627             -0.439105
| 71> *
| 72>
| 73>                          ****END OF INPUT****
 Total Charge           Charge          ....    0
 Multiplicity           Mult            ....    1
 Number of Electrons    NEL             ....   36
Dispersion correction           -0.001806550
FINAL SINGLE POINT ENERGY      -231.459021629254
Dispersion correction           -0.000265139
FINAL SINGLE POINT ENERGY      -115.728842071983

CARTESIAN COORDINATES (ANGSTROEM)
---------------------------------
  C      5.079205   10.088721    1.155748
  O      4.727494   10.801788   -0.003881
  H      5.357990   11.570185   -0.053049
  H      4.991311    9.059950    0.974332
  H      6.151954   10.261616    1.523012
  H      4.377701   10.170308    2.005355
  C      6.482601    7.842035   -1.496625
  O      5.451297    7.279990   -2.213697
  H      5.302266    7.795353   -3.038521
  H      7.370266    7.345764   -1.568673
  H      6.736706    8.879642   -1.829562
  H      6.207652    7.865627   -0.439105

 Multiplicity           Mult            ....    1
 Number of Electrons    NEL             ....   18
 Basis Dimension        Dim             ....  172

ORBITAL ENERGIES
----------------

  NO   OCC          E(Eh)            E(eV)
   0   2.0000     -19.231194      -523.3074
   1   2.0000     -10.303261      -280.3660
   2   2.0000      -1.142705       -31.0946
   3   2.0000      -0.797837       -21.7103
   4   2.0000      -0.618514       -16.8306
   5   2.0000      -0.547394       -14.8953
   6   2.0000      -0.532378       -14.4867
   7   2.0000      -0.427657       -11.6371
   8   2.0000      -0.371625       -10.1124
   9   0.0000       0.086508         2.3540
  10   0.0000       0.113236         3.0813
  11   0.0000       0.158366         4.3094
  12   0.0000       0.163248         4.4422
  13   0.0000       0.190524         5.1844

MULLIKEN ATOMIC CHARGES
-----------------------
   0 C :   -0.008387
   1 O :    0.000653
   2 H :    0.000004
   3 H :    0.006542
   4 H :    0.000722
   5 H :   -0.000060
   6 C :   -0.152902
   7 O :   -0.473779
   8 H :    0.322108
   9 H :    0.109393
  10 H :    0.088426
  11 H :    0.107279
Sum of atomic charges:    0.0000000

LOEWDIN ATOMIC CHARGES
----------------------
   0 C :   -0.007152
   1 O :   -0.000391
   2 H :   -0.000219
   3 H :   -0.005370
   4 H :   -0.000414
   5 H :   -0.000053
   6 C :   -0.405203
   7 O :   -0.057691
   8 H :    0.187748
   9 H :    0.078122
  10 H :    0.100778
  11 H :    0.109846

  Mayer bond orders larger than 0.1
B(  6-C ,  7-O ) :   1.0192 B(  6-C ,  9-H ) :   0.9731 B(  6-C , 10-H ) :   0.9894
B(  6-C , 11-H ) :   0.9778 B(  7-O ,  8-H ) :   0.8923

Dispersion correction           -0.000234467
FINAL SINGLE POINT ENERGY      -115.729532573990

DIPOLE MOMENT
-------------
                                X             Y             Z
Electronic contribution:     -1.36072      -0.93698      -0.88174
Nuclear contribution   :      1.66782       1.47377       0.60935
                        -----------------------------------------
Total Dipole Moment    :      0.30710       0.53679      -0.27238
                        -----------------------------------------
Magnitude (a.u.)       :      0.67576
Magnitude (Debye)      :      1.71764

Rotational constants in cm-1:     4.435735     0.870275     0.827188
Rotational constants in MHz : 132979.997707 26090.185569 24798.483435

                             ****ORCA TERMINATED NORMALLY****
TOTAL RUN TIME: 0 days 0 hours 1 minutes 2 seconds 768 msec
