                         Program Version 4.1.2  - RELEASE  -
|  1> #Run DFT-D3 single point of the dimer
|  2> ! wB97X-D3 def2-TZVP TIGHTSCF  CHELPG PAL8
|  3>
|  4> %base "80_charges"
|  5>
|  6> %scf
|  7> MaxIter 1000
|  8> end
|  9> %output
| 10>   Print[ P_Mayer ] 1
| 11>   Print[ P_NatPop ] 1
| 12>   Print[ P_Hirshfeld ] 1
| 13>   Print[ P_Mulliken ] 1
| 14>   Print [ P_Loewdin ] 1
| 15> end
| 16>
| 17> * xyz 0 1
| 18>   C                      7.240818             0.947479             5.085828
| 19>   O                      6.950179             -0.398360            4.702184
| 20>   H                      6.061717             -0.530768            5.076460
| 21>   H                      6.503277             1.361131             5.692185
| 22>   H                      8.224877             1.035540             5.485676
| 23>   H                      7.228435             1.644501             4.217846
| 24> *
| 25>
| 26>                          ****END OF INPUT****

CARTESIAN COORDINATES (ANGSTROEM)
---------------------------------
  C      7.240818    0.947479    5.085828
  O      6.950179   -0.398360    4.702184
  H      6.061717   -0.530768    5.076460
  H      6.503277    1.361131    5.692185
  H      8.224877    1.035540    5.485676
  H      7.228435    1.644501    4.217846

 Total Charge           Charge          ....    0
 Multiplicity           Mult            ....    1
 Number of Electrons    NEL             ....   18
 Basis Dimension        Dim             ....   86

ORBITAL ENERGIES
----------------

  NO   OCC          E(Eh)            E(eV)
   0   2.0000     -19.233664      -523.3746
   1   2.0000     -10.306981      -280.4672
   2   2.0000      -1.133109       -30.8335
   3   2.0000      -0.799212       -21.7477
   4   2.0000      -0.613970       -16.7070
   5   2.0000      -0.535925       -14.5833
   6   2.0000      -0.525543       -14.3008
   7   2.0000      -0.447514       -12.1775
   8   2.0000      -0.371813       -10.1175
   9   0.0000       0.111915         3.0454
  10   0.0000       0.154648         4.2082
  11   0.0000       0.198739         5.4080
  12   0.0000       0.209358         5.6969
  13   0.0000       0.240141         6.5346

MULLIKEN ATOMIC CHARGES
-----------------------
   0 C :   -0.177872
   1 O :   -0.464384
   2 H :    0.315259
   3 H :    0.112228
   4 H :    0.118802
   5 H :    0.095967
Sum of atomic charges:    0.0000000

LOEWDIN ATOMIC CHARGES
----------------------
   0 C :   -0.373334
   1 O :   -0.091200
   2 H :    0.179439
   3 H :    0.085880
   4 H :    0.097797
   5 H :    0.101419

  Mayer bond orders larger than 0.1
B(  0-C ,  1-O ) :   1.0157 B(  0-C ,  3-H ) :   0.9851 B(  0-C ,  4-H ) :   0.9782
B(  0-C ,  5-H ) :   0.9751 B(  1-O ,  2-H ) :   0.9026

Dispersion correction           -0.000241582
FINAL SINGLE POINT ENERGY      -115.729980111522

DIPOLE MOMENT
-------------
                                X             Y             Z
Electronic contribution:     -0.22662      -1.82349      -0.41796
Nuclear contribution   :     -0.23211       2.28273       0.82164
                        -----------------------------------------
Total Dipole Moment    :     -0.45873       0.45924       0.40368
                        -----------------------------------------
Magnitude (a.u.)       :      0.76439
Magnitude (Debye)      :      1.94291

Rotational constants in cm-1:     4.412997     0.824008     0.789278
Rotational constants in MHz : 132298.321991 24703.151939 23661.945196

                             ****ORCA TERMINATED NORMALLY****
TOTAL RUN TIME: 0 days 0 hours 0 minutes 39 seconds 789 msec
