                         Program Version 4.1.2  - RELEASE  -
|  1> #Run DFT-D3 single point of the dimer
|  2> ! wB97X-D3 def2-TZVP TIGHTSCF CHELPG PMODEL PAL8
|  3>
|  4> %base "9-80_DFT_AB"
|  5>
|  6> %scf
|  7> MaxIter 1000
|  8> end
|  9>
| 10> * xyz 0 1
| 11>   C                      -6.988085            5.917320             -1.756806
| 12>   O                      -5.841079            5.346315             -1.198149
| 13>   H                      -6.238028            4.725105             -0.596400
| 14>   H                      -7.469596            5.138823             -2.402609
| 15>   H                      -7.670168            6.304700             -1.043612
| 16>   H                      -6.732474            6.712058             -2.340388
| 17>   C                      -3.561589            5.623391             -3.331351
| 18>   O                      -3.120860            5.579767             -2.011548
| 19>   H                      -3.818249            5.950726             -1.462350
| 20>   H                      -3.094282            4.848925             -3.971790
| 21>   H                      -4.606795            5.456275             -3.438757
| 22>   H                      -3.368484            6.524600             -3.853765
| 23> *
| 24>
| 25> #Run DFT-D3 single point of the molecule with dimer basis set
| 26> $new_job
| 27> %base "9-80_DFT_A"
| 28> ! wB97X-D3 def2-TZVP TIGHTSCF CHELPG PMODEL
| 29>
| 30> %scf
| 31> MaxIter 1000
| 32> end
| 33>
| 34> * xyz 0 1
| 35>   C                      -6.988085            5.917320             -1.756806
| 36>   O                      -5.841079            5.346315             -1.198149
| 37>   H                      -6.238028            4.725105             -0.596400
| 38>   H                      -7.469596            5.138823             -2.402609
| 39>   H                      -7.670168            6.304700             -1.043612
| 40>   H                      -6.732474            6.712058             -2.340388
| 41>   C                    : -3.561589            5.623391             -3.331351
| 42>   O                    : -3.120860            5.579767             -2.011548
| 43>   H                    : -3.818249            5.950726             -1.462350
| 44>   H                    : -3.094282            4.848925             -3.971790
| 45>   H                    : -4.606795            5.456275             -3.438757
| 46>   H                    : -3.368484            6.524600             -3.853765
| 47> *
| 48>
| 49> #Run DFT-D3 single point of the particle with dimer basis set
| 50> $new_job
| 51> %base "9-80_DFT_B"
| 52> ! wB97X-D3 def2-TZVP TIGHTSCF CHELPG PMODEL
| 53>
| 54> %scf
| 55> MaxIter 1000
| 56> end
| 57>
| 58> * xyz 0 1
| 59>   C                    : -6.988085            5.917320             -1.756806
| 60>   O                    : -5.841079            5.346315             -1.198149
| 61>   H                    : -6.238028            4.725105             -0.596400
| 62>   H                    : -7.469596            5.138823             -2.402609
| 63>   H                    : -7.670168            6.304700             -1.043612
| 64>   H                    : -6.732474            6.712058             -2.340388
| 65>   C                      -3.561589            5.623391             -3.331351
| 66>   O                      -3.120860            5.579767             -2.011548
| 67>   H                      -3.818249            5.950726             -1.462350
| 68>   H                      -3.094282            4.848925             -3.971790
| 69>   H                      -4.606795            5.456275             -3.438757
| 70>   H                      -3.368484            6.524600             -3.853765
| 71> *
| 72>
| 73>                          ****END OF INPUT****
 Total Charge           Charge          ....    0
 Multiplicity           Mult            ....    1
 Number of Electrons    NEL             ....   36
Dispersion correction           -0.002067199
FINAL SINGLE POINT ENERGY      -231.468257220310
Dispersion correction           -0.000197776
FINAL SINGLE POINT ENERGY      -115.729535241608

CARTESIAN COORDINATES (ANGSTROEM)
---------------------------------
  C     -6.988085    5.917320   -1.756806
  O     -5.841079    5.346315   -1.198149
  H     -6.238028    4.725105   -0.596400
  H     -7.469596    5.138823   -2.402609
  H     -7.670168    6.304700   -1.043612
  H     -6.732474    6.712058   -2.340388
  C     -3.561589    5.623391   -3.331351
  O     -3.120860    5.579767   -2.011548
  H     -3.818249    5.950726   -1.462350
  H     -3.094282    4.848925   -3.971790
  H     -4.606795    5.456275   -3.438757
  H     -3.368484    6.524600   -3.853765

 Multiplicity           Mult            ....    1
 Number of Electrons    NEL             ....   18
 Basis Dimension        Dim             ....  172

ORBITAL ENERGIES
----------------

  NO   OCC          E(Eh)            E(eV)
   0   2.0000     -19.234180      -523.3886
   1   2.0000     -10.305449      -280.4255
   2   2.0000      -1.144506       -31.1436
   3   2.0000      -0.800847       -21.7921
   4   2.0000      -0.620913       -16.8959
   5   2.0000      -0.544434       -14.8148
   6   2.0000      -0.530373       -14.4322
   7   2.0000      -0.433262       -11.7897
   8   2.0000      -0.375583       -10.2201
   9   0.0000       0.070412         1.9160
  10   0.0000       0.134349         3.6558
  11   0.0000       0.145623         3.9626
  12   0.0000       0.170248         4.6327
  13   0.0000       0.186640         5.0787

MULLIKEN ATOMIC CHARGES
-----------------------
   0 C :    0.002823
   1 O :   -0.007882
   2 H :   -0.000751
   3 H :   -0.000776
   4 H :    0.000111
   5 H :   -0.000476
   6 C :   -0.166750
   7 O :   -0.462577
   8 H :    0.319284
   9 H :    0.111688
  10 H :    0.099426
  11 H :    0.105879
Sum of atomic charges:   -0.0000000

LOEWDIN ATOMIC CHARGES
----------------------
   0 C :   -0.006718
   1 O :   -0.017242
   2 H :   -0.000910
   3 H :   -0.000411
   4 H :   -0.000057
   5 H :   -0.001229
   6 C :   -0.397333
   7 O :   -0.045696
   8 H :    0.177436
   9 H :    0.110869
  10 H :    0.093208
  11 H :    0.088083

  Mayer bond orders larger than 0.1
B(  6-C ,  7-O ) :   1.0062 B(  6-C ,  9-H ) :   0.9756 B(  6-C , 10-H ) :   0.9792
B(  6-C , 11-H ) :   0.9801 B(  7-O ,  8-H ) :   0.8999

Dispersion correction           -0.000240042
FINAL SINGLE POINT ENERGY      -115.733460696406

DIPOLE MOMENT
-------------
                                X             Y             Z
Electronic contribution:      0.72759      -0.06931       1.80660
Nuclear contribution   :     -1.34834       0.31663      -1.97248
                        -----------------------------------------
Total Dipole Moment    :     -0.62074       0.24732      -0.16588
                        -----------------------------------------
Magnitude (a.u.)       :      0.68848
Magnitude (Debye)      :      1.74997

Rotational constants in cm-1:     4.572842     0.844866     0.811597
Rotational constants in MHz : 137090.347688 25328.443783 24331.051004

                             ****ORCA TERMINATED NORMALLY****
TOTAL RUN TIME: 0 days 0 hours 0 minutes 47 seconds 56 msec
