                         Program Version 4.1.2  - RELEASE  -
|  1> #Run DFT-D3 single point of the dimer
|  2> ! wB97X-D3 def2-TZVP TIGHTSCF CHELPG PMODEL PAL8
|  3>
|  4> %base "7-56_DFT_AB"
|  5>
|  6> %scf
|  7> MaxIter 1000
|  8> end
|  9>
| 10> * xyz 0 1
| 11>   C                      -1.585404            3.392058             7.212129
| 12>   O                      -2.120105            3.744945             8.520689
| 13>   H                      -1.462705            3.477092             9.167592
| 14>   H                      -2.311762            3.531126             6.455074
| 15>   H                      -0.759444            4.075805             6.822156
| 16>   H                      -1.228848            2.336794             7.215379
| 17>   C                      -5.694663            5.855385             7.654485
| 18>   O                      -6.732413            4.908999             7.753493
| 19>   H                      -6.902734            4.785585             8.716413
| 20>   H                      -5.860336            6.901046             8.030014
| 21>   H                      -4.748003            5.517548             8.206239
| 22>   H                      -5.409941            5.988484             6.609934
| 23> *
| 24>
| 25> #Run DFT-D3 single point of the molecule with dimer basis set
| 26> $new_job
| 27> %base "7-56_DFT_A"
| 28> ! wB97X-D3 def2-TZVP TIGHTSCF CHELPG PMODEL
| 29>
| 30> %scf
| 31> MaxIter 1000
| 32> end
| 33>
| 34> * xyz 0 1
| 35>   C                      -1.585404            3.392058             7.212129
| 36>   O                      -2.120105            3.744945             8.520689
| 37>   H                      -1.462705            3.477092             9.167592
| 38>   H                      -2.311762            3.531126             6.455074
| 39>   H                      -0.759444            4.075805             6.822156
| 40>   H                      -1.228848            2.336794             7.215379
| 41>   C                    : -5.694663            5.855385             7.654485
| 42>   O                    : -6.732413            4.908999             7.753493
| 43>   H                    : -6.902734            4.785585             8.716413
| 44>   H                    : -5.860336            6.901046             8.030014
| 45>   H                    : -4.748003            5.517548             8.206239
| 46>   H                    : -5.409941            5.988484             6.609934
| 47> *
| 48>
| 49> #Run DFT-D3 single point of the particle with dimer basis set
| 50> $new_job
| 51> %base "7-56_DFT_B"
| 52> ! wB97X-D3 def2-TZVP TIGHTSCF CHELPG PMODEL
| 53>
| 54> %scf
| 55> MaxIter 1000
| 56> end
| 57>
| 58> * xyz 0 1
| 59>   C                    : -1.585404            3.392058             7.212129
| 60>   O                    : -2.120105            3.744945             8.520689
| 61>   H                    : -1.462705            3.477092             9.167592
| 62>   H                    : -2.311762            3.531126             6.455074
| 63>   H                    : -0.759444            4.075805             6.822156
| 64>   H                    : -1.228848            2.336794             7.215379
| 65>   C                      -5.694663            5.855385             7.654485
| 66>   O                      -6.732413            4.908999             7.753493
| 67>   H                      -6.902734            4.785585             8.716413
| 68>   H                      -5.860336            6.901046             8.030014
| 69>   H                      -4.748003            5.517548             8.206239
| 70>   H                      -5.409941            5.988484             6.609934
| 71> *
| 72>
| 73>                          ****END OF INPUT****
 Total Charge           Charge          ....    0
 Multiplicity           Mult            ....    1
 Number of Electrons    NEL             ....   36
Dispersion correction           -0.001110032
FINAL SINGLE POINT ENERGY      -231.465939271243
Dispersion correction           -0.000275674
FINAL SINGLE POINT ENERGY      -115.731937829767

CARTESIAN COORDINATES (ANGSTROEM)
---------------------------------
  C     -1.585404    3.392058    7.212129
  O     -2.120105    3.744945    8.520689
  H     -1.462705    3.477092    9.167592
  H     -2.311762    3.531126    6.455074
  H     -0.759444    4.075805    6.822156
  H     -1.228848    2.336794    7.215379
  C     -5.694663    5.855385    7.654485
  O     -6.732413    4.908999    7.753493
  H     -6.902734    4.785585    8.716413
  H     -5.860336    6.901046    8.030014
  H     -4.748003    5.517548    8.206239
  H     -5.409941    5.988484    6.609934

 Multiplicity           Mult            ....    1
 Number of Electrons    NEL             ....   18
 Basis Dimension        Dim             ....  172

ORBITAL ENERGIES
----------------

  NO   OCC          E(Eh)            E(eV)
   0   2.0000     -19.239627      -523.5369
   1   2.0000     -10.320608      -280.8380
   2   2.0000      -1.137659       -30.9573
   3   2.0000      -0.789267       -21.4770
   4   2.0000      -0.611657       -16.6440
   5   2.0000      -0.532518       -14.4905
   6   2.0000      -0.525415       -14.2973
   7   2.0000      -0.436714       -11.8836
   8   2.0000      -0.373609       -10.1664
   9   0.0000       0.083484         2.2717
  10   0.0000       0.114022         3.1027
  11   0.0000       0.146547         3.9877
  12   0.0000       0.159757         4.3472
  13   0.0000       0.189255         5.1499

MULLIKEN ATOMIC CHARGES
-----------------------
   0 C :   -0.000189
   1 O :    0.000101
   2 H :   -0.000015
   3 H :    0.000074
   4 H :    0.000022
   5 H :   -0.000021
   6 C :   -0.175354
   7 O :   -0.459306
   8 H :    0.318372
   9 H :    0.100245
  10 H :    0.093992
  11 H :    0.122080
Sum of atomic charges:    0.0000000

LOEWDIN ATOMIC CHARGES
----------------------
   0 C :   -0.000535
   1 O :   -0.000922
   2 H :   -0.000067
   3 H :   -0.000126
   4 H :   -0.000008
   5 H :   -0.000012
   6 C :   -0.412082
   7 O :   -0.076879
   8 H :    0.187055
   9 H :    0.096082
  10 H :    0.100490
  11 H :    0.107003

  Mayer bond orders larger than 0.1
B(  6-C ,  7-O ) :   1.0119 B(  6-C ,  9-H ) :   0.9631 B(  6-C , 10-H ) :   0.9762
B(  6-C , 11-H ) :   0.9743 B(  7-O ,  8-H ) :   0.8941

Dispersion correction           -0.000270187
FINAL SINGLE POINT ENERGY      -115.732775374027

DIPOLE MOMENT
-------------
                                X             Y             Z
Electronic contribution:     -1.54370      -1.30277      -0.04944
Nuclear contribution   :      1.82014       1.57871       0.58951
                        -----------------------------------------
Total Dipole Moment    :      0.27644       0.27593       0.54007
                        -----------------------------------------
Magnitude (a.u.)       :      0.66651
Magnitude (Debye)      :      1.69414

Rotational constants in cm-1:     4.223645     0.820516     0.789354
Rotational constants in MHz : 126621.688234 24598.463676 23664.239954

                             ****ORCA TERMINATED NORMALLY****
TOTAL RUN TIME: 0 days 0 hours 1 minutes 11 seconds 672 msec
