                         Program Version 4.1.2  - RELEASE  -
|  1> #Run DFT-D3 single point of the dimer
|  2> ! wB97X-D3 def2-TZVP TIGHTSCF CHELPG PMODEL PAL8
|  3>
|  4> %base "19-133_DFT_AB"
|  5>
|  6> %scf
|  7> MaxIter 1000
|  8> end
|  9>
| 10> * xyz 0 1
| 11>   C                      -2.423555            9.589600             4.384260
| 12>   O                      -2.114661            10.943369            4.153612
| 13>   H                      -2.578880            11.475667            4.847472
| 14>   H                      -3.340220            9.227224             3.991830
| 15>   H                      -1.603882            8.984377             4.046865
| 16>   H                      -2.506658            9.472759             5.502255
| 17>   C                      -3.541295            10.521136            9.568644
| 18>   O                      -3.399435            10.060279            8.250291
| 19>   H                      -3.946769            10.629168            7.612722
| 20>   H                      -3.593873            11.622701            9.462151
| 21>   H                      -4.505612            10.219647            10.041513
| 22>   H                      -2.746563            10.239366            10.237962
| 23> *
| 24>
| 25> #Run DFT-D3 single point of the molecule with dimer basis set
| 26> $new_job
| 27> %base "19-133_DFT_A"
| 28> ! wB97X-D3 def2-TZVP TIGHTSCF CHELPG PMODEL
| 29>
| 30> %scf
| 31> MaxIter 1000
| 32> end
| 33>
| 34> * xyz 0 1
| 35>   C                      -2.423555            9.589600             4.384260
| 36>   O                      -2.114661            10.943369            4.153612
| 37>   H                      -2.578880            11.475667            4.847472
| 38>   H                      -3.340220            9.227224             3.991830
| 39>   H                      -1.603882            8.984377             4.046865
| 40>   H                      -2.506658            9.472759             5.502255
| 41>   C                    : -3.541295            10.521136            9.568644
| 42>   O                    : -3.399435            10.060279            8.250291
| 43>   H                    : -3.946769            10.629168            7.612722
| 44>   H                    : -3.593873            11.622701            9.462151
| 45>   H                    : -4.505612            10.219647            10.041513
| 46>   H                    : -2.746563            10.239366            10.237962
| 47> *
| 48>
| 49> #Run DFT-D3 single point of the particle with dimer basis set
| 50> $new_job
| 51> %base "19-133_DFT_B"
| 52> ! wB97X-D3 def2-TZVP TIGHTSCF CHELPG PMODEL
| 53>
| 54> %scf
| 55> MaxIter 1000
| 56> end
| 57>
| 58> * xyz 0 1
| 59>   C                    : -2.423555            9.589600             4.384260
| 60>   O                    : -2.114661            10.943369            4.153612
| 61>   H                    : -2.578880            11.475667            4.847472
| 62>   H                    : -3.340220            9.227224             3.991830
| 63>   H                    : -1.603882            8.984377             4.046865
| 64>   H                    : -2.506658            9.472759             5.502255
| 65>   C                      -3.541295            10.521136            9.568644
| 66>   O                      -3.399435            10.060279            8.250291
| 67>   H                      -3.946769            10.629168            7.612722
| 68>   H                      -3.593873            11.622701            9.462151
| 69>   H                      -4.505612            10.219647            10.041513
| 70>   H                      -2.746563            10.239366            10.237962
| 71> *
| 72>
| 73>                          ****END OF INPUT****
 Total Charge           Charge          ....    0
 Multiplicity           Mult            ....    1
 Number of Electrons    NEL             ....   36
Dispersion correction           -0.001201025
FINAL SINGLE POINT ENERGY      -231.461634774594
Dispersion correction           -0.000233921
FINAL SINGLE POINT ENERGY      -115.731998332212

CARTESIAN COORDINATES (ANGSTROEM)
---------------------------------
  C     -2.423555    9.589600    4.384260
  O     -2.114661   10.943369    4.153612
  H     -2.578880   11.475667    4.847472
  H     -3.340220    9.227224    3.991830
  H     -1.603882    8.984377    4.046865
  H     -2.506658    9.472759    5.502255
  C     -3.541295   10.521136    9.568644
  O     -3.399435   10.060279    8.250291
  H     -3.946769   10.629168    7.612722
  H     -3.593873   11.622701    9.462151
  H     -4.505612   10.219647   10.041513
  H     -2.746563   10.239366   10.237962

 Multiplicity           Mult            ....    1
 Number of Electrons    NEL             ....   18
 Basis Dimension        Dim             ....  172

ORBITAL ENERGIES
----------------

  NO   OCC          E(Eh)            E(eV)
   0   2.0000     -19.232917      -523.3543
   1   2.0000     -10.315027      -280.6862
   2   2.0000      -1.128805       -30.7163
   3   2.0000      -0.789613       -21.4865
   4   2.0000      -0.605937       -16.4884
   5   2.0000      -0.540524       -14.7084
   6   2.0000      -0.534630       -14.5480
   7   2.0000      -0.425420       -11.5763
   8   2.0000      -0.367860       -10.0100
   9   0.0000       0.083072         2.2605
  10   0.0000       0.117593         3.1999
  11   0.0000       0.152194         4.1414
  12   0.0000       0.173789         4.7290
  13   0.0000       0.201056         5.4710

MULLIKEN ATOMIC CHARGES
-----------------------
   0 C :    0.002032
   1 O :    0.000071
   2 H :   -0.000968
   3 H :   -0.000064
   4 H :   -0.000091
   5 H :   -0.006100
   6 C :   -0.164747
   7 O :   -0.477267
   8 H :    0.324653
   9 H :    0.099409
  10 H :    0.094785
  11 H :    0.128287
Sum of atomic charges:    0.0000000

LOEWDIN ATOMIC CHARGES
----------------------
   0 C :   -0.000987
   1 O :   -0.000037
   2 H :   -0.000650
   3 H :   -0.000012
   4 H :   -0.000003
   5 H :   -0.004004
   6 C :   -0.397035
   7 O :   -0.096417
   8 H :    0.202350
   9 H :    0.098578
  10 H :    0.095296
  11 H :    0.102920

  Mayer bond orders larger than 0.1
B(  6-C ,  7-O ) :   0.9945 B(  6-C ,  9-H ) :   0.9936 B(  6-C , 10-H ) :   0.9680
B(  6-C , 11-H ) :   0.9701 B(  7-O ,  8-H ) :   0.8841

Dispersion correction           -0.000239953
FINAL SINGLE POINT ENERGY      -115.729307345932

DIPOLE MOMENT
-------------
                                X             Y             Z
Electronic contribution:      0.39573      -0.82603      -1.57977
Nuclear contribution   :     -0.77921       1.37351       1.70627
                        -----------------------------------------
Total Dipole Moment    :     -0.38348       0.54749       0.12649
                        -----------------------------------------
Magnitude (a.u.)       :      0.68029
Magnitude (Debye)      :      1.72917

Rotational constants in cm-1:     4.220843     0.836649     0.801626
Rotational constants in MHz : 126537.683480 25082.104102 24032.154132

                             ****ORCA TERMINATED NORMALLY****
TOTAL RUN TIME: 0 days 0 hours 0 minutes 46 seconds 324 msec
