                         Program Version 4.1.2  - RELEASE  -
|  1> #Run DFT-D3 single point of the dimer
|  2> ! wB97X-D3 def2-TZVP TIGHTSCF CHELPG PMODEL PAL8
|  3>
|  4> %base "3-93_DFT_AB"
|  5>
|  6> %scf
|  7> MaxIter 1000
|  8> end
|  9>
| 10> * xyz 0 1
| 11>   C                      8.643484             -10.596535           3.469221
| 12>   O                      8.955716             -10.854942           2.119081
| 13>   H                      9.117032             -9.999848            1.707795
| 14>   H                      9.382769             -10.096657           4.085668
| 15>   H                      7.796566             -9.991265            3.549302
| 16>   H                      8.301989             -11.458165           3.995973
| 17>   C                      9.317209             -10.534982           -1.717924
| 18>   O                      9.210696             -9.285179            -2.380809
| 19>   H                      8.920651             -9.409764            -3.293410
| 20>   H                      8.353681             -10.771040           -1.223376
| 21>   H                      9.593112             -11.371253           -2.394576
| 22>   H                      10.014606            -10.479013           -0.886625
| 23> *
| 24>
| 25> #Run DFT-D3 single point of the molecule with dimer basis set
| 26> $new_job
| 27> %base "3-93_DFT_A"
| 28> ! wB97X-D3 def2-TZVP TIGHTSCF CHELPG PMODEL
| 29>
| 30> %scf
| 31> MaxIter 1000
| 32> end
| 33>
| 34> * xyz 0 1
| 35>   C                      8.643484             -10.596535           3.469221
| 36>   O                      8.955716             -10.854942           2.119081
| 37>   H                      9.117032             -9.999848            1.707795
| 38>   H                      9.382769             -10.096657           4.085668
| 39>   H                      7.796566             -9.991265            3.549302
| 40>   H                      8.301989             -11.458165           3.995973
| 41>   C                    : 9.317209             -10.534982           -1.717924
| 42>   O                    : 9.210696             -9.285179            -2.380809
| 43>   H                    : 8.920651             -9.409764            -3.293410
| 44>   H                    : 8.353681             -10.771040           -1.223376
| 45>   H                    : 9.593112             -11.371253           -2.394576
| 46>   H                    : 10.014606            -10.479013           -0.886625
| 47> *
| 48>
| 49> #Run DFT-D3 single point of the particle with dimer basis set
| 50> $new_job
| 51> %base "3-93_DFT_B"
| 52> ! wB97X-D3 def2-TZVP TIGHTSCF CHELPG PMODEL
| 53>
| 54> %scf
| 55> MaxIter 1000
| 56> end
| 57>
| 58> * xyz 0 1
| 59>   C                    : 8.643484             -10.596535           3.469221
| 60>   O                    : 8.955716             -10.854942           2.119081
| 61>   H                    : 9.117032             -9.999848            1.707795
| 62>   H                    : 9.382769             -10.096657           4.085668
| 63>   H                    : 7.796566             -9.991265            3.549302
| 64>   H                    : 8.301989             -11.458165           3.995973
| 65>   C                      9.317209             -10.534982           -1.717924
| 66>   O                      9.210696             -9.285179            -2.380809
| 67>   H                      8.920651             -9.409764            -3.293410
| 68>   H                      8.353681             -10.771040           -1.223376
| 69>   H                      9.593112             -11.371253           -2.394576
| 70>   H                      10.014606            -10.479013           -0.886625
| 71> *
| 72>
| 73>                          ****END OF INPUT****
 Total Charge           Charge          ....    0
 Multiplicity           Mult            ....    1
 Number of Electrons    NEL             ....   36
Dispersion correction           -0.001190628
FINAL SINGLE POINT ENERGY      -231.467626176263
Dispersion correction           -0.000239298
FINAL SINGLE POINT ENERGY      -115.730910065630

CARTESIAN COORDINATES (ANGSTROEM)
---------------------------------
  C      8.643484  -10.596535    3.469221
  O      8.955716  -10.854942    2.119081
  H      9.117032   -9.999848    1.707795
  H      9.382769  -10.096657    4.085668
  H      7.796566   -9.991265    3.549302
  H      8.301989  -11.458165    3.995973
  C      9.317209  -10.534982   -1.717924
  O      9.210696   -9.285179   -2.380809
  H      8.920651   -9.409764   -3.293410
  H      8.353681  -10.771040   -1.223376
  H      9.593112  -11.371253   -2.394576
  H     10.014606  -10.479013   -0.886625

 Multiplicity           Mult            ....    1
 Number of Electrons    NEL             ....   18
 Basis Dimension        Dim             ....  172

ORBITAL ENERGIES
----------------

  NO   OCC          E(Eh)            E(eV)
   0   2.0000     -19.229681      -523.2662
   1   2.0000     -10.316246      -280.7193
   2   2.0000      -1.131872       -30.7998
   3   2.0000      -0.794977       -21.6324
   4   2.0000      -0.608898       -16.5689
   5   2.0000      -0.535593       -14.5742
   6   2.0000      -0.530106       -14.4249
   7   2.0000      -0.432918       -11.7803
   8   2.0000      -0.370487       -10.0815
   9   0.0000       0.087060         2.3690
  10   0.0000       0.114944         3.1278
  11   0.0000       0.143098         3.8939
  12   0.0000       0.182355         4.9621
  13   0.0000       0.194766         5.2998

MULLIKEN ATOMIC CHARGES
-----------------------
   0 C :   -0.000181
   1 O :   -0.000191
   2 H :    0.000079
   3 H :    0.000002
   4 H :    0.000008
   5 H :    0.000005
   6 C :   -0.164841
   7 O :   -0.479687
   8 H :    0.317934
   9 H :    0.099681
  10 H :    0.107482
  11 H :    0.119709
Sum of atomic charges:    0.0000000

LOEWDIN ATOMIC CHARGES
----------------------
   0 C :   -0.000048
   1 O :   -0.000619
   2 H :   -0.001352
   3 H :   -0.000001
   4 H :   -0.000002
   5 H :   -0.000001
   6 C :   -0.384819
   7 O :   -0.085216
   8 H :    0.171329
   9 H :    0.097727
  10 H :    0.098899
  11 H :    0.104102

  Mayer bond orders larger than 0.1
B(  6-C ,  7-O ) :   1.0026 B(  6-C ,  9-H ) :   0.9777 B(  6-C , 10-H ) :   0.9749
B(  6-C , 11-H ) :   0.9724 B(  7-O ,  8-H ) :   0.8960

Dispersion correction           -0.000257281
FINAL SINGLE POINT ENERGY      -115.735187983488

DIPOLE MOMENT
-------------
                                X             Y             Z
Electronic contribution:     -0.01497       1.66208      -0.79651
Nuclear contribution   :     -0.11824      -2.24337       0.47795
                        -----------------------------------------
Total Dipole Moment    :     -0.13321      -0.58129      -0.31856
                        -----------------------------------------
Magnitude (a.u.)       :      0.67611
Magnitude (Debye)      :      1.71852

Rotational constants in cm-1:     4.289664     0.821684     0.789215
Rotational constants in MHz : 128600.880621 24633.464854 23660.077825

                             ****ORCA TERMINATED NORMALLY****
TOTAL RUN TIME: 0 days 0 hours 6 minutes 18 seconds 107 msec
