                         Program Version 4.1.2  - RELEASE  -
|  1> #Run DFT-D3 single point of the dimer
|  2> ! wB97X-D3 def2-TZVP TIGHTSCF CHELPG PMODEL PAL8
|  3>
|  4> %base "20-97_DFT_AB"
|  5>
|  6> %scf
|  7> MaxIter 1000
|  8> end
|  9>
| 10> * xyz 0 1
| 11>   C                      5.267570             -1.081642            8.103618
| 12>   O                      4.867190             -2.109481            8.947615
| 13>   H                      3.963623             -1.847875            9.170114
| 14>   H                      5.623439             -0.273538            8.761835
| 15>   H                      6.051549             -1.305107            7.366669
| 16>   H                      4.404855             -0.674548            7.564045
| 17>   C                      8.338665             -5.466422            7.264269
| 18>   O                      9.675011             -5.533234            7.796910
| 19>   H                      10.091754            -6.202308            7.263621
| 20>   H                      7.825557             -6.392799            7.377399
| 21>   H                      7.740624             -4.840618            7.877893
| 22>   H                      8.060300             -5.156455            6.205642
| 23> *
| 24>
| 25> #Run DFT-D3 single point of the molecule with dimer basis set
| 26> $new_job
| 27> %base "20-97_DFT_A"
| 28> ! wB97X-D3 def2-TZVP TIGHTSCF CHELPG PMODEL
| 29>
| 30> %scf
| 31> MaxIter 1000
| 32> end
| 33>
| 34> * xyz 0 1
| 35>   C                      5.267570             -1.081642            8.103618
| 36>   O                      4.867190             -2.109481            8.947615
| 37>   H                      3.963623             -1.847875            9.170114
| 38>   H                      5.623439             -0.273538            8.761835
| 39>   H                      6.051549             -1.305107            7.366669
| 40>   H                      4.404855             -0.674548            7.564045
| 41>   C                    : 8.338665             -5.466422            7.264269
| 42>   O                    : 9.675011             -5.533234            7.796910
| 43>   H                    : 10.091754            -6.202308            7.263621
| 44>   H                    : 7.825557             -6.392799            7.377399
| 45>   H                    : 7.740624             -4.840618            7.877893
| 46>   H                    : 8.060300             -5.156455            6.205642
| 47> *
| 48>
| 49> #Run DFT-D3 single point of the particle with dimer basis set
| 50> $new_job
| 51> %base "20-97_DFT_B"
| 52> ! wB97X-D3 def2-TZVP TIGHTSCF CHELPG PMODEL
| 53>
| 54> %scf
| 55> MaxIter 1000
| 56> end
| 57>
| 58> * xyz 0 1
| 59>   C                    : 5.267570             -1.081642            8.103618
| 60>   O                    : 4.867190             -2.109481            8.947615
| 61>   H                    : 3.963623             -1.847875            9.170114
| 62>   H                    : 5.623439             -0.273538            8.761835
| 63>   H                    : 6.051549             -1.305107            7.366669
| 64>   H                    : 4.404855             -0.674548            7.564045
| 65>   C                      8.338665             -5.466422            7.264269
| 66>   O                      9.675011             -5.533234            7.796910
| 67>   H                      10.091754            -6.202308            7.263621
| 68>   H                      7.825557             -6.392799            7.377399
| 69>   H                      7.740624             -4.840618            7.877893
| 70>   H                      8.060300             -5.156455            6.205642
| 71> *
| 72>
| 73>                          ****END OF INPUT****
 Total Charge           Charge          ....    0
 Multiplicity           Mult            ....    1
 Number of Electrons    NEL             ....   36
Dispersion correction           -0.000719095
FINAL SINGLE POINT ENERGY      -231.457641286935
Dispersion correction           -0.000211190
FINAL SINGLE POINT ENERGY      -115.730914929806

CARTESIAN COORDINATES (ANGSTROEM)
---------------------------------
  C      5.267570   -1.081642    8.103618
  O      4.867190   -2.109481    8.947615
  H      3.963623   -1.847875    9.170114
  H      5.623439   -0.273538    8.761835
  H      6.051549   -1.305107    7.366669
  H      4.404855   -0.674548    7.564045
  C      8.338665   -5.466422    7.264269
  O      9.675011   -5.533234    7.796910
  H     10.091754   -6.202308    7.263621
  H      7.825557   -6.392799    7.377399
  H      7.740624   -4.840618    7.877893
  H      8.060300   -5.156455    6.205642

 Multiplicity           Mult            ....    1
 Number of Electrons    NEL             ....   18
 Basis Dimension        Dim             ....  172

ORBITAL ENERGIES
----------------

  NO   OCC          E(Eh)            E(eV)
   0   2.0000     -19.239076      -523.5219
   1   2.0000     -10.313069      -280.6329
   2   2.0000      -1.136878       -30.9360
   3   2.0000      -0.803006       -21.8509
   4   2.0000      -0.611739       -16.6463
   5   2.0000      -0.531337       -14.4584
   6   2.0000      -0.524498       -14.2723
   7   2.0000      -0.444320       -12.0906
   8   2.0000      -0.379336       -10.3223
   9   0.0000       0.085342         2.3223
  10   0.0000       0.117788         3.2052
  11   0.0000       0.139925         3.8076
  12   0.0000       0.167420         4.5557
  13   0.0000       0.180174         4.9028

MULLIKEN ATOMIC CHARGES
-----------------------
   0 C :   -0.000027
   1 O :   -0.000003
   2 H :    0.000000
   3 H :    0.000000
   4 H :   -0.000056
   5 H :   -0.000000
   6 C :   -0.185367
   7 O :   -0.458820
   8 H :    0.314053
   9 H :    0.109825
  10 H :    0.121521
  11 H :    0.098875
Sum of atomic charges:   -0.0000000

LOEWDIN ATOMIC CHARGES
----------------------
   0 C :   -0.000088
   1 O :   -0.000029
   2 H :   -0.000002
   3 H :   -0.000001
   4 H :   -0.000055
   5 H :   -0.000001
   6 C :   -0.383232
   7 O :   -0.078537
   8 H :    0.165230
   9 H :    0.090932
  10 H :    0.101881
  11 H :    0.103901

  Mayer bond orders larger than 0.1
B(  6-C ,  7-O ) :   1.0123 B(  6-C ,  9-H ) :   0.9797 B(  6-C , 10-H ) :   0.9795
B(  6-C , 11-H ) :   0.9614 B(  7-O ,  8-H ) :   0.9042

Dispersion correction           -0.000280649
FINAL SINGLE POINT ENERGY      -115.726279336148

DIPOLE MOMENT
-------------
                                X             Y             Z
Electronic contribution:      1.90736       0.06087       0.76364
Nuclear contribution   :     -2.19611      -0.47078      -1.26666
                        -----------------------------------------
Total Dipole Moment    :     -0.28875      -0.40991      -0.50302
                        -----------------------------------------
Magnitude (a.u.)       :      0.71024
Magnitude (Debye)      :      1.80528

Rotational constants in cm-1:     4.610289     0.792873     0.766457
Rotational constants in MHz : 138212.973113 23769.744519 22977.796981

                             ****ORCA TERMINATED NORMALLY****
TOTAL RUN TIME: 0 days 0 hours 0 minutes 48 seconds 757 msec
