                         Program Version 4.1.2  - RELEASE  -
|  1> #Run DFT-D3 single point of the dimer
|  2> ! wB97X-D3 def2-TZVP TIGHTSCF CHELPG PMODEL PAL8
|  3>
|  4> %base "5-14_DFT_AB"
|  5>
|  6> %scf
|  7> MaxIter 1000
|  8> end
|  9>
| 10> * xyz 0 1
| 11>   C                      4.682052             -4.285258            7.565120
| 12>   O                      4.866444             -3.775011            6.253769
| 13>   H                      4.430609             -2.921144            6.243393
| 14>   H                      4.396078             -3.482571            8.277853
| 15>   H                      3.896837             -5.017560            7.602140
| 16>   H                      5.548066             -4.676643            7.981622
| 17>   C                      6.841558             -4.279358            3.593163
| 18>   O                      6.967058             -5.324514            2.727259
| 19>   H                      6.968686             -6.154978            3.242085
| 20>   H                      6.939423             -3.275139            3.211090
| 21>   H                      5.826904             -4.372985            4.033386
| 22>   H                      7.520350             -4.294207            4.443900
| 23> *
| 24>
| 25> #Run DFT-D3 single point of the molecule with dimer basis set
| 26> $new_job
| 27> %base "5-14_DFT_A"
| 28> ! wB97X-D3 def2-TZVP TIGHTSCF CHELPG PMODEL
| 29>
| 30> %scf
| 31> MaxIter 1000
| 32> end
| 33>
| 34> * xyz 0 1
| 35>   C                      4.682052             -4.285258            7.565120
| 36>   O                      4.866444             -3.775011            6.253769
| 37>   H                      4.430609             -2.921144            6.243393
| 38>   H                      4.396078             -3.482571            8.277853
| 39>   H                      3.896837             -5.017560            7.602140
| 40>   H                      5.548066             -4.676643            7.981622
| 41>   C                    : 6.841558             -4.279358            3.593163
| 42>   O                    : 6.967058             -5.324514            2.727259
| 43>   H                    : 6.968686             -6.154978            3.242085
| 44>   H                    : 6.939423             -3.275139            3.211090
| 45>   H                    : 5.826904             -4.372985            4.033386
| 46>   H                    : 7.520350             -4.294207            4.443900
| 47> *
| 48>
| 49> #Run DFT-D3 single point of the particle with dimer basis set
| 50> $new_job
| 51> %base "5-14_DFT_B"
| 52> ! wB97X-D3 def2-TZVP TIGHTSCF CHELPG PMODEL
| 53>
| 54> %scf
| 55> MaxIter 1000
| 56> end
| 57>
| 58> * xyz 0 1
| 59>   C                    : 4.682052             -4.285258            7.565120
| 60>   O                    : 4.866444             -3.775011            6.253769
| 61>   H                    : 4.430609             -2.921144            6.243393
| 62>   H                    : 4.396078             -3.482571            8.277853
| 63>   H                    : 3.896837             -5.017560            7.602140
| 64>   H                    : 5.548066             -4.676643            7.981622
| 65>   C                      6.841558             -4.279358            3.593163
| 66>   O                      6.967058             -5.324514            2.727259
| 67>   H                      6.968686             -6.154978            3.242085
| 68>   H                      6.939423             -3.275139            3.211090
| 69>   H                      5.826904             -4.372985            4.033386
| 70>   H                      7.520350             -4.294207            4.443900
| 71> *
| 72>
| 73>                          ****END OF INPUT****
 Total Charge           Charge          ....    0
 Multiplicity           Mult            ....    1
 Number of Electrons    NEL             ....   36
Dispersion correction           -0.001414273
FINAL SINGLE POINT ENERGY      -231.463274626458
Dispersion correction           -0.000239376
FINAL SINGLE POINT ENERGY      -115.732704794976

CARTESIAN COORDINATES (ANGSTROEM)
---------------------------------
  C      4.682052   -4.285258    7.565120
  O      4.866444   -3.775011    6.253769
  H      4.430609   -2.921144    6.243393
  H      4.396078   -3.482571    8.277853
  H      3.896837   -5.017560    7.602140
  H      5.548066   -4.676643    7.981622
  C      6.841558   -4.279358    3.593163
  O      6.967058   -5.324514    2.727259
  H      6.968686   -6.154978    3.242085
  H      6.939423   -3.275139    3.211090
  H      5.826904   -4.372985    4.033386
  H      7.520350   -4.294207    4.443900

 Multiplicity           Mult            ....    1
 Number of Electrons    NEL             ....   18
 Basis Dimension        Dim             ....  172

ORBITAL ENERGIES
----------------

  NO   OCC          E(Eh)            E(eV)
   0   2.0000     -19.232321      -523.3380
   1   2.0000     -10.308145      -280.4989
   2   2.0000      -1.150668       -31.3113
   3   2.0000      -0.793716       -21.5981
   4   2.0000      -0.620820       -16.8934
   5   2.0000      -0.548270       -14.9192
   6   2.0000      -0.536328       -14.5942
   7   2.0000      -0.427880       -11.6432
   8   2.0000      -0.366558        -9.9745
   9   0.0000       0.081058         2.2057
  10   0.0000       0.114018         3.1026
  11   0.0000       0.147638         4.0174
  12   0.0000       0.171839         4.6760
  13   0.0000       0.187965         5.1148

MULLIKEN ATOMIC CHARGES
-----------------------
   0 C :   -0.000899
   1 O :   -0.001341
   2 H :   -0.000487
   3 H :    0.000022
   4 H :   -0.000000
   5 H :   -0.000053
   6 C :   -0.160176
   7 O :   -0.464292
   8 H :    0.322792
   9 H :    0.119842
  10 H :    0.092785
  11 H :    0.091807
Sum of atomic charges:    0.0000000

LOEWDIN ATOMIC CHARGES
----------------------
   0 C :   -0.000991
   1 O :   -0.008620
   2 H :   -0.001081
   3 H :   -0.000020
   4 H :   -0.000036
   5 H :   -0.000065
   6 C :   -0.429686
   7 O :   -0.044918
   8 H :    0.187678
   9 H :    0.105573
  10 H :    0.101295
  11 H :    0.090871

  Mayer bond orders larger than 0.1
B(  6-C ,  7-O ) :   1.0015 B(  6-C ,  9-H ) :   0.9651 B(  6-C , 10-H ) :   0.9956
B(  6-C , 11-H ) :   0.9757 B(  7-O ,  8-H ) :   0.8897

Dispersion correction           -0.000218884
FINAL SINGLE POINT ENERGY      -115.729690408267

DIPOLE MOMENT
-------------
                                X             Y             Z
Electronic contribution:      0.29806      -1.28384      -1.43875
Nuclear contribution   :     -0.32510       1.14749       2.07331
                        -----------------------------------------
Total Dipole Moment    :     -0.02705      -0.13635       0.63456
                        -----------------------------------------
Magnitude (a.u.)       :      0.64961
Magnitude (Debye)      :      1.65118

Rotational constants in cm-1:     4.427949     0.871867     0.839841
Rotational constants in MHz : 132746.566491 26137.900407 25177.808332

                             ****ORCA TERMINATED NORMALLY****
TOTAL RUN TIME: 0 days 0 hours 0 minutes 52 seconds 430 msec
