                         Program Version 4.1.2  - RELEASE  -
|  1> #Run DFT-D3 single point of the dimer
|  2> ! wB97X-D3 def2-TZVP TIGHTSCF CHELPG PMODEL PAL8
|  3>
|  4> %base "2-102_DFT_AB"
|  5>
|  6> %scf
|  7> MaxIter 1000
|  8> end
|  9>
| 10> * xyz 0 1
| 11>   C                      8.250343             5.705359             -1.178994
| 12>   O                      7.781973             4.399579             -0.935683
| 13>   H                      6.990076             4.528335             -0.441139
| 14>   H                      7.784217             6.542154             -0.621818
| 15>   H                      9.292746             5.743374             -0.911809
| 16>   H                      8.314528             5.887828             -2.257205
| 17>   C                      7.947576             2.902656             3.136526
| 18>   O                      7.448989             4.167709             2.786762
| 19>   H                      7.372566             4.238832             1.809734
| 20>   H                      9.033967             2.850588             3.156712
| 21>   H                      7.690533             2.580126             4.118163
| 22>   H                      7.591214             2.235647             2.271137
| 23> *
| 24>
| 25> #Run DFT-D3 single point of the molecule with dimer basis set
| 26> $new_job
| 27> %base "2-102_DFT_A"
| 28> ! wB97X-D3 def2-TZVP TIGHTSCF CHELPG PMODEL
| 29>
| 30> %scf
| 31> MaxIter 1000
| 32> end
| 33>
| 34> * xyz 0 1
| 35>   C                      8.250343             5.705359             -1.178994
| 36>   O                      7.781973             4.399579             -0.935683
| 37>   H                      6.990076             4.528335             -0.441139
| 38>   H                      7.784217             6.542154             -0.621818
| 39>   H                      9.292746             5.743374             -0.911809
| 40>   H                      8.314528             5.887828             -2.257205
| 41>   C                    : 7.947576             2.902656             3.136526
| 42>   O                    : 7.448989             4.167709             2.786762
| 43>   H                    : 7.372566             4.238832             1.809734
| 44>   H                    : 9.033967             2.850588             3.156712
| 45>   H                    : 7.690533             2.580126             4.118163
| 46>   H                    : 7.591214             2.235647             2.271137
| 47> *
| 48>
| 49> #Run DFT-D3 single point of the particle with dimer basis set
| 50> $new_job
| 51> %base "2-102_DFT_B"
| 52> ! wB97X-D3 def2-TZVP TIGHTSCF CHELPG PMODEL
| 53>
| 54> %scf
| 55> MaxIter 1000
| 56> end
| 57>
| 58> * xyz 0 1
| 59>   C                    : 8.250343             5.705359             -1.178994
| 60>   O                    : 7.781973             4.399579             -0.935683
| 61>   H                    : 6.990076             4.528335             -0.441139
| 62>   H                    : 7.784217             6.542154             -0.621818
| 63>   H                    : 9.292746             5.743374             -0.911809
| 64>   H                    : 8.314528             5.887828             -2.257205
| 65>   C                      7.947576             2.902656             3.136526
| 66>   O                      7.448989             4.167709             2.786762
| 67>   H                      7.372566             4.238832             1.809734
| 68>   H                      9.033967             2.850588             3.156712
| 69>   H                      7.690533             2.580126             4.118163
| 70>   H                      7.591214             2.235647             2.271137
| 71> *
| 72>
| 73>                          ****END OF INPUT****
 Total Charge           Charge          ....    0
 Multiplicity           Mult            ....    1
 Number of Electrons    NEL             ....   36
Dispersion correction           -0.001417144
FINAL SINGLE POINT ENERGY      -231.460354870324
Dispersion correction           -0.000249600
FINAL SINGLE POINT ENERGY      -115.731769944339

CARTESIAN COORDINATES (ANGSTROEM)
---------------------------------
  C      8.250343    5.705359   -1.178994
  O      7.781973    4.399579   -0.935683
  H      6.990076    4.528335   -0.441139
  H      7.784217    6.542154   -0.621818
  H      9.292746    5.743374   -0.911809
  H      8.314528    5.887828   -2.257205
  C      7.947576    2.902656    3.136526
  O      7.448989    4.167709    2.786762
  H      7.372566    4.238832    1.809734
  H      9.033967    2.850588    3.156712
  H      7.690533    2.580126    4.118163
  H      7.591214    2.235647    2.271137

 Multiplicity           Mult            ....    1
 Number of Electrons    NEL             ....   18
 Basis Dimension        Dim             ....  172

ORBITAL ENERGIES
----------------

  NO   OCC          E(Eh)            E(eV)
   0   2.0000     -19.230415      -523.2862
   1   2.0000     -10.315612      -280.7021
   2   2.0000      -1.134402       -30.8686
   3   2.0000      -0.793433       -21.5904
   4   2.0000      -0.607737       -16.5374
   5   2.0000      -0.548474       -14.9247
   6   2.0000      -0.530990       -14.4490
   7   2.0000      -0.426019       -11.5926
   8   2.0000      -0.368140       -10.0176
   9   0.0000       0.069738         1.8977
  10   0.0000       0.119435         3.2500
  11   0.0000       0.153287         4.1712
  12   0.0000       0.179171         4.8755
  13   0.0000       0.193392         5.2625

MULLIKEN ATOMIC CHARGES
-----------------------
   0 C :   -0.001926
   1 O :   -0.000217
   2 H :   -0.000584
   3 H :    0.000199
   4 H :    0.000246
   5 H :   -0.000025
   6 C :   -0.156728
   7 O :   -0.474922
   8 H :    0.322604
   9 H :    0.098415
  10 H :    0.117438
  11 H :    0.095501
Sum of atomic charges:   -0.0000000

LOEWDIN ATOMIC CHARGES
----------------------
   0 C :   -0.001238
   1 O :   -0.001509
   2 H :   -0.003116
   3 H :   -0.000084
   4 H :   -0.000052
   5 H :   -0.000034
   6 C :   -0.392320
   7 O :   -0.082191
   8 H :    0.184569
   9 H :    0.090491
  10 H :    0.097746
  11 H :    0.107739

  Mayer bond orders larger than 0.1
B(  6-C ,  7-O ) :   1.0034 B(  6-C ,  9-H ) :   0.9688 B(  6-C , 10-H ) :   0.9728
B(  6-C , 11-H ) :   0.9970 B(  7-O ,  8-H ) :   0.8953

Dispersion correction           -0.000237150
FINAL SINGLE POINT ENERGY      -115.727713205697

DIPOLE MOMENT
-------------
                                X             Y             Z
Electronic contribution:     -0.69587       1.67794      -0.13940
Nuclear contribution   :      0.84692      -2.11961      -0.32289
                        -----------------------------------------
Total Dipole Moment    :      0.15105      -0.44167      -0.46229
                        -----------------------------------------
Magnitude (a.u.)       :      0.65697
Magnitude (Debye)      :      1.66988

Rotational constants in cm-1:     4.244258     0.845980     0.801025
Rotational constants in MHz : 127239.659947 25361.846355 24014.123628

                             ****ORCA TERMINATED NORMALLY****
TOTAL RUN TIME: 0 days 0 hours 4 minutes 49 seconds 442 msec
