                         Program Version 4.1.2  - RELEASE  -
|  1> #Run DFT-D3 single point of the dimer
|  2> ! wB97X-D3 def2-TZVP TIGHTSCF CHELPG PMODEL PAL8
|  3>
|  4> %base "9-97_DFT_AB"
|  5>
|  6> %scf
|  7> MaxIter 1000
|  8> end
|  9>
| 10> * xyz 0 1
| 11>   C                      -2.747217            -1.439285            7.215734
| 12>   O                      -3.661565            -2.257749            7.941439
| 13>   H                      -4.087411            -2.914877            7.304557
| 14>   H                      -1.744539            -1.863552            7.165893
| 15>   H                      -3.187766            -1.140830            6.244377
| 16>   H                      -2.642980            -0.476722            7.720025
| 17>   C                      -0.382723            -3.622372            4.039118
| 18>   O                      -0.641191            -3.237219            5.349221
| 19>   H                      0.064387             -2.676951            5.718612
| 20>   H                      -1.053173            -4.408750            3.598997
| 21>   H                      -0.480557            -2.756405            3.381245
| 22>   H                      0.636109             -4.001770            3.918250
| 23> *
| 24>
| 25> #Run DFT-D3 single point of the molecule with dimer basis set
| 26> $new_job
| 27> %base "9-97_DFT_A"
| 28> ! wB97X-D3 def2-TZVP TIGHTSCF CHELPG PMODEL
| 29>
| 30> %scf
| 31> MaxIter 1000
| 32> end
| 33>
| 34> * xyz 0 1
| 35>   C                      -2.747217            -1.439285            7.215734
| 36>   O                      -3.661565            -2.257749            7.941439
| 37>   H                      -4.087411            -2.914877            7.304557
| 38>   H                      -1.744539            -1.863552            7.165893
| 39>   H                      -3.187766            -1.140830            6.244377
| 40>   H                      -2.642980            -0.476722            7.720025
| 41>   C                    : -0.382723            -3.622372            4.039118
| 42>   O                    : -0.641191            -3.237219            5.349221
| 43>   H                    : 0.064387             -2.676951            5.718612
| 44>   H                    : -1.053173            -4.408750            3.598997
| 45>   H                    : -0.480557            -2.756405            3.381245
| 46>   H                    : 0.636109             -4.001770            3.918250
| 47> *
| 48>
| 49> #Run DFT-D3 single point of the particle with dimer basis set
| 50> $new_job
| 51> %base "9-97_DFT_B"
| 52> ! wB97X-D3 def2-TZVP TIGHTSCF CHELPG PMODEL
| 53>
| 54> %scf
| 55> MaxIter 1000
| 56> end
| 57>
| 58> * xyz 0 1
| 59>   C                    : -2.747217            -1.439285            7.215734
| 60>   O                    : -3.661565            -2.257749            7.941439
| 61>   H                    : -4.087411            -2.914877            7.304557
| 62>   H                    : -1.744539            -1.863552            7.165893
| 63>   H                    : -3.187766            -1.140830            6.244377
| 64>   H                    : -2.642980            -0.476722            7.720025
| 65>   C                      -0.382723            -3.622372            4.039118
| 66>   O                      -0.641191            -3.237219            5.349221
| 67>   H                      0.064387             -2.676951            5.718612
| 68>   H                      -1.053173            -4.408750            3.598997
| 69>   H                      -0.480557            -2.756405            3.381245
| 70>   H                      0.636109             -4.001770            3.918250
| 71> *
| 72>
| 73>                          ****END OF INPUT****
 Total Charge           Charge          ....    0
 Multiplicity           Mult            ....    1
 Number of Electrons    NEL             ....   36
Dispersion correction           -0.001463490
FINAL SINGLE POINT ENERGY      -231.465613496705
Dispersion correction           -0.000258130
FINAL SINGLE POINT ENERGY      -115.732352922766

CARTESIAN COORDINATES (ANGSTROEM)
---------------------------------
  C     -2.747217   -1.439285    7.215734
  O     -3.661565   -2.257749    7.941439
  H     -4.087411   -2.914877    7.304557
  H     -1.744539   -1.863552    7.165893
  H     -3.187766   -1.140830    6.244377
  H     -2.642980   -0.476722    7.720025
  C     -0.382723   -3.622372    4.039118
  O     -0.641191   -3.237219    5.349221
  H      0.064387   -2.676951    5.718612
  H     -1.053173   -4.408750    3.598997
  H     -0.480557   -2.756405    3.381245
  H      0.636109   -4.001770    3.918250

 Multiplicity           Mult            ....    1
 Number of Electrons    NEL             ....   18
 Basis Dimension        Dim             ....  172

ORBITAL ENERGIES
----------------

  NO   OCC          E(Eh)            E(eV)
   0   2.0000     -19.231127      -523.3056
   1   2.0000     -10.314300      -280.6664
   2   2.0000      -1.139302       -31.0020
   3   2.0000      -0.794024       -21.6065
   4   2.0000      -0.615788       -16.7565
   5   2.0000      -0.542451       -14.7609
   6   2.0000      -0.532414       -14.4877
   7   2.0000      -0.423471       -11.5232
   8   2.0000      -0.370688       -10.0869
   9   0.0000       0.094849         2.5810
  10   0.0000       0.124618         3.3910
  11   0.0000       0.149861         4.0779
  12   0.0000       0.175368         4.7720
  13   0.0000       0.197435         5.3725

MULLIKEN ATOMIC CHARGES
-----------------------
   0 C :    0.003274
   1 O :   -0.000275
   2 H :   -0.000468
   3 H :   -0.009084
   4 H :   -0.001442
   5 H :   -0.000259
   6 C :   -0.159090
   7 O :   -0.473949
   8 H :    0.324614
   9 H :    0.120420
  10 H :    0.098388
  11 H :    0.097871
Sum of atomic charges:   -0.0000000

LOEWDIN ATOMIC CHARGES
----------------------
   0 C :   -0.010404
   1 O :   -0.000033
   2 H :   -0.000162
   3 H :   -0.009018
   4 H :   -0.001038
   5 H :   -0.000087
   6 C :   -0.408363
   7 O :   -0.053666
   8 H :    0.182621
   9 H :    0.114596
  10 H :    0.092170
  11 H :    0.093383

  Mayer bond orders larger than 0.1
B(  6-C ,  7-O ) :   0.9948 B(  6-C ,  9-H ) :   0.9686 B(  6-C , 10-H ) :   0.9814
B(  6-C , 11-H ) :   0.9772 B(  7-O ,  8-H ) :   0.8855

Dispersion correction           -0.000244372
FINAL SINGLE POINT ENERGY      -115.732939682414

DIPOLE MOMENT
-------------
                                X             Y             Z
Electronic contribution:     -0.48272       0.38689       1.78147
Nuclear contribution   :      1.05424      -0.18966      -2.06758
                        -----------------------------------------
Total Dipole Moment    :      0.57152       0.19723      -0.28611
                        -----------------------------------------
Magnitude (a.u.)       :      0.66887
Magnitude (Debye)      :      1.70014

Rotational constants in cm-1:     4.387667     0.838842     0.809144
Rotational constants in MHz : 131538.942034 25147.857460 24257.533840

                             ****ORCA TERMINATED NORMALLY****
TOTAL RUN TIME: 0 days 0 hours 0 minutes 37 seconds 133 msec
