                         Program Version 4.1.2  - RELEASE  -
|  1> #Run DFT-D3 single point of the dimer
|  2> ! wB97X-D3 def2-TZVP TIGHTSCF CHELPG PMODEL PAL8
|  3>
|  4> %base "15-75_DFT_AB"
|  5>
|  6> %scf
|  7> MaxIter 1000
|  8> end
|  9>
| 10> * xyz 0 1
| 11>   C                      3.160590             5.904719             1.409526
| 12>   O                      1.952229             6.513314             1.905539
| 13>   H                      2.203480             7.011722             2.707374
| 14>   H                      3.131705             5.037513             0.685736
| 15>   H                      3.800379             6.728786             1.090960
| 16>   H                      3.782874             5.542182             2.299754
| 17>   C                      0.512501             8.461024             -0.689806
| 18>   O                      -0.712721            7.890156             -0.211231
| 19>   H                      -0.662369            6.949089             -0.202390
| 20>   H                      0.578281             8.470859             -1.785892
| 21>   H                      0.672981             9.551212             -0.568216
| 22>   H                      1.340160             7.905085             -0.222265
| 23> *
| 24>
| 25> #Run DFT-D3 single point of the molecule with dimer basis set
| 26> $new_job
| 27> %base "15-75_DFT_A"
| 28> ! wB97X-D3 def2-TZVP TIGHTSCF CHELPG PMODEL
| 29>
| 30> %scf
| 31> MaxIter 1000
| 32> end
| 33>
| 34> * xyz 0 1
| 35>   C                      3.160590             5.904719             1.409526
| 36>   O                      1.952229             6.513314             1.905539
| 37>   H                      2.203480             7.011722             2.707374
| 38>   H                      3.131705             5.037513             0.685736
| 39>   H                      3.800379             6.728786             1.090960
| 40>   H                      3.782874             5.542182             2.299754
| 41>   C                    : 0.512501             8.461024             -0.689806
| 42>   O                    : -0.712721            7.890156             -0.211231
| 43>   H                    : -0.662369            6.949089             -0.202390
| 44>   H                    : 0.578281             8.470859             -1.785892
| 45>   H                    : 0.672981             9.551212             -0.568216
| 46>   H                    : 1.340160             7.905085             -0.222265
| 47> *
| 48>
| 49> #Run DFT-D3 single point of the particle with dimer basis set
| 50> $new_job
| 51> %base "15-75_DFT_B"
| 52> ! wB97X-D3 def2-TZVP TIGHTSCF CHELPG PMODEL
| 53>
| 54> %scf
| 55> MaxIter 1000
| 56> end
| 57>
| 58> * xyz 0 1
| 59>   C                    : 3.160590             5.904719             1.409526
| 60>   O                    : 1.952229             6.513314             1.905539
| 61>   H                    : 2.203480             7.011722             2.707374
| 62>   H                    : 3.131705             5.037513             0.685736
| 63>   H                    : 3.800379             6.728786             1.090960
| 64>   H                    : 3.782874             5.542182             2.299754
| 65>   C                      0.512501             8.461024             -0.689806
| 66>   O                      -0.712721            7.890156             -0.211231
| 67>   H                      -0.662369            6.949089             -0.202390
| 68>   H                      0.578281             8.470859             -1.785892
| 69>   H                      0.672981             9.551212             -0.568216
| 70>   H                      1.340160             7.905085             -0.222265
| 71> *
| 72>
| 73>                          ****END OF INPUT****
 Total Charge           Charge          ....    0
 Multiplicity           Mult            ....    1
 Number of Electrons    NEL             ....   36
Dispersion correction           -0.001651648
FINAL SINGLE POINT ENERGY      -231.454519814551
Dispersion correction           -0.000248475
FINAL SINGLE POINT ENERGY      -115.723899619639

CARTESIAN COORDINATES (ANGSTROEM)
---------------------------------
  C      3.160590    5.904719    1.409526
  O      1.952229    6.513314    1.905539
  H      2.203480    7.011722    2.707374
  H      3.131705    5.037513    0.685736
  H      3.800379    6.728786    1.090960
  H      3.782874    5.542182    2.299754
  C      0.512501    8.461024   -0.689806
  O     -0.712721    7.890156   -0.211231
  H     -0.662369    6.949089   -0.202390
  H      0.578281    8.470859   -1.785892
  H      0.672981    9.551212   -0.568216
  H      1.340160    7.905085   -0.222265

 Multiplicity           Mult            ....    1
 Number of Electrons    NEL             ....   18
 Basis Dimension        Dim             ....  172

ORBITAL ENERGIES
----------------

  NO   OCC          E(Eh)            E(eV)
   0   2.0000     -19.228830      -523.2431
   1   2.0000     -10.319078      -280.7964
   2   2.0000      -1.132582       -30.8191
   3   2.0000      -0.799347       -21.7513
   4   2.0000      -0.608399       -16.5554
   5   2.0000      -0.550894       -14.9906
   6   2.0000      -0.520659       -14.1678
   7   2.0000      -0.425212       -11.5706
   8   2.0000      -0.373574       -10.1655
   9   0.0000       0.076406         2.0791
  10   0.0000       0.123501         3.3606
  11   0.0000       0.148576         4.0430
  12   0.0000       0.161036         4.3820
  13   0.0000       0.187214         5.0944

MULLIKEN ATOMIC CHARGES
-----------------------
   0 C :    0.001826
   1 O :   -0.000012
   2 H :   -0.000077
   3 H :   -0.000206
   4 H :   -0.000920
   5 H :   -0.000039
   6 C :   -0.167950
   7 O :   -0.478494
   8 H :    0.315774
   9 H :    0.107901
  10 H :    0.121566
  11 H :    0.100631
Sum of atomic charges:   -0.0000000

LOEWDIN ATOMIC CHARGES
----------------------
   0 C :   -0.003299
   1 O :   -0.003005
   2 H :   -0.000256
   3 H :   -0.000099
   4 H :   -0.000652
   5 H :   -0.000035
   6 C :   -0.375774
   7 O :   -0.083196
   8 H :    0.156662
   9 H :    0.096160
  10 H :    0.112375
  11 H :    0.101117

  Mayer bond orders larger than 0.1
B(  6-C ,  7-O ) :   0.9961 B(  6-C ,  9-H ) :   0.9769 B(  6-C , 10-H ) :   0.9707
B(  6-C , 11-H ) :   0.9839 B(  7-O ,  8-H ) :   0.8999

Dispersion correction           -0.000264612
FINAL SINGLE POINT ENERGY      -115.728175244894

DIPOLE MOMENT
-------------
                                X             Y             Z
Electronic contribution:     -1.64699      -0.62737       0.71063
Nuclear contribution   :      2.18758       0.27215      -0.90921
                        -----------------------------------------
Total Dipole Moment    :      0.54059      -0.35523      -0.19859
                        -----------------------------------------
Magnitude (a.u.)       :      0.67666
Magnitude (Debye)      :      1.71993

Rotational constants in cm-1:     4.455723     0.799862     0.771413
Rotational constants in MHz : 133579.213741 23979.256509 23126.378071

                             ****ORCA TERMINATED NORMALLY****
TOTAL RUN TIME: 0 days 0 hours 1 minutes 1 seconds 187 msec
