                         Program Version 4.1.2  - RELEASE  -
|  1> #Run DFT-D3 single point of the dimer
|  2> ! wB97X-D3 def2-TZVP TIGHTSCF CHELPG PMODEL PAL8
|  3>
|  4> %base "7-33_DFT_AB"
|  5>
|  6> %scf
|  7> MaxIter 1000
|  8> end
|  9>
| 10> * xyz 0 1
| 11>   C                      0.666390             -0.715815            -0.420100
| 12>   O                      1.567490             0.321839             -0.143165
| 13>   H                      1.326093             1.086254             -0.696441
| 14>   H                      -0.316124            -0.427597            -0.014911
| 15>   H                      0.543968             -0.926248            -1.464179
| 16>   H                      1.024687             -1.624058            0.019191
| 17>   C                      4.449318             -1.634681            -0.912909
| 18>   O                      5.565025             -1.350100            -1.745458
| 19>   H                      5.742992             -0.455629            -1.591832
| 20>   H                      3.972005             -2.526487            -1.180131
| 21>   H                      4.843174             -1.774262            0.042984
| 22>   H                      3.736831             -0.756859            -0.867591
| 23> *
| 24>
| 25> #Run DFT-D3 single point of the molecule with dimer basis set
| 26> $new_job
| 27> %base "7-33_DFT_A"
| 28> ! wB97X-D3 def2-TZVP TIGHTSCF CHELPG PMODEL
| 29>
| 30> %scf
| 31> MaxIter 1000
| 32> end
| 33>
| 34> * xyz 0 1
| 35>   C                      0.666390             -0.715815            -0.420100
| 36>   O                      1.567490             0.321839             -0.143165
| 37>   H                      1.326093             1.086254             -0.696441
| 38>   H                      -0.316124            -0.427597            -0.014911
| 39>   H                      0.543968             -0.926248            -1.464179
| 40>   H                      1.024687             -1.624058            0.019191
| 41>   C                    : 4.449318             -1.634681            -0.912909
| 42>   O                    : 5.565025             -1.350100            -1.745458
| 43>   H                    : 5.742992             -0.455629            -1.591832
| 44>   H                    : 3.972005             -2.526487            -1.180131
| 45>   H                    : 4.843174             -1.774262            0.042984
| 46>   H                    : 3.736831             -0.756859            -0.867591
| 47> *
| 48>
| 49> #Run DFT-D3 single point of the particle with dimer basis set
| 50> $new_job
| 51> %base "7-33_DFT_B"
| 52> ! wB97X-D3 def2-TZVP TIGHTSCF CHELPG PMODEL
| 53>
| 54> %scf
| 55> MaxIter 1000
| 56> end
| 57>
| 58> * xyz 0 1
| 59>   C                    : 0.666390             -0.715815            -0.420100
| 60>   O                    : 1.567490             0.321839             -0.143165
| 61>   H                    : 1.326093             1.086254             -0.696441
| 62>   H                    : -0.316124            -0.427597            -0.014911
| 63>   H                    : 0.543968             -0.926248            -1.464179
| 64>   H                    : 1.024687             -1.624058            0.019191
| 65>   C                      4.449318             -1.634681            -0.912909
| 66>   O                      5.565025             -1.350100            -1.745458
| 67>   H                      5.742992             -0.455629            -1.591832
| 68>   H                      3.972005             -2.526487            -1.180131
| 69>   H                      4.843174             -1.774262            0.042984
| 70>   H                      3.736831             -0.756859            -0.867591
| 71> *
| 72>
| 73>                          ****END OF INPUT****
 Total Charge           Charge          ....    0
 Multiplicity           Mult            ....    1
 Number of Electrons    NEL             ....   36
Dispersion correction           -0.001611241
FINAL SINGLE POINT ENERGY      -231.467362793405
Dispersion correction           -0.000225229
FINAL SINGLE POINT ENERGY      -115.735764681265

CARTESIAN COORDINATES (ANGSTROEM)
---------------------------------
  C      0.666390   -0.715815   -0.420100
  O      1.567490    0.321839   -0.143165
  H      1.326093    1.086254   -0.696441
  H     -0.316124   -0.427597   -0.014911
  H      0.543968   -0.926248   -1.464179
  H      1.024687   -1.624058    0.019191
  C      4.449318   -1.634681   -0.912909
  O      5.565025   -1.350100   -1.745458
  H      5.742992   -0.455629   -1.591832
  H      3.972005   -2.526487   -1.180131
  H      4.843174   -1.774262    0.042984
  H      3.736831   -0.756859   -0.867591

 Multiplicity           Mult            ....    1
 Number of Electrons    NEL             ....   18
 Basis Dimension        Dim             ....  172

ORBITAL ENERGIES
----------------

  NO   OCC          E(Eh)            E(eV)
   0   2.0000     -19.224154      -523.1158
   1   2.0000     -10.307295      -280.4758
   2   2.0000      -1.142518       -31.0895
   3   2.0000      -0.802348       -21.8330
   4   2.0000      -0.610531       -16.6134
   5   2.0000      -0.544968       -14.8293
   6   2.0000      -0.535326       -14.5670
   7   2.0000      -0.441111       -12.0032
   8   2.0000      -0.371457       -10.1079
   9   0.0000       0.079843         2.1727
  10   0.0000       0.118858         3.2343
  11   0.0000       0.153005         4.1635
  12   0.0000       0.165289         4.4977
  13   0.0000       0.190539         5.1848

MULLIKEN ATOMIC CHARGES
-----------------------
   0 C :   -0.004066
   1 O :    0.000895
   2 H :   -0.000115
   3 H :   -0.000144
   4 H :    0.000480
   5 H :    0.000434
   6 C :   -0.158884
   7 O :   -0.467366
   8 H :    0.306476
   9 H :    0.119750
  10 H :    0.107075
  11 H :    0.095465
Sum of atomic charges:    0.0000000

LOEWDIN ATOMIC CHARGES
----------------------
   0 C :   -0.005042
   1 O :   -0.005441
   2 H :   -0.000677
   3 H :   -0.000084
   4 H :   -0.000305
   5 H :   -0.000778
   6 C :   -0.362853
   7 O :   -0.065184
   8 H :    0.145911
   9 H :    0.097449
  10 H :    0.087396
  11 H :    0.109608

  Mayer bond orders larger than 0.1
B(  6-C ,  7-O ) :   0.9924 B(  6-C ,  9-H ) :   0.9736 B(  6-C , 10-H ) :   0.9814
B(  6-C , 11-H ) :   0.9876 B(  7-O ,  8-H ) :   0.9119

Dispersion correction           -0.000210443
FINAL SINGLE POINT ENERGY      -115.729291563738

DIPOLE MOMENT
-------------
                                X             Y             Z
Electronic contribution:      1.35132       0.12455      -1.15251
Nuclear contribution   :     -1.67436       0.30941       1.59898
                        -----------------------------------------
Total Dipole Moment    :     -0.32304       0.43396       0.44647
                        -----------------------------------------
Magnitude (a.u.)       :      0.70144
Magnitude (Debye)      :      1.78291

Rotational constants in cm-1:     4.403168     0.843512     0.805690
Rotational constants in MHz : 132003.667431 25287.841979 24153.990499

                             ****ORCA TERMINATED NORMALLY****
TOTAL RUN TIME: 0 days 0 hours 1 minutes 0 seconds 737 msec
