                         Program Version 4.1.2  - RELEASE  -
|  1> #Run DFT-D3 single point of the dimer
|  2> ! wB97X-D3 def2-TZVP TIGHTSCF CHELPG PMODEL PAL8
|  3>
|  4> %base "19-198_DFT_AB"
|  5>
|  6> %scf
|  7> MaxIter 1000
|  8> end
|  9>
| 10> * xyz 0 1
| 11>   C                      -2.961215            -7.884649            -1.258607
| 12>   O                      -3.610688            -7.932195            0.018584
| 13>   H                      -3.502670            -8.828416            0.334848
| 14>   H                      -2.254820            -8.680860            -1.353446
| 15>   H                      -3.686694            -7.831056            -2.107191
| 16>   H                      -2.356575            -6.985893            -1.346645
| 17>   C                      -3.557479            -7.362390            3.519988
| 18>   O                      -2.721320            -8.442508            3.756280
| 19>   H                      -2.822372            -9.065009            3.006001
| 20>   H                      -3.327990            -6.455389            4.137939
| 21>   H                      -3.609330            -6.983526            2.487599
| 22>   H                      -4.582899            -7.558906            3.878854
| 23> *
| 24>
| 25> #Run DFT-D3 single point of the molecule with dimer basis set
| 26> $new_job
| 27> %base "19-198_DFT_A"
| 28> ! wB97X-D3 def2-TZVP TIGHTSCF CHELPG PMODEL
| 29>
| 30> %scf
| 31> MaxIter 1000
| 32> end
| 33>
| 34> * xyz 0 1
| 35>   C                      -2.961215            -7.884649            -1.258607
| 36>   O                      -3.610688            -7.932195            0.018584
| 37>   H                      -3.502670            -8.828416            0.334848
| 38>   H                      -2.254820            -8.680860            -1.353446
| 39>   H                      -3.686694            -7.831056            -2.107191
| 40>   H                      -2.356575            -6.985893            -1.346645
| 41>   C                    : -3.557479            -7.362390            3.519988
| 42>   O                    : -2.721320            -8.442508            3.756280
| 43>   H                    : -2.822372            -9.065009            3.006001
| 44>   H                    : -3.327990            -6.455389            4.137939
| 45>   H                    : -3.609330            -6.983526            2.487599
| 46>   H                    : -4.582899            -7.558906            3.878854
| 47> *
| 48>
| 49> #Run DFT-D3 single point of the particle with dimer basis set
| 50> $new_job
| 51> %base "19-198_DFT_B"
| 52> ! wB97X-D3 def2-TZVP TIGHTSCF CHELPG PMODEL
| 53>
| 54> %scf
| 55> MaxIter 1000
| 56> end
| 57>
| 58> * xyz 0 1
| 59>   C                    : -2.961215            -7.884649            -1.258607
| 60>   O                    : -3.610688            -7.932195            0.018584
| 61>   H                    : -3.502670            -8.828416            0.334848
| 62>   H                    : -2.254820            -8.680860            -1.353446
| 63>   H                    : -3.686694            -7.831056            -2.107191
| 64>   H                    : -2.356575            -6.985893            -1.346645
| 65>   C                      -3.557479            -7.362390            3.519988
| 66>   O                      -2.721320            -8.442508            3.756280
| 67>   H                      -2.822372            -9.065009            3.006001
| 68>   H                      -3.327990            -6.455389            4.137939
| 69>   H                      -3.609330            -6.983526            2.487599
| 70>   H                      -4.582899            -7.558906            3.878854
| 71> *
| 72>
| 73>                          ****END OF INPUT****
 Total Charge           Charge          ....    0
 Multiplicity           Mult            ....    1
 Number of Electrons    NEL             ....   36
Dispersion correction           -0.001547277
FINAL SINGLE POINT ENERGY      -231.467015074024
Dispersion correction           -0.000253099
FINAL SINGLE POINT ENERGY      -115.734137790346

CARTESIAN COORDINATES (ANGSTROEM)
---------------------------------
  C     -2.961215   -7.884649   -1.258607
  O     -3.610688   -7.932195    0.018584
  H     -3.502670   -8.828416    0.334848
  H     -2.254820   -8.680860   -1.353446
  H     -3.686694   -7.831056   -2.107191
  H     -2.356575   -6.985893   -1.346645
  C     -3.557479   -7.362390    3.519988
  O     -2.721320   -8.442508    3.756280
  H     -2.822372   -9.065009    3.006001
  H     -3.327990   -6.455389    4.137939
  H     -3.609330   -6.983526    2.487599
  H     -4.582899   -7.558906    3.878854

 Multiplicity           Mult            ....    1
 Number of Electrons    NEL             ....   18
 Basis Dimension        Dim             ....  172

ORBITAL ENERGIES
----------------

  NO   OCC          E(Eh)            E(eV)
   0   2.0000     -19.236745      -523.4584
   1   2.0000     -10.314756      -280.6788
   2   2.0000      -1.143762       -31.1233
   3   2.0000      -0.791725       -21.5439
   4   2.0000      -0.615717       -16.7545
   5   2.0000      -0.541489       -14.7347
   6   2.0000      -0.529022       -14.3954
   7   2.0000      -0.429386       -11.6842
   8   2.0000      -0.371886       -10.1195
   9   0.0000       0.073846         2.0094
  10   0.0000       0.117985         3.2105
  11   0.0000       0.146400         3.9837
  12   0.0000       0.180556         4.9132
  13   0.0000       0.185249         5.0409

MULLIKEN ATOMIC CHARGES
-----------------------
   0 C :    0.000057
   1 O :    0.000555
   2 H :   -0.000588
   3 H :   -0.000022
   4 H :    0.000004
   5 H :   -0.000064
   6 C :   -0.171717
   7 O :   -0.463403
   8 H :    0.321549
   9 H :    0.114503
  10 H :    0.101826
  11 H :    0.097301
Sum of atomic charges:   -0.0000000

LOEWDIN ATOMIC CHARGES
----------------------
   0 C :   -0.000356
   1 O :   -0.003855
   2 H :   -0.001549
   3 H :   -0.000008
   4 H :   -0.000007
   5 H :   -0.000038
   6 C :   -0.423469
   7 O :   -0.059754
   8 H :    0.186314
   9 H :    0.112124
  10 H :    0.096140
  11 H :    0.094458

  Mayer bond orders larger than 0.1
B(  6-C ,  7-O ) :   1.0112 B(  6-C ,  9-H ) :   0.9726 B(  6-C , 10-H ) :   0.9722
B(  6-C , 11-H ) :   0.9796 B(  7-O ,  8-H ) :   0.8935

Dispersion correction           -0.000255659
FINAL SINGLE POINT ENERGY      -115.732298257900

DIPOLE MOMENT
-------------
                                X             Y             Z
Electronic contribution:      1.28785      -1.49672       0.34739
Nuclear contribution   :     -1.65294       1.51323      -0.90785
                        -----------------------------------------
Total Dipole Moment    :     -0.36509       0.01651      -0.56046
                        -----------------------------------------
Magnitude (a.u.)       :      0.66909
Magnitude (Debye)      :      1.70069

Rotational constants in cm-1:     4.355676     0.840539     0.808754
Rotational constants in MHz : 130579.869235 25198.728197 24245.844543

                             ****ORCA TERMINATED NORMALLY****
TOTAL RUN TIME: 0 days 0 hours 1 minutes 36 seconds 791 msec
