                         Program Version 4.1.2  - RELEASE  -
|  1> #Run DFT-D3 single point of the dimer
|  2> ! wB97X-D3 def2-TZVP TIGHTSCF CHELPG PMODEL PAL8
|  3>
|  4> %base "2-87_DFT_AB"
|  5>
|  6> %scf
|  7> MaxIter 1000
|  8> end
|  9>
| 10> * xyz 0 1
| 11>   C                      5.076919             -10.100200           -4.491884
| 12>   O                      4.875564             -8.751591            -4.271763
| 13>   H                      5.776038             -8.429535            -4.025102
| 14>   H                      4.079127             -10.597135           -4.605720
| 15>   H                      5.674618             -10.291725           -5.409982
| 16>   H                      5.579315             -10.598143           -3.609433
| 17>   C                      5.872603             -7.265969            -7.790391
| 18>   O                      7.028637             -7.927635            -7.277919
| 19>   H                      7.342080             -8.513924            -7.926451
| 20>   H                      6.144789             -6.755487            -8.739153
| 21>   H                      5.013410             -7.961198            -7.953895
| 22>   H                      5.525942             -6.520121            -7.110344
| 23> *
| 24>
| 25> #Run DFT-D3 single point of the molecule with dimer basis set
| 26> $new_job
| 27> %base "2-87_DFT_A"
| 28> ! wB97X-D3 def2-TZVP TIGHTSCF CHELPG PMODEL
| 29>
| 30> %scf
| 31> MaxIter 1000
| 32> end
| 33>
| 34> * xyz 0 1
| 35>   C                      5.076919             -10.100200           -4.491884
| 36>   O                      4.875564             -8.751591            -4.271763
| 37>   H                      5.776038             -8.429535            -4.025102
| 38>   H                      4.079127             -10.597135           -4.605720
| 39>   H                      5.674618             -10.291725           -5.409982
| 40>   H                      5.579315             -10.598143           -3.609433
| 41>   C                    : 5.872603             -7.265969            -7.790391
| 42>   O                    : 7.028637             -7.927635            -7.277919
| 43>   H                    : 7.342080             -8.513924            -7.926451
| 44>   H                    : 6.144789             -6.755487            -8.739153
| 45>   H                    : 5.013410             -7.961198            -7.953895
| 46>   H                    : 5.525942             -6.520121            -7.110344
| 47> *
| 48>
| 49> #Run DFT-D3 single point of the particle with dimer basis set
| 50> $new_job
| 51> %base "2-87_DFT_B"
| 52> ! wB97X-D3 def2-TZVP TIGHTSCF CHELPG PMODEL
| 53>
| 54> %scf
| 55> MaxIter 1000
| 56> end
| 57>
| 58> * xyz 0 1
| 59>   C                    : 5.076919             -10.100200           -4.491884
| 60>   O                    : 4.875564             -8.751591            -4.271763
| 61>   H                    : 5.776038             -8.429535            -4.025102
| 62>   H                    : 4.079127             -10.597135           -4.605720
| 63>   H                    : 5.674618             -10.291725           -5.409982
| 64>   H                    : 5.579315             -10.598143           -3.609433
| 65>   C                      5.872603             -7.265969            -7.790391
| 66>   O                      7.028637             -7.927635            -7.277919
| 67>   H                      7.342080             -8.513924            -7.926451
| 68>   H                      6.144789             -6.755487            -8.739153
| 69>   H                      5.013410             -7.961198            -7.953895
| 70>   H                      5.525942             -6.520121            -7.110344
| 71> *
| 72>
| 73>                          ****END OF INPUT****
 Total Charge           Charge          ....    0
 Multiplicity           Mult            ....    1
 Number of Electrons    NEL             ....   36
Dispersion correction           -0.001537412
FINAL SINGLE POINT ENERGY      -231.471910746103
Dispersion correction           -0.000225950
FINAL SINGLE POINT ENERGY      -115.734037119931

CARTESIAN COORDINATES (ANGSTROEM)
---------------------------------
  C      5.076919  -10.100200   -4.491884
  O      4.875564   -8.751591   -4.271763
  H      5.776038   -8.429535   -4.025102
  H      4.079127  -10.597135   -4.605720
  H      5.674618  -10.291725   -5.409982
  H      5.579315  -10.598143   -3.609433
  C      5.872603   -7.265969   -7.790391
  O      7.028637   -7.927635   -7.277919
  H      7.342080   -8.513924   -7.926451
  H      6.144789   -6.755487   -8.739153
  H      5.013410   -7.961198   -7.953895
  H      5.525942   -6.520121   -7.110344

 Multiplicity           Mult            ....    1
 Number of Electrons    NEL             ....   18
 Basis Dimension        Dim             ....  172

ORBITAL ENERGIES
----------------

  NO   OCC          E(Eh)            E(eV)
   0   2.0000     -19.227439      -523.2052
   1   2.0000     -10.316367      -280.7226
   2   2.0000      -1.138591       -30.9826
   3   2.0000      -0.798841       -21.7376
   4   2.0000      -0.609167       -16.5763
   5   2.0000      -0.540859       -14.7175
   6   2.0000      -0.531150       -14.4533
   7   2.0000      -0.434187       -11.8148
   8   2.0000      -0.375185       -10.2093
   9   0.0000       0.091166         2.4807
  10   0.0000       0.125511         3.4153
  11   0.0000       0.151952         4.1348
  12   0.0000       0.170840         4.6488
  13   0.0000       0.194444         5.2911

MULLIKEN ATOMIC CHARGES
-----------------------
   0 C :    0.004003
   1 O :   -0.000275
   2 H :   -0.000987
   3 H :   -0.000144
   4 H :   -0.006531
   5 H :   -0.000108
   6 C :   -0.168910
   7 O :   -0.471096
   8 H :    0.308613
   9 H :    0.106112
  10 H :    0.102346
  11 H :    0.126976
Sum of atomic charges:    0.0000000

LOEWDIN ATOMIC CHARGES
----------------------
   0 C :   -0.001521
   1 O :   -0.000258
   2 H :   -0.000768
   3 H :   -0.000015
   4 H :   -0.002693
   5 H :   -0.000006
   6 C :   -0.373958
   7 O :   -0.069058
   8 H :    0.146707
   9 H :    0.099950
  10 H :    0.098979
  11 H :    0.102642

  Mayer bond orders larger than 0.1
B(  6-C ,  7-O ) :   0.9880 B(  6-C ,  9-H ) :   0.9791 B(  6-C , 10-H ) :   0.9735
B(  6-C , 11-H ) :   0.9734 B(  7-O ,  8-H ) :   0.9072

Dispersion correction           -0.000244434
FINAL SINGLE POINT ENERGY      -115.735302074128

DIPOLE MOMENT
-------------
                                X             Y             Z
Electronic contribution:      1.45337      -0.75633       0.80119
Nuclear contribution   :     -1.71841       0.67193      -1.42226
                        -----------------------------------------
Total Dipole Moment    :     -0.26504      -0.08440      -0.62107
                        -----------------------------------------
Magnitude (a.u.)       :      0.68051
Magnitude (Debye)      :      1.72973

Rotational constants in cm-1:     4.322810     0.814692     0.794103
Rotational constants in MHz : 129594.572986 24423.839069 23806.620668

                             ****ORCA TERMINATED NORMALLY****
TOTAL RUN TIME: 0 days 0 hours 6 minutes 1 seconds 573 msec
