                         Program Version 4.1.2  - RELEASE  -
|  1> #Run DFT-D3 single point of the dimer
|  2> ! wB97X-D3 def2-TZVP TIGHTSCF CHELPG PMODEL PAL8
|  3>
|  4> %base "16-152_DFT_AB"
|  5>
|  6> %scf
|  7> MaxIter 1000
|  8> end
|  9>
| 10> * xyz 0 1
| 11>   C                      7.037910             4.350233             -1.068662
| 12>   O                      6.882477             4.502705             -2.446670
| 13>   H                      6.461372             5.312291             -2.639708
| 14>   H                      7.903114             4.916284             -0.669387
| 15>   H                      6.190942             4.757205             -0.526538
| 16>   H                      7.196447             3.356597             -0.698366
| 17>   C                      8.626979             3.603865             -5.592887
| 18>   O                      8.590657             3.069182             -4.253442
| 19>   H                      7.842469             3.461212             -3.814782
| 20>   H                      9.557913             3.305639             -6.140538
| 21>   H                      7.752535             3.206954             -6.147592
| 22>   H                      8.691890             4.666179             -5.581276
| 23> *
| 24>
| 25> #Run DFT-D3 single point of the molecule with dimer basis set
| 26> $new_job
| 27> %base "16-152_DFT_A"
| 28> ! wB97X-D3 def2-TZVP TIGHTSCF CHELPG PMODEL
| 29>
| 30> %scf
| 31> MaxIter 1000
| 32> end
| 33>
| 34> * xyz 0 1
| 35>   C                      7.037910             4.350233             -1.068662
| 36>   O                      6.882477             4.502705             -2.446670
| 37>   H                      6.461372             5.312291             -2.639708
| 38>   H                      7.903114             4.916284             -0.669387
| 39>   H                      6.190942             4.757205             -0.526538
| 40>   H                      7.196447             3.356597             -0.698366
| 41>   C                    : 8.626979             3.603865             -5.592887
| 42>   O                    : 8.590657             3.069182             -4.253442
| 43>   H                    : 7.842469             3.461212             -3.814782
| 44>   H                    : 9.557913             3.305639             -6.140538
| 45>   H                    : 7.752535             3.206954             -6.147592
| 46>   H                    : 8.691890             4.666179             -5.581276
| 47> *
| 48>
| 49> #Run DFT-D3 single point of the particle with dimer basis set
| 50> $new_job
| 51> %base "16-152_DFT_B"
| 52> ! wB97X-D3 def2-TZVP TIGHTSCF CHELPG PMODEL
| 53>
| 54> %scf
| 55> MaxIter 1000
| 56> end
| 57>
| 58> * xyz 0 1
| 59>   C                    : 7.037910             4.350233             -1.068662
| 60>   O                    : 6.882477             4.502705             -2.446670
| 61>   H                    : 6.461372             5.312291             -2.639708
| 62>   H                    : 7.903114             4.916284             -0.669387
| 63>   H                    : 6.190942             4.757205             -0.526538
| 64>   H                    : 7.196447             3.356597             -0.698366
| 65>   C                      8.626979             3.603865             -5.592887
| 66>   O                      8.590657             3.069182             -4.253442
| 67>   H                      7.842469             3.461212             -3.814782
| 68>   H                      9.557913             3.305639             -6.140538
| 69>   H                      7.752535             3.206954             -6.147592
| 70>   H                      8.691890             4.666179             -5.581276
| 71> *
| 72>
| 73>                          ****END OF INPUT****
 Total Charge           Charge          ....    0
 Multiplicity           Mult            ....    1
 Number of Electrons    NEL             ....   36
Dispersion correction           -0.001553982
FINAL SINGLE POINT ENERGY      -231.473794086344
Dispersion correction           -0.000242541
FINAL SINGLE POINT ENERGY      -115.732909404864

CARTESIAN COORDINATES (ANGSTROEM)
---------------------------------
  C      7.037910    4.350233   -1.068662
  O      6.882477    4.502705   -2.446670
  H      6.461372    5.312291   -2.639708
  H      7.903114    4.916284   -0.669387
  H      6.190942    4.757205   -0.526538
  H      7.196447    3.356597   -0.698366
  C      8.626979    3.603865   -5.592887
  O      8.590657    3.069182   -4.253442
  H      7.842469    3.461212   -3.814782
  H      9.557913    3.305639   -6.140538
  H      7.752535    3.206954   -6.147592
  H      8.691890    4.666179   -5.581276

 Multiplicity           Mult            ....    1
 Number of Electrons    NEL             ....   18
 Basis Dimension        Dim             ....  172

ORBITAL ENERGIES
----------------

  NO   OCC          E(Eh)            E(eV)
   0   2.0000     -19.228823      -523.2429
   1   2.0000     -10.317333      -280.7489
   2   2.0000      -1.129485       -30.7349
   3   2.0000      -0.796290       -21.6681
   4   2.0000      -0.602908       -16.4060
   5   2.0000      -0.548746       -14.9321
   6   2.0000      -0.521757       -14.1977
   7   2.0000      -0.430457       -11.7133
   8   2.0000      -0.376675       -10.2499
   9   0.0000       0.073900         2.0109
  10   0.0000       0.127504         3.4695
  11   0.0000       0.152914         4.1610
  12   0.0000       0.167103         4.5471
  13   0.0000       0.198837         5.4106

MULLIKEN ATOMIC CHARGES
-----------------------
   0 C :   -0.002832
   1 O :   -0.003092
   2 H :   -0.000098
   3 H :    0.000165
   4 H :    0.000011
   5 H :    0.000118
   6 C :   -0.177579
   7 O :   -0.475704
   8 H :    0.312838
   9 H :    0.121116
  10 H :    0.111146
  11 H :    0.113911
Sum of atomic charges:   -0.0000000

LOEWDIN ATOMIC CHARGES
----------------------
   0 C :   -0.003303
   1 O :   -0.019095
   2 H :   -0.001228
   3 H :   -0.000123
   4 H :   -0.000073
   5 H :   -0.000160
   6 C :   -0.365267
   7 O :   -0.085363
   8 H :    0.169147
   9 H :    0.114801
  10 H :    0.100974
  11 H :    0.089689

  Mayer bond orders larger than 0.1
B(  6-C ,  7-O ) :   0.9876 B(  6-C ,  9-H ) :   0.9712 B(  6-C , 10-H ) :   0.9817
B(  6-C , 11-H ) :   0.9722 B(  7-O ,  8-H ) :   0.9043

Dispersion correction           -0.000245318
FINAL SINGLE POINT ENERGY      -115.733948279315

DIPOLE MOMENT
-------------
                                X             Y             Z
Electronic contribution:      0.04442      -0.69957       1.64989
Nuclear contribution   :     -0.47573       1.18195      -1.93650
                        -----------------------------------------
Total Dipole Moment    :     -0.43131       0.48238      -0.28661
                        -----------------------------------------
Magnitude (a.u.)       :      0.70772
Magnitude (Debye)      :      1.79888

Rotational constants in cm-1:     4.275339     0.801554     0.780475
Rotational constants in MHz : 128171.451365 24029.972411 23398.064315

                             ****ORCA TERMINATED NORMALLY****
TOTAL RUN TIME: 0 days 0 hours 0 minutes 57 seconds 535 msec
