                         Program Version 4.1.2  - RELEASE  -
|  1> #Run DFT-D3 single point of the dimer
|  2> ! wB97X-D3 def2-TZVP TIGHTSCF CHELPG PMODEL PAL8
|  3>
|  4> %base "18-29_DFT_AB"
|  5>
|  6> %scf
|  7> MaxIter 1000
|  8> end
|  9>
| 10> * xyz 0 1
| 11>   C                      5.188788             2.614549             -0.430988
| 12>   O                      4.272714             3.629414             -0.212891
| 13>   H                      4.735754             4.461235             -0.188900
| 14>   H                      5.899015             2.492255             0.391204
| 15>   H                      4.718363             1.670627             -0.695147
| 16>   H                      5.822392             2.953750             -1.309417
| 17>   C                      4.100286             2.419518             4.578838
| 18>   O                      4.571700             3.775638             4.629194
| 19>   H                      3.838929             4.233463             4.255375
| 20>   H                      3.081155             2.408276             4.861014
| 21>   H                      4.080533             1.920868             3.605897
| 22>   H                      4.727841             1.750703             5.215968
| 23> *
| 24>
| 25> #Run DFT-D3 single point of the molecule with dimer basis set
| 26> $new_job
| 27> %base "18-29_DFT_A"
| 28> ! wB97X-D3 def2-TZVP TIGHTSCF CHELPG PMODEL
| 29>
| 30> %scf
| 31> MaxIter 1000
| 32> end
| 33>
| 34> * xyz 0 1
| 35>   C                      5.188788             2.614549             -0.430988
| 36>   O                      4.272714             3.629414             -0.212891
| 37>   H                      4.735754             4.461235             -0.188900
| 38>   H                      5.899015             2.492255             0.391204
| 39>   H                      4.718363             1.670627             -0.695147
| 40>   H                      5.822392             2.953750             -1.309417
| 41>   C                    : 4.100286             2.419518             4.578838
| 42>   O                    : 4.571700             3.775638             4.629194
| 43>   H                    : 3.838929             4.233463             4.255375
| 44>   H                    : 3.081155             2.408276             4.861014
| 45>   H                    : 4.080533             1.920868             3.605897
| 46>   H                    : 4.727841             1.750703             5.215968
| 47> *
| 48>
| 49> #Run DFT-D3 single point of the particle with dimer basis set
| 50> $new_job
| 51> %base "18-29_DFT_B"
| 52> ! wB97X-D3 def2-TZVP TIGHTSCF CHELPG PMODEL
| 53>
| 54> %scf
| 55> MaxIter 1000
| 56> end
| 57>
| 58> * xyz 0 1
| 59>   C                    : 5.188788             2.614549             -0.430988
| 60>   O                    : 4.272714             3.629414             -0.212891
| 61>   H                    : 4.735754             4.461235             -0.188900
| 62>   H                    : 5.899015             2.492255             0.391204
| 63>   H                    : 4.718363             1.670627             -0.695147
| 64>   H                    : 5.822392             2.953750             -1.309417
| 65>   C                      4.100286             2.419518             4.578838
| 66>   O                      4.571700             3.775638             4.629194
| 67>   H                      3.838929             4.233463             4.255375
| 68>   H                      3.081155             2.408276             4.861014
| 69>   H                      4.080533             1.920868             3.605897
| 70>   H                      4.727841             1.750703             5.215968
| 71> *
| 72>
| 73>                          ****END OF INPUT****
 Total Charge           Charge          ....    0
 Multiplicity           Mult            ....    1
 Number of Electrons    NEL             ....   36
Dispersion correction           -0.000824366
FINAL SINGLE POINT ENERGY      -231.464950272518
Dispersion correction           -0.000220553
FINAL SINGLE POINT ENERGY      -115.733285336812

CARTESIAN COORDINATES (ANGSTROEM)
---------------------------------
  C      5.188788    2.614549   -0.430988
  O      4.272714    3.629414   -0.212891
  H      4.735754    4.461235   -0.188900
  H      5.899015    2.492255    0.391204
  H      4.718363    1.670627   -0.695147
  H      5.822392    2.953750   -1.309417
  C      4.100286    2.419518    4.578838
  O      4.571700    3.775638    4.629194
  H      3.838929    4.233463    4.255375
  H      3.081155    2.408276    4.861014
  H      4.080533    1.920868    3.605897
  H      4.727841    1.750703    5.215968

 Multiplicity           Mult            ....    1
 Number of Electrons    NEL             ....   18
 Basis Dimension        Dim             ....  172

ORBITAL ENERGIES
----------------

  NO   OCC          E(Eh)            E(eV)
   0   2.0000     -19.232741      -523.3495
   1   2.0000     -10.314323      -280.6670
   2   2.0000      -1.139541       -31.0085
   3   2.0000      -0.797740       -21.7076
   4   2.0000      -0.614347       -16.7172
   5   2.0000      -0.539327       -14.6758
   6   2.0000      -0.519915       -14.1476
   7   2.0000      -0.448644       -12.2082
   8   2.0000      -0.375061       -10.2059
   9   0.0000       0.082891         2.2556
  10   0.0000       0.117976         3.2103
  11   0.0000       0.148667         4.0454
  12   0.0000       0.169854         4.6220
  13   0.0000       0.184663         5.0249

MULLIKEN ATOMIC CHARGES
-----------------------
   0 C :    0.000067
   1 O :   -0.000034
   2 H :   -0.000037
   3 H :    0.000076
   4 H :   -0.000048
   5 H :    0.000003
   6 C :   -0.180501
   7 O :   -0.458838
   8 H :    0.309307
   9 H :    0.109235
  10 H :    0.102574
  11 H :    0.118196
Sum of atomic charges:    0.0000000

LOEWDIN ATOMIC CHARGES
----------------------
   0 C :   -0.000198
   1 O :   -0.000016
   2 H :   -0.000027
   3 H :   -0.000060
   4 H :   -0.000017
   5 H :   -0.000002
   6 C :   -0.373611
   7 O :   -0.079549
   8 H :    0.158631
   9 H :    0.088587
  10 H :    0.093533
  11 H :    0.112727

  Mayer bond orders larger than 0.1
B(  6-C ,  7-O ) :   1.0017 B(  6-C ,  9-H ) :   0.9868 B(  6-C , 10-H ) :   0.9636
B(  6-C , 11-H ) :   0.9768 B(  7-O ,  8-H ) :   0.9084

Dispersion correction           -0.000238390
FINAL SINGLE POINT ENERGY      -115.730509494461

DIPOLE MOMENT
-------------
                                X             Y             Z
Electronic contribution:      0.76798       1.75651       0.15194
Nuclear contribution   :     -1.43120      -2.01035      -0.40307
                        -----------------------------------------
Total Dipole Moment    :     -0.66322      -0.25384      -0.25113
                        -----------------------------------------
Magnitude (a.u.)       :      0.75323
Magnitude (Debye)      :      1.91457

Rotational constants in cm-1:     4.391122     0.818513     0.777913
Rotational constants in MHz : 131642.512252 24538.400446 23321.246199

                             ****ORCA TERMINATED NORMALLY****
TOTAL RUN TIME: 0 days 0 hours 1 minutes 2 seconds 42 msec
