                         Program Version 4.1.2  - RELEASE  -
|  1> #Run DFT-D3 single point of the dimer
|  2> ! wB97X-D3 def2-TZVP TIGHTSCF CHELPG PMODEL PAL8
|  3>
|  4> %base "21-90_DFT_AB"
|  5>
|  6> %scf
|  7> MaxIter 1000
|  8> end
|  9>
| 10> * xyz 0 1
| 11>   C                      -0.279772            8.880130             -5.984317
| 12>   O                      0.783245             8.630714             -6.886738
| 13>   H                      0.274807             8.473379             -7.649880
| 14>   H                      -0.903684            9.718744             -6.263217
| 15>   H                      -0.970593            8.024726             -5.917269
| 16>   H                      0.085905             9.093486             -4.943612
| 17>   C                      -3.398559            9.277242             -8.201790
| 18>   O                      -4.032347            8.859870             -6.981155
| 19>   H                      -4.233224            9.611003             -6.382598
| 20>   H                      -2.373946            9.338020             -8.026771
| 21>   H                      -3.484931            8.505441             -8.993622
| 22>   H                      -3.785504            10.262232            -8.579061
| 23> *
| 24>
| 25> #Run DFT-D3 single point of the molecule with dimer basis set
| 26> $new_job
| 27> %base "21-90_DFT_A"
| 28> ! wB97X-D3 def2-TZVP TIGHTSCF CHELPG PMODEL
| 29>
| 30> %scf
| 31> MaxIter 1000
| 32> end
| 33>
| 34> * xyz 0 1
| 35>   C                      -0.279772            8.880130             -5.984317
| 36>   O                      0.783245             8.630714             -6.886738
| 37>   H                      0.274807             8.473379             -7.649880
| 38>   H                      -0.903684            9.718744             -6.263217
| 39>   H                      -0.970593            8.024726             -5.917269
| 40>   H                      0.085905             9.093486             -4.943612
| 41>   C                    : -3.398559            9.277242             -8.201790
| 42>   O                    : -4.032347            8.859870             -6.981155
| 43>   H                    : -4.233224            9.611003             -6.382598
| 44>   H                    : -2.373946            9.338020             -8.026771
| 45>   H                    : -3.484931            8.505441             -8.993622
| 46>   H                    : -3.785504            10.262232            -8.579061
| 47> *
| 48>
| 49> #Run DFT-D3 single point of the particle with dimer basis set
| 50> $new_job
| 51> %base "21-90_DFT_B"
| 52> ! wB97X-D3 def2-TZVP TIGHTSCF CHELPG PMODEL
| 53>
| 54> %scf
| 55> MaxIter 1000
| 56> end
| 57>
| 58> * xyz 0 1
| 59>   C                    : -0.279772            8.880130             -5.984317
| 60>   O                    : 0.783245             8.630714             -6.886738
| 61>   H                    : 0.274807             8.473379             -7.649880
| 62>   H                    : -0.903684            9.718744             -6.263217
| 63>   H                    : -0.970593            8.024726             -5.917269
| 64>   H                    : 0.085905             9.093486             -4.943612
| 65>   C                      -3.398559            9.277242             -8.201790
| 66>   O                      -4.032347            8.859870             -6.981155
| 67>   H                      -4.233224            9.611003             -6.382598
| 68>   H                      -2.373946            9.338020             -8.026771
| 69>   H                      -3.484931            8.505441             -8.993622
| 70>   H                      -3.785504            10.262232            -8.579061
| 71> *
| 72>
| 73>                          ****END OF INPUT****
 Total Charge           Charge          ....    0
 Multiplicity           Mult            ....    1
 Number of Electrons    NEL             ....   36
Dispersion correction           -0.001846762
FINAL SINGLE POINT ENERGY      -231.464475982776
Dispersion correction           -0.000223180
FINAL SINGLE POINT ENERGY      -115.731941616042

CARTESIAN COORDINATES (ANGSTROEM)
---------------------------------
  C     -0.279772    8.880130   -5.984317
  O      0.783245    8.630714   -6.886738
  H      0.274807    8.473379   -7.649880
  H     -0.903684    9.718744   -6.263217
  H     -0.970593    8.024726   -5.917269
  H      0.085905    9.093486   -4.943612
  C     -3.398559    9.277242   -8.201790
  O     -4.032347    8.859870   -6.981155
  H     -4.233224    9.611003   -6.382598
  H     -2.373946    9.338020   -8.026771
  H     -3.484931    8.505441   -8.993622
  H     -3.785504   10.262232   -8.579061

 Multiplicity           Mult            ....    1
 Number of Electrons    NEL             ....   18
 Basis Dimension        Dim             ....  172

ORBITAL ENERGIES
----------------

  NO   OCC          E(Eh)            E(eV)
   0   2.0000     -19.229215      -523.2535
   1   2.0000     -10.314705      -280.6774
   2   2.0000      -1.121651       -30.5217
   3   2.0000      -0.798080       -21.7169
   4   2.0000      -0.602699       -16.4003
   5   2.0000      -0.541723       -14.7410
   6   2.0000      -0.525950       -14.3118
   7   2.0000      -0.427772       -11.6403
   8   2.0000      -0.372231       -10.1289
   9   0.0000       0.086953         2.3661
  10   0.0000       0.120544         3.2802
  11   0.0000       0.148928         4.0525
  12   0.0000       0.175541         4.7767
  13   0.0000       0.195275         5.3137

MULLIKEN ATOMIC CHARGES
-----------------------
   0 C :    0.004098
   1 O :   -0.000462
   2 H :    0.000028
   3 H :   -0.000601
   4 H :   -0.002159
   5 H :    0.000081
   6 C :   -0.158109
   7 O :   -0.494270
   8 H :    0.319893
   9 H :    0.106485
  10 H :    0.120908
  11 H :    0.104108
Sum of atomic charges:   -0.0000000

LOEWDIN ATOMIC CHARGES
----------------------
   0 C :   -0.005600
   1 O :   -0.000120
   2 H :   -0.001116
   3 H :   -0.003267
   4 H :   -0.001607
   5 H :   -0.000016
   6 C :   -0.361594
   7 O :   -0.104781
   8 H :    0.178432
   9 H :    0.085968
  10 H :    0.111779
  11 H :    0.101922

  Mayer bond orders larger than 0.1
B(  6-C ,  7-O ) :   0.9966 B(  6-C ,  9-H ) :   0.9760 B(  6-C , 10-H ) :   0.9756
B(  6-C , 11-H ) :   0.9819 B(  7-O ,  8-H ) :   0.8916

Dispersion correction           -0.000262126
FINAL SINGLE POINT ENERGY      -115.731430276366

DIPOLE MOMENT
-------------
                                X             Y             Z
Electronic contribution:     -0.79936      -0.62420       1.47501
Nuclear contribution   :      0.95062       1.27710      -1.60185
                        -----------------------------------------
Total Dipole Moment    :      0.15126       0.65290      -0.12684
                        -----------------------------------------
Magnitude (a.u.)       :      0.68209
Magnitude (Debye)      :      1.73374

Rotational constants in cm-1:     4.345271     0.806172     0.770901
Rotational constants in MHz : 130267.952611 24168.432914 23111.031536

                             ****ORCA TERMINATED NORMALLY****
TOTAL RUN TIME: 0 days 0 hours 1 minutes 4 seconds 507 msec
