                         Program Version 4.1.2  - RELEASE  -
|  1> #Run DFT-D3 single point of the dimer
|  2> ! wB97X-D3 def2-TZVP TIGHTSCF CHELPG PMODEL PAL8
|  3>
|  4> %base "11-148_DFT_AB"
|  5>
|  6> %scf
|  7> MaxIter 1000
|  8> end
|  9>
| 10> * xyz 0 1
| 11>   C                      -6.805916            -6.748151            -5.901701
| 12>   O                      -5.681329            -7.510598            -6.026313
| 13>   H                      -5.736484            -8.379775            -5.658797
| 14>   H                      -7.200829            -6.626899            -4.873511
| 15>   H                      -6.523811            -5.749640            -6.282327
| 16>   H                      -7.607116            -7.095424            -6.519180
| 17>   C                      -4.979729            -10.194261           -4.440011
| 18>   O                      -5.876140            -9.334104            -3.722812
| 19>   H                      -6.502014            -9.896957            -3.232383
| 20>   H                      -5.545413            -10.929987           -4.978695
| 21>   H                      -4.345334            -9.696676            -5.161990
| 22>   H                      -4.367641            -10.707767           -3.673316
| 23> *
| 24>
| 25> #Run DFT-D3 single point of the molecule with dimer basis set
| 26> $new_job
| 27> %base "11-148_DFT_A"
| 28> ! wB97X-D3 def2-TZVP TIGHTSCF CHELPG PMODEL
| 29>
| 30> %scf
| 31> MaxIter 1000
| 32> end
| 33>
| 34> * xyz 0 1
| 35>   C                      -6.805916            -6.748151            -5.901701
| 36>   O                      -5.681329            -7.510598            -6.026313
| 37>   H                      -5.736484            -8.379775            -5.658797
| 38>   H                      -7.200829            -6.626899            -4.873511
| 39>   H                      -6.523811            -5.749640            -6.282327
| 40>   H                      -7.607116            -7.095424            -6.519180
| 41>   C                    : -4.979729            -10.194261           -4.440011
| 42>   O                    : -5.876140            -9.334104            -3.722812
| 43>   H                    : -6.502014            -9.896957            -3.232383
| 44>   H                    : -5.545413            -10.929987           -4.978695
| 45>   H                    : -4.345334            -9.696676            -5.161990
| 46>   H                    : -4.367641            -10.707767           -3.673316
| 47> *
| 48>
| 49> #Run DFT-D3 single point of the particle with dimer basis set
| 50> $new_job
| 51> %base "11-148_DFT_B"
| 52> ! wB97X-D3 def2-TZVP TIGHTSCF CHELPG PMODEL
| 53>
| 54> %scf
| 55> MaxIter 1000
| 56> end
| 57>
| 58> * xyz 0 1
| 59>   C                    : -6.805916            -6.748151            -5.901701
| 60>   O                    : -5.681329            -7.510598            -6.026313
| 61>   H                    : -5.736484            -8.379775            -5.658797
| 62>   H                    : -7.200829            -6.626899            -4.873511
| 63>   H                    : -6.523811            -5.749640            -6.282327
| 64>   H                    : -7.607116            -7.095424            -6.519180
| 65>   C                      -4.979729            -10.194261           -4.440011
| 66>   O                      -5.876140            -9.334104            -3.722812
| 67>   H                      -6.502014            -9.896957            -3.232383
| 68>   H                      -5.545413            -10.929987           -4.978695
| 69>   H                      -4.345334            -9.696676            -5.161990
| 70>   H                      -4.367641            -10.707767           -3.673316
| 71> *
| 72>
| 73>                          ****END OF INPUT****
 Total Charge           Charge          ....    0
 Multiplicity           Mult            ....    1
 Number of Electrons    NEL             ....   36
Dispersion correction           -0.001872552
FINAL SINGLE POINT ENERGY      -231.470524933693
Dispersion correction           -0.000243027
FINAL SINGLE POINT ENERGY      -115.734765962050

CARTESIAN COORDINATES (ANGSTROEM)
---------------------------------
  C     -6.805916   -6.748151   -5.901701
  O     -5.681329   -7.510598   -6.026313
  H     -5.736484   -8.379775   -5.658797
  H     -7.200829   -6.626899   -4.873511
  H     -6.523811   -5.749640   -6.282327
  H     -7.607116   -7.095424   -6.519180
  C     -4.979729  -10.194261   -4.440011
  O     -5.876140   -9.334104   -3.722812
  H     -6.502014   -9.896957   -3.232383
  H     -5.545413  -10.929987   -4.978695
  H     -4.345334   -9.696676   -5.161990
  H     -4.367641  -10.707767   -3.673316

 Multiplicity           Mult            ....    1
 Number of Electrons    NEL             ....   18
 Basis Dimension        Dim             ....  172

ORBITAL ENERGIES
----------------

  NO   OCC          E(Eh)            E(eV)
   0   2.0000     -19.229145      -523.2516
   1   2.0000     -10.313184      -280.6360
   2   2.0000      -1.126693       -30.6589
   3   2.0000      -0.796150       -21.6643
   4   2.0000      -0.603228       -16.4147
   5   2.0000      -0.542914       -14.7734
   6   2.0000      -0.530888       -14.4462
   7   2.0000      -0.432339       -11.7645
   8   2.0000      -0.371168       -10.1000
   9   0.0000       0.097088         2.6419
  10   0.0000       0.123852         3.3702
  11   0.0000       0.149739         4.0746
  12   0.0000       0.189902         5.1675
  13   0.0000       0.199067         5.4169

MULLIKEN ATOMIC CHARGES
-----------------------
   0 C :   -0.002725
   1 O :    0.000031
   2 H :    0.007425
   3 H :   -0.002510
   4 H :   -0.000296
   5 H :   -0.000132
   6 C :   -0.183295
   7 O :   -0.480822
   8 H :    0.315133
   9 H :    0.108742
  10 H :    0.126329
  11 H :    0.112122
Sum of atomic charges:   -0.0000000

LOEWDIN ATOMIC CHARGES
----------------------
   0 C :   -0.005904
   1 O :   -0.004756
   2 H :   -0.023780
   3 H :   -0.001964
   4 H :   -0.000091
   5 H :   -0.000125
   6 C :   -0.358469
   7 O :   -0.083965
   8 H :    0.175880
   9 H :    0.092186
  10 H :    0.110307
  11 H :    0.100679

  Mayer bond orders larger than 0.1
B(  6-C ,  7-O ) :   0.9849 B(  6-C ,  9-H ) :   0.9812 B(  6-C , 10-H ) :   0.9725
B(  6-C , 11-H ) :   0.9798 B(  7-O ,  8-H ) :   0.8955

Dispersion correction           -0.000231046
FINAL SINGLE POINT ENERGY      -115.733652435822

DIPOLE MOMENT
-------------
                                X             Y             Z
Electronic contribution:     -1.00569       1.26018       0.75093
Nuclear contribution   :      0.98331      -1.97778      -0.75360
                        -----------------------------------------
Total Dipole Moment    :     -0.02238      -0.71759      -0.00268
                        -----------------------------------------
Magnitude (a.u.)       :      0.71795
Magnitude (Debye)      :      1.82488

Rotational constants in cm-1:     4.298953     0.814093     0.786586
Rotational constants in MHz : 128879.368425 24405.880171 23581.264595

                             ****ORCA TERMINATED NORMALLY****
TOTAL RUN TIME: 0 days 0 hours 1 minutes 12 seconds 451 msec
