                         Program Version 4.1.2  - RELEASE  -
|  1> #Run DFT-D3 single point of the dimer
|  2> ! wB97X-D3 def2-TZVP TIGHTSCF CHELPG PMODEL PAL8
|  3>
|  4> %base "1-41_DFT_AB"
|  5>
|  6> %scf
|  7> MaxIter 1000
|  8> end
|  9>
| 10> * xyz 0 1
| 11>   C                      -2.553089            -9.341690            7.829840
| 12>   O                      -3.202982            -9.262673            6.528423
| 13>   H                      -3.995979            -9.807772            6.501171
| 14>   H                      -1.675079            -8.720392            7.907150
| 15>   H                      -3.152298            -8.937749            8.646217
| 16>   H                      -2.217675            -10.345372           8.116701
| 17>   C                      -4.439394            -5.866600            5.348677
| 18>   O                      -4.186637            -7.062473            6.134142
| 19>   H                      -3.738023            -6.884358            6.968323
| 20>   H                      -4.397404            -6.036696            4.230191
| 21>   H                      -5.435929            -5.555591            5.585817
| 22>   H                      -3.862727            -4.997880            5.734016
| 23> *
| 24>
| 25> #Run DFT-D3 single point of the molecule with dimer basis set
| 26> $new_job
| 27> %base "1-41_DFT_A"
| 28> ! wB97X-D3 def2-TZVP TIGHTSCF CHELPG PMODEL
| 29>
| 30> %scf
| 31> MaxIter 1000
| 32> end
| 33>
| 34> * xyz 0 1
| 35>   C                      -2.553089            -9.341690            7.829840
| 36>   O                      -3.202982            -9.262673            6.528423
| 37>   H                      -3.995979            -9.807772            6.501171
| 38>   H                      -1.675079            -8.720392            7.907150
| 39>   H                      -3.152298            -8.937749            8.646217
| 40>   H                      -2.217675            -10.345372           8.116701
| 41>   C                    : -4.439394            -5.866600            5.348677
| 42>   O                    : -4.186637            -7.062473            6.134142
| 43>   H                    : -3.738023            -6.884358            6.968323
| 44>   H                    : -4.397404            -6.036696            4.230191
| 45>   H                    : -5.435929            -5.555591            5.585817
| 46>   H                    : -3.862727            -4.997880            5.734016
| 47> *
| 48>
| 49> #Run DFT-D3 single point of the particle with dimer basis set
| 50> $new_job
| 51> %base "1-41_DFT_B"
| 52> ! wB97X-D3 def2-TZVP TIGHTSCF CHELPG PMODEL
| 53>
| 54> %scf
| 55> MaxIter 1000
| 56> end
| 57>
| 58> * xyz 0 1
| 59>   C                    : -2.553089            -9.341690            7.829840
| 60>   O                    : -3.202982            -9.262673            6.528423
| 61>   H                    : -3.995979            -9.807772            6.501171
| 62>   H                    : -1.675079            -8.720392            7.907150
| 63>   H                    : -3.152298            -8.937749            8.646217
| 64>   H                    : -2.217675            -10.345372           8.116701
| 65>   C                      -4.439394            -5.866600            5.348677
| 66>   O                      -4.186637            -7.062473            6.134142
| 67>   H                      -3.738023            -6.884358            6.968323
| 68>   H                      -4.397404            -6.036696            4.230191
| 69>   H                      -5.435929            -5.555591            5.585817
| 70>   H                      -3.862727            -4.997880            5.734016
| 71> *
| 72>
| 73>                          ****END OF INPUT****
 Total Charge           Charge          ....    0
 Multiplicity           Mult            ....    1
 Number of Electrons    NEL             ....   36
Dispersion correction           -0.001813869
FINAL SINGLE POINT ENERGY      -231.449559879417
Dispersion correction           -0.000288248
FINAL SINGLE POINT ENERGY      -115.732744340504

CARTESIAN COORDINATES (ANGSTROEM)
---------------------------------
  C     -2.553089   -9.341690    7.829840
  O     -3.202982   -9.262673    6.528423
  H     -3.995979   -9.807772    6.501171
  H     -1.675079   -8.720392    7.907150
  H     -3.152298   -8.937749    8.646217
  H     -2.217675  -10.345372    8.116701
  C     -4.439394   -5.866600    5.348677
  O     -4.186637   -7.062473    6.134142
  H     -3.738023   -6.884358    6.968323
  H     -4.397404   -6.036696    4.230191
  H     -5.435929   -5.555591    5.585817
  H     -3.862727   -4.997880    5.734016

 Multiplicity           Mult            ....    1
 Number of Electrons    NEL             ....   18
 Basis Dimension        Dim             ....  172

ORBITAL ENERGIES
----------------

  NO   OCC          E(Eh)            E(eV)
   0   2.0000     -19.227792      -523.2148
   1   2.0000     -10.321394      -280.8594
   2   2.0000      -1.120496       -30.4903
   3   2.0000      -0.797392       -21.6981
   4   2.0000      -0.606023       -16.4907
   5   2.0000      -0.532096       -14.4791
   6   2.0000      -0.524558       -14.2740
   7   2.0000      -0.431477       -11.7411
   8   2.0000      -0.369870       -10.0647
   9   0.0000       0.083383         2.2690
  10   0.0000       0.127432         3.4676
  11   0.0000       0.153508         4.1772
  12   0.0000       0.172845         4.7034
  13   0.0000       0.198642         5.4053

MULLIKEN ATOMIC CHARGES
-----------------------
   0 C :   -0.006757
   1 O :    0.006396
   2 H :   -0.004189
   3 H :   -0.000043
   4 H :   -0.000173
   5 H :   -0.000364
   6 C :   -0.174041
   7 O :   -0.488393
   8 H :    0.319320
   9 H :    0.127561
  10 H :    0.112420
  11 H :    0.108263
Sum of atomic charges:   -0.0000000

LOEWDIN ATOMIC CHARGES
----------------------
   0 C :   -0.008703
   1 O :   -0.031897
   2 H :   -0.005587
   3 H :   -0.000681
   4 H :   -0.000728
   5 H :   -0.000161
   6 C :   -0.359110
   7 O :   -0.075716
   8 H :    0.171504
   9 H :    0.115756
  10 H :    0.093204
  11 H :    0.102119

  Mayer bond orders larger than 0.1
B(  6-C ,  7-O ) :   0.9901 B(  6-C ,  9-H ) :   0.9686 B(  6-C , 10-H ) :   0.9793
B(  6-C , 11-H ) :   0.9786 B(  7-O ,  8-H ) :   0.8919

Dispersion correction           -0.000270482
FINAL SINGLE POINT ENERGY      -115.728405446700

DIPOLE MOMENT
-------------
                                X             Y             Z
Electronic contribution:      0.36159      -1.56702       0.76531
Nuclear contribution   :     -0.20659       2.22528      -0.54497
                        -----------------------------------------
Total Dipole Moment    :      0.15500       0.65827       0.22034
                        -----------------------------------------
Magnitude (a.u.)       :      0.71126
Magnitude (Debye)      :      1.80788

Rotational constants in cm-1:     4.288638     0.793687     0.754078
Rotational constants in MHz : 128570.147414 23794.126078 22606.683182

                             ****ORCA TERMINATED NORMALLY****
TOTAL RUN TIME: 0 days 0 hours 6 minutes 16 seconds 137 msec
