                         Program Version 4.1.2  - RELEASE  -
|  1> #Run DFT-D3 single point of the dimer
|  2> ! wB97X-D3 def2-TZVP TIGHTSCF CHELPG PMODEL PAL8
|  3>
|  4> %base "21-111_DFT_AB"
|  5>
|  6> %scf
|  7> MaxIter 1000
|  8> end
|  9>
| 10> * xyz 0 1
| 11>   C                      11.122431            -6.628041            -1.890317
| 12>   O                      9.905243             -7.179315            -1.501402
| 13>   H                      10.068682            -7.746275            -0.749948
| 14>   H                      10.926274            -6.025471            -2.797524
| 15>   H                      11.515017            -5.906287            -1.184463
| 16>   H                      11.829085            -7.345357            -2.185761
| 17>   C                      6.521235             -10.473203           -2.558362
| 18>   O                      7.817867             -9.902281            -2.639423
| 19>   H                      7.723384             -8.939568            -2.723572
| 20>   H                      6.424041             -11.449859           -2.075751
| 21>   H                      5.769644             -9.834148            -2.145071
| 22>   H                      6.081220             -10.595940           -3.545507
| 23> *
| 24>
| 25> #Run DFT-D3 single point of the molecule with dimer basis set
| 26> $new_job
| 27> %base "21-111_DFT_A"
| 28> ! wB97X-D3 def2-TZVP TIGHTSCF CHELPG PMODEL
| 29>
| 30> %scf
| 31> MaxIter 1000
| 32> end
| 33>
| 34> * xyz 0 1
| 35>   C                      11.122431            -6.628041            -1.890317
| 36>   O                      9.905243             -7.179315            -1.501402
| 37>   H                      10.068682            -7.746275            -0.749948
| 38>   H                      10.926274            -6.025471            -2.797524
| 39>   H                      11.515017            -5.906287            -1.184463
| 40>   H                      11.829085            -7.345357            -2.185761
| 41>   C                    : 6.521235             -10.473203           -2.558362
| 42>   O                    : 7.817867             -9.902281            -2.639423
| 43>   H                    : 7.723384             -8.939568            -2.723572
| 44>   H                    : 6.424041             -11.449859           -2.075751
| 45>   H                    : 5.769644             -9.834148            -2.145071
| 46>   H                    : 6.081220             -10.595940           -3.545507
| 47> *
| 48>
| 49> #Run DFT-D3 single point of the particle with dimer basis set
| 50> $new_job
| 51> %base "21-111_DFT_B"
| 52> ! wB97X-D3 def2-TZVP TIGHTSCF CHELPG PMODEL
| 53>
| 54> %scf
| 55> MaxIter 1000
| 56> end
| 57>
| 58> * xyz 0 1
| 59>   C                    : 11.122431            -6.628041            -1.890317
| 60>   O                    : 9.905243             -7.179315            -1.501402
| 61>   H                    : 10.068682            -7.746275            -0.749948
| 62>   H                    : 10.926274            -6.025471            -2.797524
| 63>   H                    : 11.515017            -5.906287            -1.184463
| 64>   H                    : 11.829085            -7.345357            -2.185761
| 65>   C                      6.521235             -10.473203           -2.558362
| 66>   O                      7.817867             -9.902281            -2.639423
| 67>   H                      7.723384             -8.939568            -2.723572
| 68>   H                      6.424041             -11.449859           -2.075751
| 69>   H                      5.769644             -9.834148            -2.145071
| 70>   H                      6.081220             -10.595940           -3.545507
| 71> *
| 72>
| 73>                          ****END OF INPUT****
 Total Charge           Charge          ....    0
 Multiplicity           Mult            ....    1
 Number of Electrons    NEL             ....   36
Dispersion correction           -0.001032862
FINAL SINGLE POINT ENERGY      -231.468019808501
Dispersion correction           -0.000228908
FINAL SINGLE POINT ENERGY      -115.734886569215

CARTESIAN COORDINATES (ANGSTROEM)
---------------------------------
  C     11.122431   -6.628041   -1.890317
  O      9.905243   -7.179315   -1.501402
  H     10.068682   -7.746275   -0.749948
  H     10.926274   -6.025471   -2.797524
  H     11.515017   -5.906287   -1.184463
  H     11.829085   -7.345357   -2.185761
  C      6.521235  -10.473203   -2.558362
  O      7.817867   -9.902281   -2.639423
  H      7.723384   -8.939568   -2.723572
  H      6.424041  -11.449859   -2.075751
  H      5.769644   -9.834148   -2.145071
  H      6.081220  -10.595940   -3.545507

 Multiplicity           Mult            ....    1
 Number of Electrons    NEL             ....   18
 Basis Dimension        Dim             ....  172

ORBITAL ENERGIES
----------------

  NO   OCC          E(Eh)            E(eV)
   0   2.0000     -19.234423      -523.3953
   1   2.0000     -10.310414      -280.5606
   2   2.0000      -1.133601       -30.8468
   3   2.0000      -0.800870       -21.7928
   4   2.0000      -0.616801       -16.7840
   5   2.0000      -0.534562       -14.5462
   6   2.0000      -0.526860       -14.3366
   7   2.0000      -0.438762       -11.9393
   8   2.0000      -0.370975       -10.0947
   9   0.0000       0.083363         2.2684
  10   0.0000       0.117641         3.2012
  11   0.0000       0.146603         3.9893
  12   0.0000       0.177835         4.8391
  13   0.0000       0.198216         5.3937

MULLIKEN ATOMIC CHARGES
-----------------------
   0 C :   -0.000000
   1 O :   -0.000478
   2 H :   -0.001147
   3 H :    0.000006
   4 H :    0.000001
   5 H :   -0.000035
   6 C :   -0.179613
   7 O :   -0.471663
   8 H :    0.319816
   9 H :    0.124223
  10 H :    0.109194
  11 H :    0.099696
Sum of atomic charges:    0.0000000

LOEWDIN ATOMIC CHARGES
----------------------
   0 C :   -0.000107
   1 O :   -0.001036
   2 H :   -0.000972
   3 H :   -0.000005
   4 H :   -0.000002
   5 H :   -0.000007
   6 C :   -0.388243
   7 O :   -0.081668
   8 H :    0.178086
   9 H :    0.108368
  10 H :    0.091416
  11 H :    0.094170

  Mayer bond orders larger than 0.1
B(  6-C ,  7-O ) :   1.0049 B(  6-C ,  9-H ) :   0.9720 B(  6-C , 10-H ) :   0.9793
B(  6-C , 11-H ) :   0.9781 B(  7-O ,  8-H ) :   0.8941

Dispersion correction           -0.000254324
FINAL SINGLE POINT ENERGY      -115.730220660570

DIPOLE MOMENT
-------------
                                X             Y             Z
Electronic contribution:      1.88535       0.58135       0.03788
Nuclear contribution   :     -2.49102      -0.18582      -0.05891
                        -----------------------------------------
Total Dipole Moment    :     -0.60567       0.39554      -0.02103
                        -----------------------------------------
Magnitude (a.u.)       :      0.72369
Magnitude (Debye)      :      1.83947

Rotational constants in cm-1:     4.552681     0.816914     0.780066
Rotational constants in MHz : 136485.934078 24490.467875 23385.794841

                             ****ORCA TERMINATED NORMALLY****
TOTAL RUN TIME: 0 days 0 hours 0 minutes 55 seconds 387 msec
