                         Program Version 4.1.2  - RELEASE  -
|  1> #Run DFT-D3 single point of the dimer
|  2> ! wB97X-D3 def2-TZVP TIGHTSCF CHELPG PMODEL PAL8
|  3>
|  4> %base "4-8_DFT_AB"
|  5>
|  6> %scf
|  7> MaxIter 1000
|  8> end
|  9>
| 10> * xyz 0 1
| 11>   C                      9.510002             3.753170             -5.325528
| 12>   O                      9.876401             4.225670             -4.068210
| 13>   H                      10.364098            5.018810             -4.265636
| 14>   H                      8.978419             2.857762             -5.197583
| 15>   H                      8.779346             4.325251             -5.874902
| 16>   H                      10.363160            3.582555             -6.031037
| 17>   C                      5.319843             0.594491             -4.975979
| 18>   O                      6.404372             1.551814             -5.177278
| 19>   H                      6.082201             2.384677             -4.757944
| 20>   H                      5.256007             0.201112             -3.910968
| 21>   H                      4.395750             1.121554             -5.168776
| 22>   H                      5.517838             -0.312185            -5.654065
| 23> *
| 24>
| 25> #Run DFT-D3 single point of the molecule with dimer basis set
| 26> $new_job
| 27> %base "4-8_DFT_A"
| 28> ! wB97X-D3 def2-TZVP TIGHTSCF CHELPG PMODEL
| 29>
| 30> %scf
| 31> MaxIter 1000
| 32> end
| 33>
| 34> * xyz 0 1
| 35>   C                      9.510002             3.753170             -5.325528
| 36>   O                      9.876401             4.225670             -4.068210
| 37>   H                      10.364098            5.018810             -4.265636
| 38>   H                      8.978419             2.857762             -5.197583
| 39>   H                      8.779346             4.325251             -5.874902
| 40>   H                      10.363160            3.582555             -6.031037
| 41>   C                    : 5.319843             0.594491             -4.975979
| 42>   O                    : 6.404372             1.551814             -5.177278
| 43>   H                    : 6.082201             2.384677             -4.757944
| 44>   H                    : 5.256007             0.201112             -3.910968
| 45>   H                    : 4.395750             1.121554             -5.168776
| 46>   H                    : 5.517838             -0.312185            -5.654065
| 47> *
| 48>
| 49> #Run DFT-D3 single point of the particle with dimer basis set
| 50> $new_job
| 51> %base "4-8_DFT_B"
| 52> ! wB97X-D3 def2-TZVP TIGHTSCF CHELPG PMODEL
| 53>
| 54> %scf
| 55> MaxIter 1000
| 56> end
| 57>
| 58> * xyz 0 1
| 59>   C                    : 9.510002             3.753170             -5.325528
| 60>   O                    : 9.876401             4.225670             -4.068210
| 61>   H                    : 10.364098            5.018810             -4.265636
| 62>   H                    : 8.978419             2.857762             -5.197583
| 63>   H                    : 8.779346             4.325251             -5.874902
| 64>   H                    : 10.363160            3.582555             -6.031037
| 65>   C                      5.319843             0.594491             -4.975979
| 66>   O                      6.404372             1.551814             -5.177278
| 67>   H                      6.082201             2.384677             -4.757944
| 68>   H                      5.256007             0.201112             -3.910968
| 69>   H                      4.395750             1.121554             -5.168776
| 70>   H                      5.517838             -0.312185            -5.654065
| 71> *
| 72>
| 73>                          ****END OF INPUT****
 Total Charge           Charge          ....    0
 Multiplicity           Mult            ....    1
 Number of Electrons    NEL             ....   36
Dispersion correction           -0.001162125
FINAL SINGLE POINT ENERGY      -231.464099487785
Dispersion correction           -0.000233802
FINAL SINGLE POINT ENERGY      -115.732136104183

CARTESIAN COORDINATES (ANGSTROEM)
---------------------------------
  C      9.510002    3.753170   -5.325528
  O      9.876401    4.225670   -4.068210
  H     10.364098    5.018810   -4.265636
  H      8.978419    2.857762   -5.197583
  H      8.779346    4.325251   -5.874902
  H     10.363160    3.582555   -6.031037
  C      5.319843    0.594491   -4.975979
  O      6.404372    1.551814   -5.177278
  H      6.082201    2.384677   -4.757944
  H      5.256007    0.201112   -3.910968
  H      4.395750    1.121554   -5.168776
  H      5.517838   -0.312185   -5.654065

 Multiplicity           Mult            ....    1
 Number of Electrons    NEL             ....   18
 Basis Dimension        Dim             ....  172

ORBITAL ENERGIES
----------------

  NO   OCC          E(Eh)            E(eV)
   0   2.0000     -19.233797      -523.3782
   1   2.0000     -10.326539      -280.9994
   2   2.0000      -1.120392       -30.4874
   3   2.0000      -0.786564       -21.4035
   4   2.0000      -0.601224       -16.3601
   5   2.0000      -0.534122       -14.5342
   6   2.0000      -0.514034       -13.9876
   7   2.0000      -0.440896       -11.9974
   8   2.0000      -0.372722       -10.1423
   9   0.0000       0.090886         2.4731
  10   0.0000       0.115115         3.1324
  11   0.0000       0.147992         4.0271
  12   0.0000       0.181261         4.9324
  13   0.0000       0.190403         5.1811

MULLIKEN ATOMIC CHARGES
-----------------------
   0 C :    0.002181
   1 O :    0.000082
   2 H :    0.000009
   3 H :   -0.007160
   4 H :   -0.000585
   5 H :   -0.000169
   6 C :   -0.181173
   7 O :   -0.468043
   8 H :    0.314143
   9 H :    0.102421
  10 H :    0.111281
  11 H :    0.127014
Sum of atomic charges:    0.0000000

LOEWDIN ATOMIC CHARGES
----------------------
   0 C :   -0.002089
   1 O :   -0.000023
   2 H :   -0.000002
   3 H :   -0.005045
   4 H :   -0.000239
   5 H :   -0.000009
   6 C :   -0.366660
   7 O :   -0.120035
   8 H :    0.181252
   9 H :    0.100323
  10 H :    0.092576
  11 H :    0.119950

  Mayer bond orders larger than 0.1
B(  6-C ,  7-O ) :   0.9924 B(  6-C ,  9-H ) :   0.9648 B(  6-C , 10-H ) :   0.9782
B(  6-C , 11-H ) :   0.9722 B(  7-O ,  8-H ) :   0.8974

Dispersion correction           -0.000259122
FINAL SINGLE POINT ENERGY      -115.730405234450

DIPOLE MOMENT
-------------
                                X             Y             Z
Electronic contribution:      1.38665       1.07784      -0.38195
Nuclear contribution   :     -2.04674      -0.95297       0.71353
                        -----------------------------------------
Total Dipole Moment    :     -0.66009       0.12487       0.33158
                        -----------------------------------------
Magnitude (a.u.)       :      0.74917
Magnitude (Debye)      :      1.90423

Rotational constants in cm-1:     3.998335     0.794517     0.756373
Rotational constants in MHz : 119867.068437 23819.033386 22675.495803

                             ****ORCA TERMINATED NORMALLY****
TOTAL RUN TIME: 0 days 0 hours 1 minutes 33 seconds 646 msec
