                         Program Version 4.1.2  - RELEASE  -
|  1> #Run DFT-D3 single point of the dimer
|  2> ! wB97X-D3 def2-TZVP TIGHTSCF CHELPG PMODEL PAL8
|  3>
|  4> %base "13-89_DFT_AB"
|  5>
|  6> %scf
|  7> MaxIter 1000
|  8> end
|  9>
| 10> * xyz 0 1
| 11>   C                      -2.473489            2.754382             -3.587635
| 12>   O                      -2.443331            4.137999             -3.468418
| 13>   H                      -2.406738            4.647574             -4.288539
| 14>   H                      -1.822514            2.438176             -4.417710
| 15>   H                      -2.095098            2.370439             -2.644488
| 16>   H                      -3.458589            2.327411             -3.868728
| 17>   C                      -0.695942            -1.118168            -4.644641
| 18>   O                      -0.689851            0.124149             -5.212528
| 19>   H                      -0.049258            0.673570             -4.677234
| 20>   H                      -0.102550            -1.842898            -5.168804
| 21>   H                      -0.440777            -1.019185            -3.624721
| 22>   H                      -1.700991            -1.589887            -4.669325
| 23> *
| 24>
| 25> #Run DFT-D3 single point of the molecule with dimer basis set
| 26> $new_job
| 27> %base "13-89_DFT_A"
| 28> ! wB97X-D3 def2-TZVP TIGHTSCF CHELPG PMODEL
| 29>
| 30> %scf
| 31> MaxIter 1000
| 32> end
| 33>
| 34> * xyz 0 1
| 35>   C                      -2.473489            2.754382             -3.587635
| 36>   O                      -2.443331            4.137999             -3.468418
| 37>   H                      -2.406738            4.647574             -4.288539
| 38>   H                      -1.822514            2.438176             -4.417710
| 39>   H                      -2.095098            2.370439             -2.644488
| 40>   H                      -3.458589            2.327411             -3.868728
| 41>   C                    : -0.695942            -1.118168            -4.644641
| 42>   O                    : -0.689851            0.124149             -5.212528
| 43>   H                    : -0.049258            0.673570             -4.677234
| 44>   H                    : -0.102550            -1.842898            -5.168804
| 45>   H                    : -0.440777            -1.019185            -3.624721
| 46>   H                    : -1.700991            -1.589887            -4.669325
| 47> *
| 48>
| 49> #Run DFT-D3 single point of the particle with dimer basis set
| 50> $new_job
| 51> %base "13-89_DFT_B"
| 52> ! wB97X-D3 def2-TZVP TIGHTSCF CHELPG PMODEL
| 53>
| 54> %scf
| 55> MaxIter 1000
| 56> end
| 57>
| 58> * xyz 0 1
| 59>   C                    : -2.473489            2.754382             -3.587635
| 60>   O                    : -2.443331            4.137999             -3.468418
| 61>   H                    : -2.406738            4.647574             -4.288539
| 62>   H                    : -1.822514            2.438176             -4.417710
| 63>   H                    : -2.095098            2.370439             -2.644488
| 64>   H                    : -3.458589            2.327411             -3.868728
| 65>   C                      -0.695942            -1.118168            -4.644641
| 66>   O                      -0.689851            0.124149             -5.212528
| 67>   H                      -0.049258            0.673570             -4.677234
| 68>   H                      -0.102550            -1.842898            -5.168804
| 69>   H                      -0.440777            -1.019185            -3.624721
| 70>   H                      -1.700991            -1.589887            -4.669325
| 71> *
| 72>
| 73>                          ****END OF INPUT****
 Total Charge           Charge          ....    0
 Multiplicity           Mult            ....    1
 Number of Electrons    NEL             ....   36
Dispersion correction           -0.001471472
FINAL SINGLE POINT ENERGY      -231.464208584897
Dispersion correction           -0.000251151
FINAL SINGLE POINT ENERGY      -115.733454027285

CARTESIAN COORDINATES (ANGSTROEM)
---------------------------------
  C     -2.473489    2.754382   -3.587635
  O     -2.443331    4.137999   -3.468418
  H     -2.406738    4.647574   -4.288539
  H     -1.822514    2.438176   -4.417710
  H     -2.095098    2.370439   -2.644488
  H     -3.458589    2.327411   -3.868728
  C     -0.695942   -1.118168   -4.644641
  O     -0.689851    0.124149   -5.212528
  H     -0.049258    0.673570   -4.677234
  H     -0.102550   -1.842898   -5.168804
  H     -0.440777   -1.019185   -3.624721
  H     -1.700991   -1.589887   -4.669325

 Multiplicity           Mult            ....    1
 Number of Electrons    NEL             ....   18
 Basis Dimension        Dim             ....  172

ORBITAL ENERGIES
----------------

  NO   OCC          E(Eh)            E(eV)
   0   2.0000     -19.234293      -523.3917
   1   2.0000     -10.303545      -280.3737
   2   2.0000      -1.147375       -31.2217
   3   2.0000      -0.792306       -21.5597
   4   2.0000      -0.618262       -16.8238
   5   2.0000      -0.553807       -15.0699
   6   2.0000      -0.533047       -14.5049
   7   2.0000      -0.428346       -11.6559
   8   2.0000      -0.370162       -10.0726
   9   0.0000       0.084458         2.2982
  10   0.0000       0.119672         3.2564
  11   0.0000       0.153502         4.1770
  12   0.0000       0.172587         4.6963
  13   0.0000       0.189711         5.1623

MULLIKEN ATOMIC CHARGES
-----------------------
   0 C :   -0.001206
   1 O :   -0.000115
   2 H :   -0.000036
   3 H :   -0.007103
   4 H :    0.000107
   5 H :   -0.000823
   6 C :   -0.158206
   7 O :   -0.458235
   8 H :    0.323671
   9 H :    0.096553
  10 H :    0.100655
  11 H :    0.104739
Sum of atomic charges:    0.0000000

LOEWDIN ATOMIC CHARGES
----------------------
   0 C :   -0.006598
   1 O :   -0.000045
   2 H :   -0.000006
   3 H :   -0.008225
   4 H :   -0.000373
   5 H :   -0.000300
   6 C :   -0.424962
   7 O :   -0.046637
   8 H :    0.200296
   9 H :    0.090515
  10 H :    0.089061
  11 H :    0.107276

  Mayer bond orders larger than 0.1
B(  6-C ,  7-O ) :   1.0138 B(  6-C ,  9-H ) :   0.9721 B(  6-C , 10-H ) :   0.9948
B(  6-C , 11-H ) :   0.9779 B(  7-O ,  8-H ) :   0.8898

Dispersion correction           -0.000222022
FINAL SINGLE POINT ENERGY      -115.729427904027

DIPOLE MOMENT
-------------
                                X             Y             Z
Electronic contribution:      0.00992       1.62983      -0.85940
Nuclear contribution   :      0.39042      -1.74956       1.41929
                        -----------------------------------------
Total Dipole Moment    :      0.40034      -0.11973       0.55989
                        -----------------------------------------
Magnitude (a.u.)       :      0.69863
Magnitude (Debye)      :      1.77578

Rotational constants in cm-1:     4.365142     0.881627     0.843496
Rotational constants in MHz : 130863.672544 26430.520499 25287.372563

                             ****ORCA TERMINATED NORMALLY****
TOTAL RUN TIME: 0 days 0 hours 1 minutes 7 seconds 643 msec
