                         Program Version 4.1.2  - RELEASE  -
|  1> #Run DFT geometry optimization
|  2> ! wB97X-D3 def2-TZVP TIGHTSCF Grid5 FinalGrid6 Opt CHELPG PAL4
|  3>
|  4> %base "7_geo_opt"
|  5> %geom MaxIter 500
|  6> end
|  7>
|  8> %geom
|  9>   Constraints
| 10>     { A 5 0 4 C }
| 11>   end
| 12> end
| 13>
| 14>
| 15> * xyz 0 1
| 16>   C                    3.011308             -1.180897            0.598492
| 17>   O                    4.394673             -1.128050            0.874308
| 18>   H                    4.772196             -0.379022            0.412493
| 19>   H                    2.806434             -1.318965            -0.469350
| 20>   H                    2.610441             -2.039120            1.136840
| 21>   H                    2.483717             -0.285566            0.946851
| 22> *
| 23>
| 24>                          ****END OF INPUT****
 Total Charge           Charge          ....    0
 Multiplicity           Mult            ....    1
 Number of Electrons    NEL             ....   18
Dispersion correction           -0.000239494
FINAL SINGLE POINT ENERGY      -115.738050412236
Dispersion correction            ... done
                    ***********************HURRAY********************

CARTESIAN COORDINATES (ANGSTROEM)
---------------------------------
  C      3.011412   -1.180937    0.598442
  O      4.394621   -1.128059    0.874305
  H      4.772090   -0.378972    0.412571
  H      2.806339   -1.319001   -0.469299
  H      2.610440   -2.039150    1.136814
  H      2.483867   -0.285501    0.946802

 Multiplicity           Mult            ....    1
 Number of Electrons    NEL             ....   18
 Basis Dimension        Dim             ....   86

ORBITAL ENERGIES
----------------

  NO   OCC          E(Eh)            E(eV)
   0   2.0000     -19.228121      -523.2238
   1   2.0000     -10.315104      -280.6883
   2   2.0000      -1.136859       -30.9355
   3   2.0000      -0.795365       -21.6430
   4   2.0000      -0.611592       -16.6423
   5   2.0000      -0.541833       -14.7440
   6   2.0000      -0.526347       -14.3226
   7   2.0000      -0.433721       -11.8022
   8   2.0000      -0.373653       -10.1676
   9   0.0000       0.116669         3.1747
  10   0.0000       0.156627         4.2620
  11   0.0000       0.202609         5.5133
  12   0.0000       0.205145         5.5823
  13   0.0000       0.226349         6.1593

MULLIKEN ATOMIC CHARGES
-----------------------
   0 C :   -0.150931
   1 O :   -0.477571
   2 H :    0.313058
   3 H :    0.098683
   4 H :    0.118174
   5 H :    0.098587
Sum of atomic charges:   -0.0000000

LOEWDIN ATOMIC CHARGES
----------------------
   0 C :   -0.385358
   1 O :   -0.075943
   2 H :    0.165823
   3 H :    0.093405
   4 H :    0.108678
   5 H :    0.093395

  Mayer bond orders larger than 0.1
B(  0-C ,  1-O ) :   0.9988 B(  0-C ,  3-H ) :   0.9755 B(  0-C ,  4-H ) :   0.9749
B(  0-C ,  5-H ) :   0.9755 B(  1-O ,  2-H ) :   0.9002

Dispersion correction           -0.000239445
FINAL SINGLE POINT ENERGY      -115.738050471375

DIPOLE MOMENT
-------------
                                X             Y             Z
Electronic contribution:      1.75785      -0.02835       0.41826
Nuclear contribution   :     -2.06759       0.47599      -0.81558
                        -----------------------------------------
Total Dipole Moment    :     -0.30974       0.44764      -0.39731
                        -----------------------------------------
Magnitude (a.u.)       :      0.67393
Magnitude (Debye)      :      1.71299

Rotational constants in cm-1:     4.294478     0.833722     0.804956
Rotational constants in MHz : 128745.211975 24994.357866 24131.984553

                             ****ORCA TERMINATED NORMALLY****
TOTAL RUN TIME: 0 days 0 hours 0 minutes 35 seconds 435 msec
