                         Program Version 4.1.2  - RELEASE  -
|  1> #Run DFT-D3 single point of the dimer
|  2> ! wB97X-D3 def2-TZVP TIGHTSCF CHELPG PMODEL PAL8
|  3>
|  4> %base "22-52_DFT_AB"
|  5>
|  6> %scf
|  7> MaxIter 1000
|  8> end
|  9>
| 10> * xyz 0 1
| 11>   C                      5.509219             -5.286384            -2.629828
| 12>   O                      6.356411             -4.322206            -3.312786
| 13>   H                      5.806492             -3.659072            -3.753185
| 14>   H                      4.710320             -5.785805            -3.279945
| 15>   H                      6.199272             -6.152955            -2.356879
| 16>   H                      4.910016             -4.863904            -1.771712
| 17>   C                      7.695051             -7.276950            0.412980
| 18>   O                      8.970194             -6.688546            0.221901
| 19>   H                      8.750554             -5.892536            -0.340025
| 20>   H                      7.752044             -8.187793            1.079230
| 21>   H                      6.997280             -6.546783            0.831304
| 22>   H                      7.280716             -7.647085            -0.589028
| 23> *
| 24>
| 25> #Run DFT-D3 single point of the molecule with dimer basis set
| 26> $new_job
| 27> %base "22-52_DFT_A"
| 28> ! wB97X-D3 def2-TZVP TIGHTSCF CHELPG PMODEL
| 29>
| 30> %scf
| 31> MaxIter 1000
| 32> end
| 33>
| 34> * xyz 0 1
| 35>   C                      5.509219             -5.286384            -2.629828
| 36>   O                      6.356411             -4.322206            -3.312786
| 37>   H                      5.806492             -3.659072            -3.753185
| 38>   H                      4.710320             -5.785805            -3.279945
| 39>   H                      6.199272             -6.152955            -2.356879
| 40>   H                      4.910016             -4.863904            -1.771712
| 41>   C                    : 7.695051             -7.276950            0.412980
| 42>   O                    : 8.970194             -6.688546            0.221901
| 43>   H                    : 8.750554             -5.892536            -0.340025
| 44>   H                    : 7.752044             -8.187793            1.079230
| 45>   H                    : 6.997280             -6.546783            0.831304
| 46>   H                    : 7.280716             -7.647085            -0.589028
| 47> *
| 48>
| 49> #Run DFT-D3 single point of the particle with dimer basis set
| 50> $new_job
| 51> %base "22-52_DFT_B"
| 52> ! wB97X-D3 def2-TZVP TIGHTSCF CHELPG PMODEL
| 53>
| 54> %scf
| 55> MaxIter 1000
| 56> end
| 57>
| 58> * xyz 0 1
| 59>   C                    : 5.509219             -5.286384            -2.629828
| 60>   O                    : 6.356411             -4.322206            -3.312786
| 61>   H                    : 5.806492             -3.659072            -3.753185
| 62>   H                    : 4.710320             -5.785805            -3.279945
| 63>   H                    : 6.199272             -6.152955            -2.356879
| 64>   H                    : 4.910016             -4.863904            -1.771712
| 65>   C                      7.695051             -7.276950            0.412980
| 66>   O                      8.970194             -6.688546            0.221901
| 67>   H                      8.750554             -5.892536            -0.340025
| 68>   H                      7.752044             -8.187793            1.079230
| 69>   H                      6.997280             -6.546783            0.831304
| 70>   H                      7.280716             -7.647085            -0.589028
| 71> *
| 72>
| 73>                          ****END OF INPUT****
 Total Charge           Charge          ....    0
 Multiplicity           Mult            ....    1
 Number of Electrons    NEL             ....   36
Dispersion correction           -0.001388751
FINAL SINGLE POINT ENERGY      -231.463461616899
Dispersion correction           -0.000300120
FINAL SINGLE POINT ENERGY      -115.730017985101

CARTESIAN COORDINATES (ANGSTROEM)
---------------------------------
  C      5.509219   -5.286384   -2.629828
  O      6.356411   -4.322206   -3.312786
  H      5.806492   -3.659072   -3.753185
  H      4.710320   -5.785805   -3.279945
  H      6.199272   -6.152955   -2.356879
  H      4.910016   -4.863904   -1.771712
  C      7.695051   -7.276950    0.412980
  O      8.970194   -6.688546    0.221901
  H      8.750554   -5.892536   -0.340025
  H      7.752044   -8.187793    1.079230
  H      6.997280   -6.546783    0.831304
  H      7.280716   -7.647085   -0.589028

 Multiplicity           Mult            ....    1
 Number of Electrons    NEL             ....   18
 Basis Dimension        Dim             ....  172

ORBITAL ENERGIES
----------------

  NO   OCC          E(Eh)            E(eV)
   0   2.0000     -19.236014      -523.4386
   1   2.0000     -10.322837      -280.8987
   2   2.0000      -1.132959       -30.8294
   3   2.0000      -0.782755       -21.2998
   4   2.0000      -0.604028       -16.4364
   5   2.0000      -0.539026       -14.6677
   6   2.0000      -0.523363       -14.2414
   7   2.0000      -0.436594       -11.8803
   8   2.0000      -0.371641       -10.1129
   9   0.0000       0.072874         1.9830
  10   0.0000       0.115162         3.1337
  11   0.0000       0.143981         3.9179
  12   0.0000       0.170114         4.6290
  13   0.0000       0.176691         4.8080

MULLIKEN ATOMIC CHARGES
-----------------------
   0 C :   -0.000465
   1 O :   -0.000026
   2 H :   -0.000002
   3 H :    0.000112
   4 H :    0.000884
   5 H :   -0.000241
   6 C :   -0.181610
   7 O :   -0.461961
   8 H :    0.316820
   9 H :    0.121863
  10 H :    0.109671
  11 H :    0.094954
Sum of atomic charges:   -0.0000000

LOEWDIN ATOMIC CHARGES
----------------------
   0 C :   -0.001256
   1 O :   -0.000019
   2 H :   -0.000001
   3 H :   -0.000005
   4 H :   -0.003086
   5 H :   -0.000097
   6 C :   -0.401197
   7 O :   -0.096917
   8 H :    0.194269
   9 H :    0.113865
  10 H :    0.093341
  11 H :    0.101103

  Mayer bond orders larger than 0.1
B(  6-C ,  7-O ) :   1.0011 B(  6-C ,  9-H ) :   0.9703 B(  6-C , 10-H ) :   0.9747
B(  6-C , 11-H ) :   0.9747 B(  7-O ,  8-H ) :   0.8962

Dispersion correction           -0.000234731
FINAL SINGLE POINT ENERGY      -115.732028635879

DIPOLE MOMENT
-------------
                                X             Y             Z
Electronic contribution:      1.76754       0.67661      -0.05729
Nuclear contribution   :     -2.37957      -0.41491      -0.19290
                        -----------------------------------------
Total Dipole Moment    :     -0.61203       0.26170      -0.25019
                        -----------------------------------------
Magnitude (a.u.)       :      0.71110
Magnitude (Debye)      :      1.80748

Rotational constants in cm-1:     3.998583     0.829405     0.795011
Rotational constants in MHz : 119874.495559 24864.945019 23833.825273

                             ****ORCA TERMINATED NORMALLY****
TOTAL RUN TIME: 0 days 0 hours 0 minutes 56 seconds 375 msec
