                         Program Version 4.1.2  - RELEASE  -
|  1> #Run DFT-D3 single point of the dimer
|  2> ! wB97X-D3 def2-TZVP TIGHTSCF CHELPG PMODEL PAL8
|  3>
|  4> %base "4-52_DFT_AB"
|  5>
|  6> %scf
|  7> MaxIter 1000
|  8> end
|  9>
| 10> * xyz 0 1
| 11>   C                      4.599833             1.923888             6.602593
| 12>   O                      3.786116             2.729609             7.484004
| 13>   H                      3.607876             3.440949             6.897519
| 14>   H                      5.455821             2.534420             6.223668
| 15>   H                      5.103900             1.124986             7.097621
| 16>   H                      4.070648             1.512387             5.743250
| 17>   C                      0.822627             2.073997             7.005008
| 18>   O                      1.063113             1.717260             8.417392
| 19>   H                      1.973858             1.958392             8.715179
| 20>   H                      0.394365             3.062085             6.987075
| 21>   H                      1.773942             2.144223             6.500203
| 22>   H                      0.112993             1.379482             6.504855
| 23> *
| 24>
| 25> #Run DFT-D3 single point of the molecule with dimer basis set
| 26> $new_job
| 27> %base "4-52_DFT_A"
| 28> ! wB97X-D3 def2-TZVP TIGHTSCF CHELPG PMODEL
| 29>
| 30> %scf
| 31> MaxIter 1000
| 32> end
| 33>
| 34> * xyz 0 1
| 35>   C                      4.599833             1.923888             6.602593
| 36>   O                      3.786116             2.729609             7.484004
| 37>   H                      3.607876             3.440949             6.897519
| 38>   H                      5.455821             2.534420             6.223668
| 39>   H                      5.103900             1.124986             7.097621
| 40>   H                      4.070648             1.512387             5.743250
| 41>   C                    : 0.822627             2.073997             7.005008
| 42>   O                    : 1.063113             1.717260             8.417392
| 43>   H                    : 1.973858             1.958392             8.715179
| 44>   H                    : 0.394365             3.062085             6.987075
| 45>   H                    : 1.773942             2.144223             6.500203
| 46>   H                    : 0.112993             1.379482             6.504855
| 47> *
| 48>
| 49> #Run DFT-D3 single point of the particle with dimer basis set
| 50> $new_job
| 51> %base "4-52_DFT_B"
| 52> ! wB97X-D3 def2-TZVP TIGHTSCF CHELPG PMODEL
| 53>
| 54> %scf
| 55> MaxIter 1000
| 56> end
| 57>
| 58> * xyz 0 1
| 59>   C                    : 4.599833             1.923888             6.602593
| 60>   O                    : 3.786116             2.729609             7.484004
| 61>   H                    : 3.607876             3.440949             6.897519
| 62>   H                    : 5.455821             2.534420             6.223668
| 63>   H                    : 5.103900             1.124986             7.097621
| 64>   H                    : 4.070648             1.512387             5.743250
| 65>   C                      0.822627             2.073997             7.005008
| 66>   O                      1.063113             1.717260             8.417392
| 67>   H                      1.973858             1.958392             8.715179
| 68>   H                      0.394365             3.062085             6.987075
| 69>   H                      1.773942             2.144223             6.500203
| 70>   H                      0.112993             1.379482             6.504855
| 71> *
| 72>
| 73>                          ****END OF INPUT****
 Total Charge           Charge          ....    0
 Multiplicity           Mult            ....    1
 Number of Electrons    NEL             ....   36
Dispersion correction           -0.002120952
FINAL SINGLE POINT ENERGY      -231.466717060697
Dispersion correction           -0.000234917
FINAL SINGLE POINT ENERGY      -115.731950465791

CARTESIAN COORDINATES (ANGSTROEM)
---------------------------------
  C      4.599833    1.923888    6.602593
  O      3.786116    2.729609    7.484004
  H      3.607876    3.440949    6.897519
  H      5.455821    2.534420    6.223668
  H      5.103900    1.124986    7.097621
  H      4.070648    1.512387    5.743250
  C      0.822627    2.073997    7.005008
  O      1.063113    1.717260    8.417392
  H      1.973858    1.958392    8.715179
  H      0.394365    3.062085    6.987075
  H      1.773942    2.144223    6.500203
  H      0.112993    1.379482    6.504855

 Multiplicity           Mult            ....    1
 Number of Electrons    NEL             ....   18
 Basis Dimension        Dim             ....  172

ORBITAL ENERGIES
----------------

  NO   OCC          E(Eh)            E(eV)
   0   2.0000     -19.227743      -523.2135
   1   2.0000     -10.317641      -280.7573
   2   2.0000      -1.108691       -30.1690
   3   2.0000      -0.797531       -21.7019
   4   2.0000      -0.596736       -16.2380
   5   2.0000      -0.532382       -14.4869
   6   2.0000      -0.527595       -14.3566
   7   2.0000      -0.429979       -11.7003
   8   2.0000      -0.371220       -10.1014
   9   0.0000       0.072124         1.9626
  10   0.0000       0.126344         3.4380
  11   0.0000       0.147391         4.0107
  12   0.0000       0.170677         4.6444
  13   0.0000       0.190982         5.1969

MULLIKEN ATOMIC CHARGES
-----------------------
   0 C :    0.000830
   1 O :   -0.003234
   2 H :   -0.000203
   3 H :    0.000111
   4 H :    0.000083
   5 H :   -0.000739
   6 C :   -0.168073
   7 O :   -0.501355
   8 H :    0.319910
   9 H :    0.118286
  10 H :    0.108118
  11 H :    0.126266
Sum of atomic charges:   -0.0000000

LOEWDIN ATOMIC CHARGES
----------------------
   0 C :   -0.006778
   1 O :   -0.015252
   2 H :   -0.003675
   3 H :   -0.000051
   4 H :   -0.000095
   5 H :   -0.002182
   6 C :   -0.327605
   7 O :   -0.134125
   8 H :    0.179662
   9 H :    0.096614
  10 H :    0.101969
  11 H :    0.111519

  Mayer bond orders larger than 0.1
B(  6-C ,  7-O ) :   0.9826 B(  6-C ,  9-H ) :   0.9786 B(  6-C , 10-H ) :   0.9789
B(  6-C , 11-H ) :   0.9703 B(  7-O ,  8-H ) :   0.8960

Dispersion correction           -0.000267631
FINAL SINGLE POINT ENERGY      -115.730601734307

DIPOLE MOMENT
-------------
                                X             Y             Z
Electronic contribution:      0.13614      -0.54635       1.63172
Nuclear contribution   :      0.34184       0.86924      -2.07270
                        -----------------------------------------
Total Dipole Moment    :      0.47798       0.32289      -0.44098
                        -----------------------------------------
Magnitude (a.u.)       :      0.72607
Magnitude (Debye)      :      1.84553

Rotational constants in cm-1:     4.287627     0.775093     0.743236
Rotational constants in MHz : 128539.811460 23236.714001 22281.641550

                             ****ORCA TERMINATED NORMALLY****
TOTAL RUN TIME: 0 days 0 hours 1 minutes 27 seconds 767 msec
