                         Program Version 4.1.2  - RELEASE  -
|  1> #Run DFT-D3 single point of the dimer
|  2> ! wB97X-D3 def2-TZVP TIGHTSCF CHELPG PMODEL PAL8
|  3>
|  4> %base "13-156_DFT_AB"
|  5>
|  6> %scf
|  7> MaxIter 1000
|  8> end
|  9>
| 10> * xyz 0 1
| 11>   C                      -5.096008            -3.753451            3.326381
| 12>   O                      -5.380777            -2.400970            2.826767
| 13>   H                      -4.569839            -1.883165            2.985100
| 14>   H                      -5.602730            -3.811661            4.240219
| 15>   H                      -5.307437            -4.498748            2.542012
| 16>   H                      -4.063225            -3.850784            3.599259
| 17>   C                      -3.727973            -1.649704            6.637132
| 18>   O                      -2.891218            -1.145543            5.615746
| 19>   H                      -2.828030            -1.761109            4.912795
| 20>   H                      -3.366641            -2.494963            7.158511
| 21>   H                      -3.949800            -0.870699            7.426637
| 22>   H                      -4.697493            -1.951473            6.241706
| 23> *
| 24>
| 25> #Run DFT-D3 single point of the molecule with dimer basis set
| 26> $new_job
| 27> %base "13-156_DFT_A"
| 28> ! wB97X-D3 def2-TZVP TIGHTSCF CHELPG PMODEL
| 29>
| 30> %scf
| 31> MaxIter 1000
| 32> end
| 33>
| 34> * xyz 0 1
| 35>   C                      -5.096008            -3.753451            3.326381
| 36>   O                      -5.380777            -2.400970            2.826767
| 37>   H                      -4.569839            -1.883165            2.985100
| 38>   H                      -5.602730            -3.811661            4.240219
| 39>   H                      -5.307437            -4.498748            2.542012
| 40>   H                      -4.063225            -3.850784            3.599259
| 41>   C                    : -3.727973            -1.649704            6.637132
| 42>   O                    : -2.891218            -1.145543            5.615746
| 43>   H                    : -2.828030            -1.761109            4.912795
| 44>   H                    : -3.366641            -2.494963            7.158511
| 45>   H                    : -3.949800            -0.870699            7.426637
| 46>   H                    : -4.697493            -1.951473            6.241706
| 47> *
| 48>
| 49> #Run DFT-D3 single point of the particle with dimer basis set
| 50> $new_job
| 51> %base "13-156_DFT_B"
| 52> ! wB97X-D3 def2-TZVP TIGHTSCF CHELPG PMODEL
| 53>
| 54> %scf
| 55> MaxIter 1000
| 56> end
| 57>
| 58> * xyz 0 1
| 59>   C                    : -5.096008            -3.753451            3.326381
| 60>   O                    : -5.380777            -2.400970            2.826767
| 61>   H                    : -4.569839            -1.883165            2.985100
| 62>   H                    : -5.602730            -3.811661            4.240219
| 63>   H                    : -5.307437            -4.498748            2.542012
| 64>   H                    : -4.063225            -3.850784            3.599259
| 65>   C                      -3.727973            -1.649704            6.637132
| 66>   O                      -2.891218            -1.145543            5.615746
| 67>   H                      -2.828030            -1.761109            4.912795
| 68>   H                      -3.366641            -2.494963            7.158511
| 69>   H                      -3.949800            -0.870699            7.426637
| 70>   H                      -4.697493            -1.951473            6.241706
| 71> *
| 72>
| 73>                          ****END OF INPUT****
 Total Charge           Charge          ....    0
 Multiplicity           Mult            ....    1
 Number of Electrons    NEL             ....   36
Dispersion correction           -0.001968347
FINAL SINGLE POINT ENERGY      -231.463080038575
Dispersion correction           -0.000242624
FINAL SINGLE POINT ENERGY      -115.729283420238

CARTESIAN COORDINATES (ANGSTROEM)
---------------------------------
  C     -5.096008   -3.753451    3.326381
  O     -5.380777   -2.400970    2.826767
  H     -4.569839   -1.883165    2.985100
  H     -5.602730   -3.811661    4.240219
  H     -5.307437   -4.498748    2.542012
  H     -4.063225   -3.850784    3.599259
  C     -3.727973   -1.649704    6.637132
  O     -2.891218   -1.145543    5.615746
  H     -2.828030   -1.761109    4.912795
  H     -3.366641   -2.494963    7.158511
  H     -3.949800   -0.870699    7.426637
  H     -4.697493   -1.951473    6.241706

 Multiplicity           Mult            ....    1
 Number of Electrons    NEL             ....   18
 Basis Dimension        Dim             ....  172

ORBITAL ENERGIES
----------------

  NO   OCC          E(Eh)            E(eV)
   0   2.0000     -19.230183      -523.2799
   1   2.0000     -10.313434      -280.6428
   2   2.0000      -1.140778       -31.0422
   3   2.0000      -0.800996       -21.7962
   4   2.0000      -0.619238       -16.8503
   5   2.0000      -0.541493       -14.7348
   6   2.0000      -0.525921       -14.3110
   7   2.0000      -0.431876       -11.7519
   8   2.0000      -0.376370       -10.2416
   9   0.0000       0.072599         1.9755
  10   0.0000       0.138267         3.7624
  11   0.0000       0.145420         3.9571
  12   0.0000       0.166471         4.5299
  13   0.0000       0.189265         5.1502

MULLIKEN ATOMIC CHARGES
-----------------------
   0 C :    0.000676
   1 O :    0.000687
   2 H :   -0.003875
   3 H :   -0.001047
   4 H :   -0.000010
   5 H :   -0.000969
   6 C :   -0.161948
   7 O :   -0.471835
   8 H :    0.312851
   9 H :    0.107589
  10 H :    0.119465
  11 H :    0.098416
Sum of atomic charges:   -0.0000000

LOEWDIN ATOMIC CHARGES
----------------------
   0 C :   -0.002110
   1 O :   -0.000180
   2 H :   -0.002993
   3 H :   -0.001234
   4 H :   -0.000017
   5 H :   -0.001069
   6 C :   -0.383070
   7 O :   -0.058830
   8 H :    0.152565
   9 H :    0.085986
  10 H :    0.117597
  11 H :    0.093356

  Mayer bond orders larger than 0.1
B(  6-C ,  7-O ) :   0.9977 B(  6-C ,  9-H ) :   0.9743 B(  6-C , 10-H ) :   0.9738
B(  6-C , 11-H ) :   0.9796 B(  7-O ,  8-H ) :   0.9041

Dispersion correction           -0.000250592
FINAL SINGLE POINT ENERGY      -115.733761224135

DIPOLE MOMENT
-------------
                                X             Y             Z
Electronic contribution:      1.20763       0.72198      -1.27964
Nuclear contribution   :     -1.50438      -1.33392       1.24328
                        -----------------------------------------
Total Dipole Moment    :     -0.29675      -0.61194      -0.03636
                        -----------------------------------------
Magnitude (a.u.)       :      0.68107
Magnitude (Debye)      :      1.73113

Rotational constants in cm-1:     4.490082     0.823468     0.791335
Rotational constants in MHz : 134609.259309 24686.959812 23723.632150

                             ****ORCA TERMINATED NORMALLY****
TOTAL RUN TIME: 0 days 0 hours 1 minutes 2 seconds 330 msec
