                         Program Version 4.1.2  - RELEASE  -
|  1> #Run DFT-D3 single point of the dimer
|  2> ! wB97X-D3 def2-TZVP TIGHTSCF CHELPG PMODEL PAL8
|  3>
|  4> %base "15-10_DFT_AB"
|  5>
|  6> %scf
|  7> MaxIter 1000
|  8> end
|  9>
| 10> * xyz 0 1
| 11>   C                      -6.481891            -7.877271            7.250222
| 12>   O                      -6.198547            -6.565036            6.837370
| 13>   H                      -6.806889            -6.005382            7.336781
| 14>   H                      -7.552956            -8.073217            7.112625
| 15>   H                      -5.784904            -8.580147            6.772301
| 16>   H                      -6.373916            -7.930089            8.316778
| 17>   C                      -6.229169            -5.605848            3.649831
| 18>   O                      -6.486129            -5.657773            2.254109
| 19>   H                      -6.061267            -6.372344            1.832964
| 20>   H                      -5.270334            -5.238399            3.993347
| 21>   H                      -7.008296            -5.020978            4.148391
| 22>   H                      -6.485685            -6.561689            4.106326
| 23> *
| 24>
| 25> #Run DFT-D3 single point of the molecule with dimer basis set
| 26> $new_job
| 27> %base "15-10_DFT_A"
| 28> ! wB97X-D3 def2-TZVP TIGHTSCF CHELPG PMODEL
| 29>
| 30> %scf
| 31> MaxIter 1000
| 32> end
| 33>
| 34> * xyz 0 1
| 35>   C                      -6.481891            -7.877271            7.250222
| 36>   O                      -6.198547            -6.565036            6.837370
| 37>   H                      -6.806889            -6.005382            7.336781
| 38>   H                      -7.552956            -8.073217            7.112625
| 39>   H                      -5.784904            -8.580147            6.772301
| 40>   H                      -6.373916            -7.930089            8.316778
| 41>   C                    : -6.229169            -5.605848            3.649831
| 42>   O                    : -6.486129            -5.657773            2.254109
| 43>   H                    : -6.061267            -6.372344            1.832964
| 44>   H                    : -5.270334            -5.238399            3.993347
| 45>   H                    : -7.008296            -5.020978            4.148391
| 46>   H                    : -6.485685            -6.561689            4.106326
| 47> *
| 48>
| 49> #Run DFT-D3 single point of the particle with dimer basis set
| 50> $new_job
| 51> %base "15-10_DFT_B"
| 52> ! wB97X-D3 def2-TZVP TIGHTSCF CHELPG PMODEL
| 53>
| 54> %scf
| 55> MaxIter 1000
| 56> end
| 57>
| 58> * xyz 0 1
| 59>   C                    : -6.481891            -7.877271            7.250222
| 60>   O                    : -6.198547            -6.565036            6.837370
| 61>   H                    : -6.806889            -6.005382            7.336781
| 62>   H                    : -7.552956            -8.073217            7.112625
| 63>   H                    : -5.784904            -8.580147            6.772301
| 64>   H                    : -6.373916            -7.930089            8.316778
| 65>   C                      -6.229169            -5.605848            3.649831
| 66>   O                      -6.486129            -5.657773            2.254109
| 67>   H                      -6.061267            -6.372344            1.832964
| 68>   H                      -5.270334            -5.238399            3.993347
| 69>   H                      -7.008296            -5.020978            4.148391
| 70>   H                      -6.485685            -6.561689            4.106326
| 71> *
| 72>
| 73>                          ****END OF INPUT****
 Total Charge           Charge          ....    0
 Multiplicity           Mult            ....    1
 Number of Electrons    NEL             ....   36
Dispersion correction           -0.001615008
FINAL SINGLE POINT ENERGY      -231.466278699694
Dispersion correction           -0.000206335
FINAL SINGLE POINT ENERGY      -115.733423369254

CARTESIAN COORDINATES (ANGSTROEM)
---------------------------------
  C     -6.481891   -7.877271    7.250222
  O     -6.198547   -6.565036    6.837370
  H     -6.806889   -6.005382    7.336781
  H     -7.552956   -8.073217    7.112625
  H     -5.784904   -8.580147    6.772301
  H     -6.373916   -7.930089    8.316778
  C     -6.229169   -5.605848    3.649831
  O     -6.486129   -5.657773    2.254109
  H     -6.061267   -6.372344    1.832964
  H     -5.270334   -5.238399    3.993347
  H     -7.008296   -5.020978    4.148391
  H     -6.485685   -6.561689    4.106326

 Multiplicity           Mult            ....    1
 Number of Electrons    NEL             ....   18
 Basis Dimension        Dim             ....  172

ORBITAL ENERGIES
----------------

  NO   OCC          E(Eh)            E(eV)
   0   2.0000     -19.227890      -523.2175
   1   2.0000     -10.312848      -280.6268
   2   2.0000      -1.137163       -30.9438
   3   2.0000      -0.804340       -21.8872
   4   2.0000      -0.614637       -16.7251
   5   2.0000      -0.549193       -14.9443
   6   2.0000      -0.522821       -14.2267
   7   2.0000      -0.421256       -11.4630
   8   2.0000      -0.379751       -10.3336
   9   0.0000       0.078930         2.1478
  10   0.0000       0.122318         3.3285
  11   0.0000       0.145040         3.9467
  12   0.0000       0.169032         4.5996
  13   0.0000       0.189294         5.1510

MULLIKEN ATOMIC CHARGES
-----------------------
   0 C :   -0.000637
   1 O :   -0.000281
   2 H :   -0.000114
   3 H :   -0.000051
   4 H :   -0.000109
   5 H :   -0.000047
   6 C :   -0.157005
   7 O :   -0.480594
   8 H :    0.313540
   9 H :    0.104995
  10 H :    0.119110
  11 H :    0.101192
Sum of atomic charges:    0.0000000

LOEWDIN ATOMIC CHARGES
----------------------
   0 C :   -0.002317
   1 O :   -0.002973
   2 H :   -0.000306
   3 H :   -0.000132
   4 H :   -0.000241
   5 H :   -0.000048
   6 C :   -0.381924
   7 O :   -0.064816
   8 H :    0.148345
   9 H :    0.093186
  10 H :    0.112260
  11 H :    0.098966

  Mayer bond orders larger than 0.1
B(  6-C ,  7-O ) :   1.0033 B(  6-C ,  9-H ) :   0.9665 B(  6-C , 10-H ) :   0.9723
B(  6-C , 11-H ) :   0.9858 B(  7-O ,  8-H ) :   0.9016

Dispersion correction           -0.000266255
FINAL SINGLE POINT ENERGY      -115.730974134436

DIPOLE MOMENT
-------------
                                X             Y             Z
Electronic contribution:     -0.20304       0.07461      -1.87103
Nuclear contribution   :      0.55425      -0.53424       2.18011
                        -----------------------------------------
Total Dipole Moment    :      0.35121      -0.45963       0.30909
                        -----------------------------------------
Magnitude (a.u.)       :      0.65585
Magnitude (Debye)      :      1.66704

Rotational constants in cm-1:     4.563378     0.806573     0.793676
Rotational constants in MHz : 136806.636389 24180.461503 23793.803887

                             ****ORCA TERMINATED NORMALLY****
TOTAL RUN TIME: 0 days 0 hours 0 minutes 56 seconds 563 msec
