                         Program Version 4.1.2  - RELEASE  -
|  1> #Run DFT-D3 single point of the dimer
|  2> ! wB97X-D3 def2-TZVP TIGHTSCF CHELPG PMODEL PAL8
|  3>
|  4> %base "16-42_DFT_AB"
|  5>
|  6> %scf
|  7> MaxIter 1000
|  8> end
|  9>
| 10> * xyz 0 1
| 11>   C                      -9.607152            5.117939             10.317156
| 12>   O                      -9.368994            5.737735             9.035976
| 13>   H                      -8.398916            5.941708             9.107230
| 14>   H                      -9.158430            4.141483             10.316364
| 15>   H                      -9.168728            5.705296             11.156317
| 16>   H                      -10.756930           5.109507             10.406257
| 17>   C                      -6.937713            2.373086             6.655401
| 18>   O                      -5.794244            1.905989             5.977256
| 19>   H                      -5.128187            2.605545             6.038818
| 20>   H                      -6.876055            2.211186             7.722361
| 21>   H                      -7.201990            3.407024             6.351372
| 22>   H                      -7.791973            1.711379             6.400325
| 23> *
| 24>
| 25> #Run DFT-D3 single point of the molecule with dimer basis set
| 26> $new_job
| 27> %base "16-42_DFT_A"
| 28> ! wB97X-D3 def2-TZVP TIGHTSCF CHELPG PMODEL
| 29>
| 30> %scf
| 31> MaxIter 1000
| 32> end
| 33>
| 34> * xyz 0 1
| 35>   C                      -9.607152            5.117939             10.317156
| 36>   O                      -9.368994            5.737735             9.035976
| 37>   H                      -8.398916            5.941708             9.107230
| 38>   H                      -9.158430            4.141483             10.316364
| 39>   H                      -9.168728            5.705296             11.156317
| 40>   H                      -10.756930           5.109507             10.406257
| 41>   C                    : -6.937713            2.373086             6.655401
| 42>   O                    : -5.794244            1.905989             5.977256
| 43>   H                    : -5.128187            2.605545             6.038818
| 44>   H                    : -6.876055            2.211186             7.722361
| 45>   H                    : -7.201990            3.407024             6.351372
| 46>   H                    : -7.791973            1.711379             6.400325
| 47> *
| 48>
| 49> #Run DFT-D3 single point of the particle with dimer basis set
| 50> $new_job
| 51> %base "16-42_DFT_B"
| 52> ! wB97X-D3 def2-TZVP TIGHTSCF CHELPG PMODEL
| 53>
| 54> %scf
| 55> MaxIter 1000
| 56> end
| 57>
| 58> * xyz 0 1
| 59>   C                    : -9.607152            5.117939             10.317156
| 60>   O                    : -9.368994            5.737735             9.035976
| 61>   H                    : -8.398916            5.941708             9.107230
| 62>   H                    : -9.158430            4.141483             10.316364
| 63>   H                    : -9.168728            5.705296             11.156317
| 64>   H                    : -10.756930           5.109507             10.406257
| 65>   C                      -6.937713            2.373086             6.655401
| 66>   O                      -5.794244            1.905989             5.977256
| 67>   H                      -5.128187            2.605545             6.038818
| 68>   H                      -6.876055            2.211186             7.722361
| 69>   H                      -7.201990            3.407024             6.351372
| 70>   H                      -7.791973            1.711379             6.400325
| 71> *
| 72>
| 73>                          ****END OF INPUT****
 Total Charge           Charge          ....    0
 Multiplicity           Mult            ....    1
 Number of Electrons    NEL             ....   36
Dispersion correction           -0.000784302
FINAL SINGLE POINT ENERGY      -231.465414864859
Dispersion correction           -0.000229781
FINAL SINGLE POINT ENERGY      -115.730526619682

CARTESIAN COORDINATES (ANGSTROEM)
---------------------------------
  C     -9.607152    5.117939   10.317156
  O     -9.368994    5.737735    9.035976
  H     -8.398916    5.941708    9.107230
  H     -9.158430    4.141483   10.316364
  H     -9.168728    5.705296   11.156317
  H    -10.756930    5.109507   10.406257
  C     -6.937713    2.373086    6.655401
  O     -5.794244    1.905989    5.977256
  H     -5.128187    2.605545    6.038818
  H     -6.876055    2.211186    7.722361
  H     -7.201990    3.407024    6.351372
  H     -7.791973    1.711379    6.400325

 Multiplicity           Mult            ....    1
 Number of Electrons    NEL             ....   18
 Basis Dimension        Dim             ....  172

ORBITAL ENERGIES
----------------

  NO   OCC          E(Eh)            E(eV)
   0   2.0000     -19.231138      -523.3059
   1   2.0000     -10.314006      -280.6584
   2   2.0000      -1.136888       -30.9363
   3   2.0000      -0.793158       -21.5829
   4   2.0000      -0.606972       -16.5166
   5   2.0000      -0.549562       -14.9543
   6   2.0000      -0.523356       -14.2412
   7   2.0000      -0.429813       -11.6958
   8   2.0000      -0.374367       -10.1870
   9   0.0000       0.081409         2.2152
  10   0.0000       0.115446         3.1415
  11   0.0000       0.144755         3.9390
  12   0.0000       0.165906         4.5145
  13   0.0000       0.188268         5.1230

MULLIKEN ATOMIC CHARGES
-----------------------
   0 C :    0.000127
   1 O :    0.000006
   2 H :   -0.000126
   3 H :   -0.000209
   4 H :   -0.000004
   5 H :   -0.000003
   6 C :   -0.165771
   7 O :   -0.471259
   8 H :    0.315061
   9 H :    0.106324
  10 H :    0.101778
  11 H :    0.114075
Sum of atomic charges:    0.0000000

LOEWDIN ATOMIC CHARGES
----------------------
   0 C :   -0.000047
   1 O :   -0.000033
   2 H :   -0.000095
   3 H :   -0.000102
   4 H :   -0.000000
   5 H :   -0.000000
   6 C :   -0.397491
   7 O :   -0.077980
   8 H :    0.173786
   9 H :    0.092056
  10 H :    0.098323
  11 H :    0.111583

  Mayer bond orders larger than 0.1
B(  6-C ,  7-O ) :   1.0069 B(  6-C ,  9-H ) :   0.9733 B(  6-C , 10-H ) :   0.9784
B(  6-C , 11-H ) :   0.9743 B(  7-O ,  8-H ) :   0.8991

Dispersion correction           -0.000242509
FINAL SINGLE POINT ENERGY      -115.734542742216

DIPOLE MOMENT
-------------
                                X             Y             Z
Electronic contribution:      1.47932      -0.63036      -0.87877
Nuclear contribution   :     -1.51723       1.23471       1.17655
                        -----------------------------------------
Total Dipole Moment    :     -0.03791       0.60435       0.29778
                        -----------------------------------------
Magnitude (a.u.)       :      0.67480
Magnitude (Debye)      :      1.71520

Rotational constants in cm-1:     4.241585     0.835470     0.804862
Rotational constants in MHz : 127159.515403 25046.747593 24129.160488

                             ****ORCA TERMINATED NORMALLY****
TOTAL RUN TIME: 0 days 0 hours 1 minutes 4 seconds 146 msec
