                         Program Version 4.1.2  - RELEASE  -
|  1> #Run DFT-D3 single point of the dimer
|  2> ! wB97X-D3 def2-TZVP TIGHTSCF CHELPG PMODEL PAL8
|  3>
|  4> %base "7-148_DFT_AB"
|  5>
|  6> %scf
|  7> MaxIter 1000
|  8> end
|  9>
| 10> * xyz 0 1
| 11>   C                      5.336748             -10.996211           4.260549
| 12>   O                      5.074167             -11.905412           3.179210
| 13>   H                      4.188795             -11.588379           2.888647
| 14>   H                      5.897180             -11.453866           5.076552
| 15>   H                      5.993802             -10.203456           3.843113
| 16>   H                      4.420244             -10.644865           4.688939
| 17>   C                      7.267881             -9.249310            0.379082
| 18>   O                      6.532941             -10.433667           0.124690
| 19>   H                      5.884201             -10.210428           -0.557404
| 20>   H                      7.896792             -9.465729            1.292165
| 21>   H                      8.034743             -9.052904            -0.346697
| 22>   H                      6.639650             -8.371010            0.421640
| 23> *
| 24>
| 25> #Run DFT-D3 single point of the molecule with dimer basis set
| 26> $new_job
| 27> %base "7-148_DFT_A"
| 28> ! wB97X-D3 def2-TZVP TIGHTSCF CHELPG PMODEL
| 29>
| 30> %scf
| 31> MaxIter 1000
| 32> end
| 33>
| 34> * xyz 0 1
| 35>   C                      5.336748             -10.996211           4.260549
| 36>   O                      5.074167             -11.905412           3.179210
| 37>   H                      4.188795             -11.588379           2.888647
| 38>   H                      5.897180             -11.453866           5.076552
| 39>   H                      5.993802             -10.203456           3.843113
| 40>   H                      4.420244             -10.644865           4.688939
| 41>   C                    : 7.267881             -9.249310            0.379082
| 42>   O                    : 6.532941             -10.433667           0.124690
| 43>   H                    : 5.884201             -10.210428           -0.557404
| 44>   H                    : 7.896792             -9.465729            1.292165
| 45>   H                    : 8.034743             -9.052904            -0.346697
| 46>   H                    : 6.639650             -8.371010            0.421640
| 47> *
| 48>
| 49> #Run DFT-D3 single point of the particle with dimer basis set
| 50> $new_job
| 51> %base "7-148_DFT_B"
| 52> ! wB97X-D3 def2-TZVP TIGHTSCF CHELPG PMODEL
| 53>
| 54> %scf
| 55> MaxIter 1000
| 56> end
| 57>
| 58> * xyz 0 1
| 59>   C                    : 5.336748             -10.996211           4.260549
| 60>   O                    : 5.074167             -11.905412           3.179210
| 61>   H                    : 4.188795             -11.588379           2.888647
| 62>   H                    : 5.897180             -11.453866           5.076552
| 63>   H                    : 5.993802             -10.203456           3.843113
| 64>   H                    : 4.420244             -10.644865           4.688939
| 65>   C                      7.267881             -9.249310            0.379082
| 66>   O                      6.532941             -10.433667           0.124690
| 67>   H                      5.884201             -10.210428           -0.557404
| 68>   H                      7.896792             -9.465729            1.292165
| 69>   H                      8.034743             -9.052904            -0.346697
| 70>   H                      6.639650             -8.371010            0.421640
| 71> *
| 72>
| 73>                          ****END OF INPUT****
 Total Charge           Charge          ....    0
 Multiplicity           Mult            ....    1
 Number of Electrons    NEL             ....   36
Dispersion correction           -0.001213026
FINAL SINGLE POINT ENERGY      -231.463234056967
Dispersion correction           -0.000232007
FINAL SINGLE POINT ENERGY      -115.731549429798

CARTESIAN COORDINATES (ANGSTROEM)
---------------------------------
  C      5.336748  -10.996211    4.260549
  O      5.074167  -11.905412    3.179210
  H      4.188795  -11.588379    2.888647
  H      5.897180  -11.453866    5.076552
  H      5.993802  -10.203456    3.843113
  H      4.420244  -10.644865    4.688939
  C      7.267881   -9.249310    0.379082
  O      6.532941  -10.433667    0.124690
  H      5.884201  -10.210428   -0.557404
  H      7.896792   -9.465729    1.292165
  H      8.034743   -9.052904   -0.346697
  H      6.639650   -8.371010    0.421640

 Multiplicity           Mult            ....    1
 Number of Electrons    NEL             ....   18
 Basis Dimension        Dim             ....  172

ORBITAL ENERGIES
----------------

  NO   OCC          E(Eh)            E(eV)
   0   2.0000     -19.232112      -523.3324
   1   2.0000     -10.313038      -280.6320
   2   2.0000      -1.135463       -30.8975
   3   2.0000      -0.794646       -21.6234
   4   2.0000      -0.613744       -16.7008
   5   2.0000      -0.544705       -14.8222
   6   2.0000      -0.516564       -14.0564
   7   2.0000      -0.439641       -11.9632
   8   2.0000      -0.372179       -10.1275
   9   0.0000       0.093192         2.5359
  10   0.0000       0.118304         3.2192
  11   0.0000       0.150512         4.0956
  12   0.0000       0.180842         4.9210
  13   0.0000       0.186270         5.0687

MULLIKEN ATOMIC CHARGES
-----------------------
   0 C :   -0.000536
   1 O :   -0.000584
   2 H :   -0.000667
   3 H :    0.000002
   4 H :    0.000075
   5 H :    0.000037
   6 C :   -0.168504
   7 O :   -0.469334
   8 H :    0.311808
   9 H :    0.117906
  10 H :    0.103997
  11 H :    0.105800
Sum of atomic charges:    0.0000000

LOEWDIN ATOMIC CHARGES
----------------------
   0 C :   -0.000661
   1 O :   -0.001096
   2 H :   -0.000733
   3 H :   -0.000009
   4 H :   -0.000351
   5 H :   -0.000002
   6 C :   -0.388983
   7 O :   -0.080231
   8 H :    0.172263
   9 H :    0.118314
  10 H :    0.088988
  11 H :    0.092503

  Mayer bond orders larger than 0.1
B(  6-C ,  7-O ) :   1.0001 B(  6-C ,  9-H ) :   0.9772 B(  6-C , 10-H ) :   0.9697
B(  6-C , 11-H ) :   0.9779 B(  7-O ,  8-H ) :   0.9007

Dispersion correction           -0.000239839
FINAL SINGLE POINT ENERGY      -115.733081821528

DIPOLE MOMENT
-------------
                                X             Y             Z
Electronic contribution:     -0.97176      -1.51739      -0.24441
Nuclear contribution   :      0.86665       2.12616      -0.10440
                        -----------------------------------------
Total Dipole Moment    :     -0.10511       0.60878      -0.34881
                        -----------------------------------------
Magnitude (a.u.)       :      0.70945
Magnitude (Debye)      :      1.80329

Rotational constants in cm-1:     4.260320     0.837967     0.793076
Rotational constants in MHz : 127721.173752 25121.607360 23775.817894

                             ****ORCA TERMINATED NORMALLY****
TOTAL RUN TIME: 0 days 0 hours 1 minutes 4 seconds 545 msec
