                         Program Version 4.1.2  - RELEASE  -
|  1> #Run DFT-D3 single point of the dimer
|  2> ! wB97X-D3 def2-TZVP TIGHTSCF CHELPG PMODEL PAL8
|  3>
|  4> %base "2-77_DFT_AB"
|  5>
|  6> %scf
|  7> MaxIter 1000
|  8> end
|  9>
| 10> * xyz 0 1
| 11>   C                      -6.296488            0.198913             2.792889
| 12>   O                      -6.461516            -0.521665            1.555688
| 13>   H                      -5.961074            -1.353102            1.626890
| 14>   H                      -6.761771            -0.381322            3.663012
| 15>   H                      -5.261582            0.262228             3.149411
| 16>   H                      -6.779186            1.233509             2.736756
| 17>   C                      -8.273351            4.023112             6.240518
| 18>   O                      -9.300912            4.942072             6.423396
| 19>   H                      -9.664432            5.132391             5.548196
| 20>   H                      -7.827101            3.840207             7.217766
| 21>   H                      -8.727517            3.045804             5.920065
| 22>   H                      -7.568176            4.381873             5.668023
| 23> *
| 24>
| 25> #Run DFT-D3 single point of the molecule with dimer basis set
| 26> $new_job
| 27> %base "2-77_DFT_A"
| 28> ! wB97X-D3 def2-TZVP TIGHTSCF CHELPG PMODEL
| 29>
| 30> %scf
| 31> MaxIter 1000
| 32> end
| 33>
| 34> * xyz 0 1
| 35>   C                      -6.296488            0.198913             2.792889
| 36>   O                      -6.461516            -0.521665            1.555688
| 37>   H                      -5.961074            -1.353102            1.626890
| 38>   H                      -6.761771            -0.381322            3.663012
| 39>   H                      -5.261582            0.262228             3.149411
| 40>   H                      -6.779186            1.233509             2.736756
| 41>   C                    : -8.273351            4.023112             6.240518
| 42>   O                    : -9.300912            4.942072             6.423396
| 43>   H                    : -9.664432            5.132391             5.548196
| 44>   H                    : -7.827101            3.840207             7.217766
| 45>   H                    : -8.727517            3.045804             5.920065
| 46>   H                    : -7.568176            4.381873             5.668023
| 47> *
| 48>
| 49> #Run DFT-D3 single point of the particle with dimer basis set
| 50> $new_job
| 51> %base "2-77_DFT_B"
| 52> ! wB97X-D3 def2-TZVP TIGHTSCF CHELPG PMODEL
| 53>
| 54> %scf
| 55> MaxIter 1000
| 56> end
| 57>
| 58> * xyz 0 1
| 59>   C                    : -6.296488            0.198913             2.792889
| 60>   O                    : -6.461516            -0.521665            1.555688
| 61>   H                    : -5.961074            -1.353102            1.626890
| 62>   H                    : -6.761771            -0.381322            3.663012
| 63>   H                    : -5.261582            0.262228             3.149411
| 64>   H                    : -6.779186            1.233509             2.736756
| 65>   C                      -8.273351            4.023112             6.240518
| 66>   O                      -9.300912            4.942072             6.423396
| 67>   H                      -9.664432            5.132391             5.548196
| 68>   H                      -7.827101            3.840207             7.217766
| 69>   H                      -8.727517            3.045804             5.920065
| 70>   H                      -7.568176            4.381873             5.668023
| 71> *
| 72>
| 73>                          ****END OF INPUT****
 Total Charge           Charge          ....    0
 Multiplicity           Mult            ....    1
 Number of Electrons    NEL             ....   36
Dispersion correction           -0.000637638
FINAL SINGLE POINT ENERGY      -231.455372959182
Dispersion correction           -0.000270371
FINAL SINGLE POINT ENERGY      -115.730769967139

CARTESIAN COORDINATES (ANGSTROEM)
---------------------------------
  C     -6.296488    0.198913    2.792889
  O     -6.461516   -0.521665    1.555688
  H     -5.961074   -1.353102    1.626890
  H     -6.761771   -0.381322    3.663012
  H     -5.261582    0.262228    3.149411
  H     -6.779186    1.233509    2.736756
  C     -8.273351    4.023112    6.240518
  O     -9.300912    4.942072    6.423396
  H     -9.664432    5.132391    5.548196
  H     -7.827101    3.840207    7.217766
  H     -8.727517    3.045804    5.920065
  H     -7.568176    4.381873    5.668023

 Multiplicity           Mult            ....    1
 Number of Electrons    NEL             ....   18
 Basis Dimension        Dim             ....  172

ORBITAL ENERGIES
----------------

  NO   OCC          E(Eh)            E(eV)
   0   2.0000     -19.226483      -523.1792
   1   2.0000     -10.299104      -280.2529
   2   2.0000      -1.141374       -31.0584
   3   2.0000      -0.800506       -21.7829
   4   2.0000      -0.614304       -16.7161
   5   2.0000      -0.558784       -15.2053
   6   2.0000      -0.527150       -14.3445
   7   2.0000      -0.429041       -11.6748
   8   2.0000      -0.373151       -10.1540
   9   0.0000       0.082504         2.2450
  10   0.0000       0.116143         3.1604
  11   0.0000       0.145867         3.9692
  12   0.0000       0.174371         4.7449
  13   0.0000       0.189834         5.1657

MULLIKEN ATOMIC CHARGES
-----------------------
   0 C :    0.000068
   1 O :   -0.000002
   2 H :   -0.000000
   3 H :   -0.000034
   4 H :   -0.000007
   5 H :   -0.000152
   6 C :   -0.150689
   7 O :   -0.472826
   8 H :    0.312020
   9 H :    0.108525
  10 H :    0.089159
  11 H :    0.113939
Sum of atomic charges:   -0.0000000

LOEWDIN ATOMIC CHARGES
----------------------
   0 C :   -0.000051
   1 O :   -0.000001
   2 H :   -0.000000
   3 H :   -0.000014
   4 H :   -0.000001
   5 H :   -0.000064
   6 C :   -0.386150
   7 O :   -0.064722
   8 H :    0.173190
   9 H :    0.110855
  10 H :    0.102022
  11 H :    0.064935

  Mayer bond orders larger than 0.1
B(  6-C ,  7-O ) :   1.0010 B(  6-C ,  9-H ) :   0.9747 B(  6-C , 10-H ) :   0.9859
B(  6-C , 11-H ) :   0.9785 B(  7-O ,  8-H ) :   0.9001

Dispersion correction           -0.000204835
FINAL SINGLE POINT ENERGY      -115.724446669013

DIPOLE MOMENT
-------------
                                X             Y             Z
Electronic contribution:     -1.14630       1.24870       0.22629
Nuclear contribution   :      1.34912      -1.46281      -0.83969
                        -----------------------------------------
Total Dipole Moment    :      0.20282      -0.21411      -0.61340
                        -----------------------------------------
Magnitude (a.u.)       :      0.68062
Magnitude (Debye)      :      1.73000

Rotational constants in cm-1:     4.387175     0.866747     0.840265
Rotational constants in MHz : 131524.203762 25984.428427 25190.504669

                             ****ORCA TERMINATED NORMALLY****
TOTAL RUN TIME: 0 days 0 hours 5 minutes 59 seconds 835 msec
