                         Program Version 4.1.2  - RELEASE  -
|  1> #Run DFT-D3 single point of the dimer
|  2> ! wB97X-D3 def2-TZVP TIGHTSCF CHELPG PMODEL PAL8
|  3>
|  4> %base "15-81_DFT_AB"
|  5>
|  6> %scf
|  7> MaxIter 1000
|  8> end
|  9>
| 10> * xyz 0 1
| 11>   C                      3.160590             5.904719             1.409526
| 12>   O                      1.952229             6.513314             1.905539
| 13>   H                      2.203480             7.011722             2.707374
| 14>   H                      3.131705             5.037513             0.685736
| 15>   H                      3.800379             6.728786             1.090960
| 16>   H                      3.782874             5.542182             2.299754
| 17>   C                      5.561840             9.425816             -0.276154
| 18>   O                      6.689713             8.819843             -0.791196
| 19>   H                      6.817594             8.027454             -0.302918
| 20>   H                      5.761854             9.879597             0.725095
| 21>   H                      5.304196             10.222995            -1.050051
| 22>   H                      4.714096             8.755683             -0.068706
| 23> *
| 24>
| 25> #Run DFT-D3 single point of the molecule with dimer basis set
| 26> $new_job
| 27> %base "15-81_DFT_A"
| 28> ! wB97X-D3 def2-TZVP TIGHTSCF CHELPG PMODEL
| 29>
| 30> %scf
| 31> MaxIter 1000
| 32> end
| 33>
| 34> * xyz 0 1
| 35>   C                      3.160590             5.904719             1.409526
| 36>   O                      1.952229             6.513314             1.905539
| 37>   H                      2.203480             7.011722             2.707374
| 38>   H                      3.131705             5.037513             0.685736
| 39>   H                      3.800379             6.728786             1.090960
| 40>   H                      3.782874             5.542182             2.299754
| 41>   C                    : 5.561840             9.425816             -0.276154
| 42>   O                    : 6.689713             8.819843             -0.791196
| 43>   H                    : 6.817594             8.027454             -0.302918
| 44>   H                    : 5.761854             9.879597             0.725095
| 45>   H                    : 5.304196             10.222995            -1.050051
| 46>   H                    : 4.714096             8.755683             -0.068706
| 47> *
| 48>
| 49> #Run DFT-D3 single point of the particle with dimer basis set
| 50> $new_job
| 51> %base "15-81_DFT_B"
| 52> ! wB97X-D3 def2-TZVP TIGHTSCF CHELPG PMODEL
| 53>
| 54> %scf
| 55> MaxIter 1000
| 56> end
| 57>
| 58> * xyz 0 1
| 59>   C                    : 3.160590             5.904719             1.409526
| 60>   O                    : 1.952229             6.513314             1.905539
| 61>   H                    : 2.203480             7.011722             2.707374
| 62>   H                    : 3.131705             5.037513             0.685736
| 63>   H                    : 3.800379             6.728786             1.090960
| 64>   H                    : 3.782874             5.542182             2.299754
| 65>   C                      5.561840             9.425816             -0.276154
| 66>   O                      6.689713             8.819843             -0.791196
| 67>   H                      6.817594             8.027454             -0.302918
| 68>   H                      5.761854             9.879597             0.725095
| 69>   H                      5.304196             10.222995            -1.050051
| 70>   H                      4.714096             8.755683             -0.068706
| 71> *
| 72>
| 73>                          ****END OF INPUT****
 Total Charge           Charge          ....    0
 Multiplicity           Mult            ....    1
 Number of Electrons    NEL             ....   36
Dispersion correction           -0.001106116
FINAL SINGLE POINT ENERGY      -231.456132477434
Dispersion correction           -0.000248475
FINAL SINGLE POINT ENERGY      -115.723610312012

CARTESIAN COORDINATES (ANGSTROEM)
---------------------------------
  C      3.160590    5.904719    1.409526
  O      1.952229    6.513314    1.905539
  H      2.203480    7.011722    2.707374
  H      3.131705    5.037513    0.685736
  H      3.800379    6.728786    1.090960
  H      3.782874    5.542182    2.299754
  C      5.561840    9.425816   -0.276154
  O      6.689713    8.819843   -0.791196
  H      6.817594    8.027454   -0.302918
  H      5.761854    9.879597    0.725095
  H      5.304196   10.222995   -1.050051
  H      4.714096    8.755683   -0.068706

 Multiplicity           Mult            ....    1
 Number of Electrons    NEL             ....   18
 Basis Dimension        Dim             ....  172

ORBITAL ENERGIES
----------------

  NO   OCC          E(Eh)            E(eV)
   0   2.0000     -19.230150      -523.2790
   1   2.0000     -10.317775      -280.7609
   2   2.0000      -1.153679       -31.3932
   3   2.0000      -0.789578       -21.4855
   4   2.0000      -0.625462       -17.0197
   5   2.0000      -0.537561       -14.6278
   6   2.0000      -0.523894       -14.2559
   7   2.0000      -0.438416       -11.9299
   8   2.0000      -0.370319       -10.0769
   9   0.0000       0.077605         2.1117
  10   0.0000       0.119503         3.2519
  11   0.0000       0.153003         4.1634
  12   0.0000       0.166585         4.5330
  13   0.0000       0.182388         4.9630

MULLIKEN ATOMIC CHARGES
-----------------------
   0 C :   -0.003007
   1 O :    0.000093
   2 H :    0.000031
   3 H :   -0.000011
   4 H :    0.004846
   5 H :    0.000105
   6 C :   -0.158796
   7 O :   -0.455913
   8 H :    0.308556
   9 H :    0.090265
  10 H :    0.119108
  11 H :    0.094722
Sum of atomic charges:    0.0000000

LOEWDIN ATOMIC CHARGES
----------------------
   0 C :   -0.001068
   1 O :   -0.000007
   2 H :   -0.000009
   3 H :   -0.000008
   4 H :   -0.003015
   5 H :   -0.000005
   6 C :   -0.419399
   7 O :   -0.041220
   8 H :    0.157794
   9 H :    0.094452
  10 H :    0.119579
  11 H :    0.092906

  Mayer bond orders larger than 0.1
B(  6-C ,  7-O ) :   1.0017 B(  6-C ,  9-H ) :   0.9740 B(  6-C , 10-H ) :   0.9763
B(  6-C , 11-H ) :   0.9692 B(  7-O ,  8-H ) :   0.9056

Dispersion correction           -0.000229524
FINAL SINGLE POINT ENERGY      -115.732347261948

DIPOLE MOMENT
-------------
                                X             Y             Z
Electronic contribution:      1.49245      -0.77212      -0.79878
Nuclear contribution   :     -1.81784       0.46087       1.29571
                        -----------------------------------------
Total Dipole Moment    :     -0.32539      -0.31125       0.49693
                        -----------------------------------------
Magnitude (a.u.)       :      0.67059
Magnitude (Debye)      :      1.70451

Rotational constants in cm-1:     4.134649     0.871670     0.827629
Rotational constants in MHz : 123953.664906 26132.022366 24811.707210

                             ****ORCA TERMINATED NORMALLY****
TOTAL RUN TIME: 0 days 0 hours 1 minutes 4 seconds 547 msec
