                         Program Version 4.1.2  - RELEASE  -
|  1> #Run DFT-D3 single point of the dimer
|  2> ! wB97X-D3 def2-TZVP TIGHTSCF CHELPG PMODEL PAL8
|  3>
|  4> %base "3-75_DFT_AB"
|  5>
|  6> %scf
|  7> MaxIter 1000
|  8> end
|  9>
| 10> * xyz 0 1
| 11>   C                      -4.944868            -6.379908            -6.736573
| 12>   O                      -6.142319            -5.643729            -6.610150
| 13>   H                      -6.328640            -5.442620            -7.501184
| 14>   H                      -4.130525            -5.985907            -6.044649
| 15>   H                      -5.172011            -7.357734            -6.328079
| 16>   H                      -4.478197            -6.584611            -7.685240
| 17>   C                      -2.163569            -4.260200            -5.067871
| 18>   O                      -2.162828            -4.313775            -6.512630
| 19>   H                      -1.241116            -4.481770            -6.787903
| 20>   H                      -2.978172            -3.697090            -4.729438
| 21>   H                      -2.359270            -5.261161            -4.629483
| 22>   H                      -1.257880            -3.868997            -4.675143
| 23> *
| 24>
| 25> #Run DFT-D3 single point of the molecule with dimer basis set
| 26> $new_job
| 27> %base "3-75_DFT_A"
| 28> ! wB97X-D3 def2-TZVP TIGHTSCF CHELPG PMODEL
| 29>
| 30> %scf
| 31> MaxIter 1000
| 32> end
| 33>
| 34> * xyz 0 1
| 35>   C                      -4.944868            -6.379908            -6.736573
| 36>   O                      -6.142319            -5.643729            -6.610150
| 37>   H                      -6.328640            -5.442620            -7.501184
| 38>   H                      -4.130525            -5.985907            -6.044649
| 39>   H                      -5.172011            -7.357734            -6.328079
| 40>   H                      -4.478197            -6.584611            -7.685240
| 41>   C                    : -2.163569            -4.260200            -5.067871
| 42>   O                    : -2.162828            -4.313775            -6.512630
| 43>   H                    : -1.241116            -4.481770            -6.787903
| 44>   H                    : -2.978172            -3.697090            -4.729438
| 45>   H                    : -2.359270            -5.261161            -4.629483
| 46>   H                    : -1.257880            -3.868997            -4.675143
| 47> *
| 48>
| 49> #Run DFT-D3 single point of the particle with dimer basis set
| 50> $new_job
| 51> %base "3-75_DFT_B"
| 52> ! wB97X-D3 def2-TZVP TIGHTSCF CHELPG PMODEL
| 53>
| 54> %scf
| 55> MaxIter 1000
| 56> end
| 57>
| 58> * xyz 0 1
| 59>   C                    : -4.944868            -6.379908            -6.736573
| 60>   O                    : -6.142319            -5.643729            -6.610150
| 61>   H                    : -6.328640            -5.442620            -7.501184
| 62>   H                    : -4.130525            -5.985907            -6.044649
| 63>   H                    : -5.172011            -7.357734            -6.328079
| 64>   H                    : -4.478197            -6.584611            -7.685240
| 65>   C                      -2.163569            -4.260200            -5.067871
| 66>   O                      -2.162828            -4.313775            -6.512630
| 67>   H                      -1.241116            -4.481770            -6.787903
| 68>   H                      -2.978172            -3.697090            -4.729438
| 69>   H                      -2.359270            -5.261161            -4.629483
| 70>   H                      -1.257880            -3.868997            -4.675143
| 71> *
| 72>
| 73>                          ****END OF INPUT****
 Total Charge           Charge          ....    0
 Multiplicity           Mult            ....    1
 Number of Electrons    NEL             ....   36
Dispersion correction           -0.001721313
FINAL SINGLE POINT ENERGY      -231.461110561232
Dispersion correction           -0.000252383
FINAL SINGLE POINT ENERGY      -115.726816287169

CARTESIAN COORDINATES (ANGSTROEM)
---------------------------------
  C     -4.944868   -6.379908   -6.736573
  O     -6.142319   -5.643729   -6.610150
  H     -6.328640   -5.442620   -7.501184
  H     -4.130525   -5.985907   -6.044649
  H     -5.172011   -7.357734   -6.328079
  H     -4.478197   -6.584611   -7.685240
  C     -2.163569   -4.260200   -5.067871
  O     -2.162828   -4.313775   -6.512630
  H     -1.241116   -4.481770   -6.787903
  H     -2.978172   -3.697090   -4.729438
  H     -2.359270   -5.261161   -4.629483
  H     -1.257880   -3.868997   -4.675143

 Multiplicity           Mult            ....    1
 Number of Electrons    NEL             ....   18
 Basis Dimension        Dim             ....  172

ORBITAL ENERGIES
----------------

  NO   OCC          E(Eh)            E(eV)
   0   2.0000     -19.231928      -523.3274
   1   2.0000     -10.308575      -280.5106
   2   2.0000      -1.124000       -30.5856
   3   2.0000      -0.801442       -21.8084
   4   2.0000      -0.605355       -16.4725
   5   2.0000      -0.536302       -14.5935
   6   2.0000      -0.528802       -14.3894
   7   2.0000      -0.441290       -12.0081
   8   2.0000      -0.373003       -10.1499
   9   0.0000       0.095198         2.5905
  10   0.0000       0.121889         3.3168
  11   0.0000       0.150416         4.0930
  12   0.0000       0.175313         4.7705
  13   0.0000       0.197828         5.3832

MULLIKEN ATOMIC CHARGES
-----------------------
   0 C :   -0.006895
   1 O :   -0.000173
   2 H :   -0.000066
   3 H :    0.011070
   4 H :    0.000211
   5 H :   -0.001477
   6 C :   -0.183767
   7 O :   -0.476938
   8 H :    0.313424
   9 H :    0.123889
  10 H :    0.101961
  11 H :    0.118760
Sum of atomic charges:    0.0000000

LOEWDIN ATOMIC CHARGES
----------------------
   0 C :   -0.006882
   1 O :   -0.000020
   2 H :   -0.000020
   3 H :   -0.006971
   4 H :   -0.000041
   5 H :   -0.001034
   6 C :   -0.355062
   7 O :   -0.096765
   8 H :    0.176159
   9 H :    0.097521
  10 H :    0.101707
  11 H :    0.091408

  Mayer bond orders larger than 0.1
B(  6-C ,  7-O ) :   1.0015 B(  6-C ,  9-H ) :   0.9791 B(  6-C , 10-H ) :   0.9796
B(  6-C , 11-H ) :   0.9760 B(  7-O ,  8-H ) :   0.8997

Dispersion correction           -0.000251656
FINAL SINGLE POINT ENERGY      -115.733217861693

DIPOLE MOMENT
-------------
                                X             Y             Z
Electronic contribution:     -0.09063       0.06450      -1.81060
Nuclear contribution   :      0.66896      -0.11986       2.24525
                        -----------------------------------------
Total Dipole Moment    :      0.57834      -0.05536       0.43465
                        -----------------------------------------
Magnitude (a.u.)       :      0.72557
Magnitude (Debye)      :      1.84425

Rotational constants in cm-1:     4.409093     0.804526     0.774814
Rotational constants in MHz : 132181.269078 24119.094459 23228.339773

                             ****ORCA TERMINATED NORMALLY****
TOTAL RUN TIME: 0 days 0 hours 6 minutes 22 seconds 269 msec
