                         Program Version 4.1.2  - RELEASE  -
|  1> #Run DFT-D3 single point of the dimer
|  2> ! wB97X-D3 def2-TZVP TIGHTSCF CHELPG PMODEL PAL8
|  3>
|  4> %base "4-173_DFT_AB"
|  5>
|  6> %scf
|  7> MaxIter 1000
|  8> end
|  9>
| 10> * xyz 0 1
| 11>   C                      9.897088             -6.106647            -1.344404
| 12>   O                      8.894205             -6.210218            -0.357511
| 13>   H                      8.365926             -5.424265            -0.546781
| 14>   H                      9.837343             -6.958201            -2.012444
| 15>   H                      9.795360             -5.159881            -1.911323
| 16>   H                      10.927268            -6.047717            -0.936030
| 17>   C                      6.653464             -6.406812            -3.520357
| 18>   O                      6.886541             -5.325754            -4.405372
| 19>   H                      7.348178             -4.703357            -3.858006
| 20>   H                      6.387846             -7.279987            -4.088439
| 21>   H                      7.540144             -6.632166            -2.917996
| 22>   H                      5.851907             -6.189772            -2.805827
| 23> *
| 24>
| 25> #Run DFT-D3 single point of the molecule with dimer basis set
| 26> $new_job
| 27> %base "4-173_DFT_A"
| 28> ! wB97X-D3 def2-TZVP TIGHTSCF CHELPG PMODEL
| 29>
| 30> %scf
| 31> MaxIter 1000
| 32> end
| 33>
| 34> * xyz 0 1
| 35>   C                      9.897088             -6.106647            -1.344404
| 36>   O                      8.894205             -6.210218            -0.357511
| 37>   H                      8.365926             -5.424265            -0.546781
| 38>   H                      9.837343             -6.958201            -2.012444
| 39>   H                      9.795360             -5.159881            -1.911323
| 40>   H                      10.927268            -6.047717            -0.936030
| 41>   C                    : 6.653464             -6.406812            -3.520357
| 42>   O                    : 6.886541             -5.325754            -4.405372
| 43>   H                    : 7.348178             -4.703357            -3.858006
| 44>   H                    : 6.387846             -7.279987            -4.088439
| 45>   H                    : 7.540144             -6.632166            -2.917996
| 46>   H                    : 5.851907             -6.189772            -2.805827
| 47> *
| 48>
| 49> #Run DFT-D3 single point of the particle with dimer basis set
| 50> $new_job
| 51> %base "4-173_DFT_B"
| 52> ! wB97X-D3 def2-TZVP TIGHTSCF CHELPG PMODEL
| 53>
| 54> %scf
| 55> MaxIter 1000
| 56> end
| 57>
| 58> * xyz 0 1
| 59>   C                    : 9.897088             -6.106647            -1.344404
| 60>   O                    : 8.894205             -6.210218            -0.357511
| 61>   H                    : 8.365926             -5.424265            -0.546781
| 62>   H                    : 9.837343             -6.958201            -2.012444
| 63>   H                    : 9.795360             -5.159881            -1.911323
| 64>   H                    : 10.927268            -6.047717            -0.936030
| 65>   C                      6.653464             -6.406812            -3.520357
| 66>   O                      6.886541             -5.325754            -4.405372
| 67>   H                      7.348178             -4.703357            -3.858006
| 68>   H                      6.387846             -7.279987            -4.088439
| 69>   H                      7.540144             -6.632166            -2.917996
| 70>   H                      5.851907             -6.189772            -2.805827
| 71> *
| 72>
| 73>                          ****END OF INPUT****
 Total Charge           Charge          ....    0
 Multiplicity           Mult            ....    1
 Number of Electrons    NEL             ....   36
Dispersion correction           -0.001865589
FINAL SINGLE POINT ENERGY      -231.469531500876
Dispersion correction           -0.000237367
FINAL SINGLE POINT ENERGY      -115.732999348472

CARTESIAN COORDINATES (ANGSTROEM)
---------------------------------
  C      9.897088   -6.106647   -1.344404
  O      8.894205   -6.210218   -0.357511
  H      8.365926   -5.424265   -0.546781
  H      9.837343   -6.958201   -2.012444
  H      9.795360   -5.159881   -1.911323
  H     10.927268   -6.047717   -0.936030
  C      6.653464   -6.406812   -3.520357
  O      6.886541   -5.325754   -4.405372
  H      7.348178   -4.703357   -3.858006
  H      6.387846   -7.279987   -4.088439
  H      7.540144   -6.632166   -2.917996
  H      5.851907   -6.189772   -2.805827

 Multiplicity           Mult            ....    1
 Number of Electrons    NEL             ....   18
 Basis Dimension        Dim             ....  172

ORBITAL ENERGIES
----------------

  NO   OCC          E(Eh)            E(eV)
   0   2.0000     -19.230690      -523.2937
   1   2.0000     -10.311221      -280.5826
   2   2.0000      -1.141451       -31.0605
   3   2.0000      -0.795406       -21.6441
   4   2.0000      -0.613150       -16.6847
   5   2.0000      -0.539873       -14.6907
   6   2.0000      -0.528027       -14.3683
   7   2.0000      -0.443496       -12.0681
   8   2.0000      -0.373937       -10.1753
   9   0.0000       0.073439         1.9984
  10   0.0000       0.128618         3.4999
  11   0.0000       0.150640         4.0991
  12   0.0000       0.164973         4.4891
  13   0.0000       0.190274         5.1776

MULLIKEN ATOMIC CHARGES
-----------------------
   0 C :    0.004308
   1 O :   -0.000587
   2 H :   -0.000297
   3 H :   -0.000525
   4 H :   -0.000828
   5 H :    0.000333
   6 C :   -0.165789
   7 O :   -0.463123
   8 H :    0.310790
   9 H :    0.123163
  10 H :    0.090465
  11 H :    0.102090
Sum of atomic charges:    0.0000000

LOEWDIN ATOMIC CHARGES
----------------------
   0 C :   -0.007162
   1 O :   -0.000986
   2 H :   -0.000975
   3 H :   -0.002734
   4 H :   -0.000684
   5 H :   -0.000051
   6 C :   -0.379885
   7 O :   -0.070547
   8 H :    0.163381
   9 H :    0.104549
  10 H :    0.099833
  11 H :    0.095262

  Mayer bond orders larger than 0.1
B(  6-C ,  7-O ) :   0.9986 B(  6-C ,  9-H ) :   0.9760 B(  6-C , 10-H ) :   0.9789
B(  6-C , 11-H ) :   0.9761 B(  7-O ,  8-H ) :   0.9072

Dispersion correction           -0.000223797
FINAL SINGLE POINT ENERGY      -115.736029680185

DIPOLE MOMENT
-------------
                                X             Y             Z
Electronic contribution:      0.21989       1.30401      -1.30756
Nuclear contribution   :     -0.01353      -1.34393       1.98878
                        -----------------------------------------
Total Dipole Moment    :      0.20636      -0.03991       0.68122
                        -----------------------------------------
Magnitude (a.u.)       :      0.71291
Magnitude (Debye)      :      1.81207

Rotational constants in cm-1:     4.300083     0.837780     0.804539
Rotational constants in MHz : 128913.233073 25116.007835 24119.460077

                             ****ORCA TERMINATED NORMALLY****
TOTAL RUN TIME: 0 days 0 hours 1 minutes 31 seconds 794 msec
