                         Program Version 4.1.2  - RELEASE  -
|  1> #Run DFT-D3 single point of the dimer
|  2> ! wB97X-D3 def2-TZVP TIGHTSCF CHELPG PMODEL PAL8
|  3>
|  4> %base "20-192_DFT_AB"
|  5>
|  6> %scf
|  7> MaxIter 1000
|  8> end
|  9>
| 10> * xyz 0 1
| 11>   C                      -4.759656            -6.190270            -7.004272
| 12>   O                      -5.347243            -5.966209            -5.743579
| 13>   H                      -5.784533            -5.115459            -5.833715
| 14>   H                      -3.736183            -6.582372            -6.809249
| 15>   H                      -5.362966            -6.858422            -7.595193
| 16>   H                      -4.840306            -5.280096            -7.597706
| 17>   C                      -8.079077            -3.785707            -5.508851
| 18>   O                      -6.714691            -3.486116            -5.848100
| 19>   H                      -6.723623            -2.813161            -6.595883
| 20>   H                      -8.103429            -4.614727            -4.728990
| 21>   H                      -8.547174            -2.871966            -5.034462
| 22>   H                      -8.627026            -4.078073            -6.404288
| 23> *
| 24>
| 25> #Run DFT-D3 single point of the molecule with dimer basis set
| 26> $new_job
| 27> %base "20-192_DFT_A"
| 28> ! wB97X-D3 def2-TZVP TIGHTSCF CHELPG PMODEL
| 29>
| 30> %scf
| 31> MaxIter 1000
| 32> end
| 33>
| 34> * xyz 0 1
| 35>   C                      -4.759656            -6.190270            -7.004272
| 36>   O                      -5.347243            -5.966209            -5.743579
| 37>   H                      -5.784533            -5.115459            -5.833715
| 38>   H                      -3.736183            -6.582372            -6.809249
| 39>   H                      -5.362966            -6.858422            -7.595193
| 40>   H                      -4.840306            -5.280096            -7.597706
| 41>   C                    : -8.079077            -3.785707            -5.508851
| 42>   O                    : -6.714691            -3.486116            -5.848100
| 43>   H                    : -6.723623            -2.813161            -6.595883
| 44>   H                    : -8.103429            -4.614727            -4.728990
| 45>   H                    : -8.547174            -2.871966            -5.034462
| 46>   H                    : -8.627026            -4.078073            -6.404288
| 47> *
| 48>
| 49> #Run DFT-D3 single point of the particle with dimer basis set
| 50> $new_job
| 51> %base "20-192_DFT_B"
| 52> ! wB97X-D3 def2-TZVP TIGHTSCF CHELPG PMODEL
| 53>
| 54> %scf
| 55> MaxIter 1000
| 56> end
| 57>
| 58> * xyz 0 1
| 59>   C                    : -4.759656            -6.190270            -7.004272
| 60>   O                    : -5.347243            -5.966209            -5.743579
| 61>   H                    : -5.784533            -5.115459            -5.833715
| 62>   H                    : -3.736183            -6.582372            -6.809249
| 63>   H                    : -5.362966            -6.858422            -7.595193
| 64>   H                    : -4.840306            -5.280096            -7.597706
| 65>   C                      -8.079077            -3.785707            -5.508851
| 66>   O                      -6.714691            -3.486116            -5.848100
| 67>   H                      -6.723623            -2.813161            -6.595883
| 68>   H                      -8.103429            -4.614727            -4.728990
| 69>   H                      -8.547174            -2.871966            -5.034462
| 70>   H                      -8.627026            -4.078073            -6.404288
| 71> *
| 72>
| 73>                          ****END OF INPUT****
 Total Charge           Charge          ....    0
 Multiplicity           Mult            ....    1
 Number of Electrons    NEL             ....   36
Dispersion correction           -0.001846376
FINAL SINGLE POINT ENERGY      -231.473074697687
Dispersion correction           -0.000221862
FINAL SINGLE POINT ENERGY      -115.731234579773

CARTESIAN COORDINATES (ANGSTROEM)
---------------------------------
  C     -4.759656   -6.190270   -7.004272
  O     -5.347243   -5.966209   -5.743579
  H     -5.784533   -5.115459   -5.833715
  H     -3.736183   -6.582372   -6.809249
  H     -5.362966   -6.858422   -7.595193
  H     -4.840306   -5.280096   -7.597706
  C     -8.079077   -3.785707   -5.508851
  O     -6.714691   -3.486116   -5.848100
  H     -6.723623   -2.813161   -6.595883
  H     -8.103429   -4.614727   -4.728990
  H     -8.547174   -2.871966   -5.034462
  H     -8.627026   -4.078073   -6.404288

 Multiplicity           Mult            ....    1
 Number of Electrons    NEL             ....   18
 Basis Dimension        Dim             ....  172

ORBITAL ENERGIES
----------------

  NO   OCC          E(Eh)            E(eV)
   0   2.0000     -19.233759      -523.3772
   1   2.0000     -10.323514      -280.9171
   2   2.0000      -1.121140       -30.5078
   3   2.0000      -0.785664       -21.3790
   4   2.0000      -0.598937       -16.2979
   5   2.0000      -0.539336       -14.6761
   6   2.0000      -0.520318       -14.1586
   7   2.0000      -0.431475       -11.7410
   8   2.0000      -0.372015       -10.1231
   9   0.0000       0.095191         2.5903
  10   0.0000       0.123074         3.3490
  11   0.0000       0.147003         4.0002
  12   0.0000       0.183721         4.9993
  13   0.0000       0.197624         5.3776

MULLIKEN ATOMIC CHARGES
-----------------------
   0 C :    0.000604
   1 O :   -0.004382
   2 H :    0.005299
   3 H :   -0.000315
   4 H :   -0.000083
   5 H :   -0.005600
   6 C :   -0.170348
   7 O :   -0.478159
   8 H :    0.314965
   9 H :    0.122611
  10 H :    0.103726
  11 H :    0.111682
Sum of atomic charges:   -0.0000000

LOEWDIN ATOMIC CHARGES
----------------------
   0 C :   -0.004162
   1 O :   -0.005398
   2 H :   -0.046184
   3 H :   -0.000069
   4 H :   -0.000059
   5 H :   -0.002534
   6 C :   -0.375846
   7 O :   -0.071566
   8 H :    0.191978
   9 H :    0.118001
  10 H :    0.102008
  11 H :    0.093831

  Mayer bond orders larger than 0.1
B(  6-C ,  7-O ) :   0.9816 B(  6-C ,  9-H ) :   0.9741 B(  6-C , 10-H ) :   0.9708
B(  6-C , 11-H ) :   0.9735 B(  7-O ,  8-H ) :   0.8908

Dispersion correction           -0.000252081
FINAL SINGLE POINT ENERGY      -115.732799403244

DIPOLE MOMENT
-------------
                                X             Y             Z
Electronic contribution:      1.72713       0.22114      -0.35629
Nuclear contribution   :     -2.28821       0.06781       0.03628
                        -----------------------------------------
Total Dipole Moment    :     -0.56108       0.28895      -0.32001
                        -----------------------------------------
Magnitude (a.u.)       :      0.70761
Magnitude (Debye)      :      1.79860

Rotational constants in cm-1:     4.007736     0.807898     0.776471
Rotational constants in MHz : 120148.905524 24220.175500 23278.000248

                             ****ORCA TERMINATED NORMALLY****
TOTAL RUN TIME: 0 days 0 hours 1 minutes 9 seconds 391 msec
