                         Program Version 4.1.2  - RELEASE  -
|  1> #Run DFT-D3 single point of the dimer
|  2> ! wB97X-D3 def2-TZVP TIGHTSCF CHELPG PMODEL PAL8
|  3>
|  4> %base "5-182_DFT_AB"
|  5>
|  6> %scf
|  7> MaxIter 1000
|  8> end
|  9>
| 10> * xyz 0 1
| 11>   C                      4.825682             7.265460             -7.768343
| 12>   O                      5.779126             6.637788             -8.583471
| 13>   H                      5.473405             5.795427             -8.867875
| 14>   H                      3.981013             6.698831             -7.377648
| 15>   H                      5.229040             7.730813             -6.949969
| 16>   H                      4.305574             7.995859             -8.454281
| 17>   C                      6.677897             3.680953             -10.009311
| 18>   O                      5.601949             3.338755             -9.115723
| 19>   H                      5.015415             2.754194             -9.571947
| 20>   H                      7.225566             2.797239             -10.323432
| 21>   H                      6.255010             4.209416             -10.893649
| 22>   H                      7.307395             4.413736             -9.506670
| 23> *
| 24>
| 25> #Run DFT-D3 single point of the molecule with dimer basis set
| 26> $new_job
| 27> %base "5-182_DFT_A"
| 28> ! wB97X-D3 def2-TZVP TIGHTSCF CHELPG PMODEL
| 29>
| 30> %scf
| 31> MaxIter 1000
| 32> end
| 33>
| 34> * xyz 0 1
| 35>   C                      4.825682             7.265460             -7.768343
| 36>   O                      5.779126             6.637788             -8.583471
| 37>   H                      5.473405             5.795427             -8.867875
| 38>   H                      3.981013             6.698831             -7.377648
| 39>   H                      5.229040             7.730813             -6.949969
| 40>   H                      4.305574             7.995859             -8.454281
| 41>   C                    : 6.677897             3.680953             -10.009311
| 42>   O                    : 5.601949             3.338755             -9.115723
| 43>   H                    : 5.015415             2.754194             -9.571947
| 44>   H                    : 7.225566             2.797239             -10.323432
| 45>   H                    : 6.255010             4.209416             -10.893649
| 46>   H                    : 7.307395             4.413736             -9.506670
| 47> *
| 48>
| 49> #Run DFT-D3 single point of the particle with dimer basis set
| 50> $new_job
| 51> %base "5-182_DFT_B"
| 52> ! wB97X-D3 def2-TZVP TIGHTSCF CHELPG PMODEL
| 53>
| 54> %scf
| 55> MaxIter 1000
| 56> end
| 57>
| 58> * xyz 0 1
| 59>   C                    : 4.825682             7.265460             -7.768343
| 60>   O                    : 5.779126             6.637788             -8.583471
| 61>   H                    : 5.473405             5.795427             -8.867875
| 62>   H                    : 3.981013             6.698831             -7.377648
| 63>   H                    : 5.229040             7.730813             -6.949969
| 64>   H                    : 4.305574             7.995859             -8.454281
| 65>   C                      6.677897             3.680953             -10.009311
| 66>   O                      5.601949             3.338755             -9.115723
| 67>   H                      5.015415             2.754194             -9.571947
| 68>   H                      7.225566             2.797239             -10.323432
| 69>   H                      6.255010             4.209416             -10.893649
| 70>   H                      7.307395             4.413736             -9.506670
| 71> *
| 72>
| 73>                          ****END OF INPUT****
 Total Charge           Charge          ....    0
 Multiplicity           Mult            ....    1
 Number of Electrons    NEL             ....   36
Dispersion correction           -0.001665765
FINAL SINGLE POINT ENERGY      -231.468848296766
Dispersion correction           -0.000251494
FINAL SINGLE POINT ENERGY      -115.727459837536

CARTESIAN COORDINATES (ANGSTROEM)
---------------------------------
  C      4.825682    7.265460   -7.768343
  O      5.779126    6.637788   -8.583471
  H      5.473405    5.795427   -8.867875
  H      3.981013    6.698831   -7.377648
  H      5.229040    7.730813   -6.949969
  H      4.305574    7.995859   -8.454281
  C      6.677897    3.680953  -10.009311
  O      5.601949    3.338755   -9.115723
  H      5.015415    2.754194   -9.571947
  H      7.225566    2.797239  -10.323432
  H      6.255010    4.209416  -10.893649
  H      7.307395    4.413736   -9.506670

 Multiplicity           Mult            ....    1
 Number of Electrons    NEL             ....   18
 Basis Dimension        Dim             ....  172

ORBITAL ENERGIES
----------------

  NO   OCC          E(Eh)            E(eV)
   0   2.0000     -19.226521      -523.1802
   1   2.0000     -10.316207      -280.7183
   2   2.0000      -1.130345       -30.7582
   3   2.0000      -0.796421       -21.6717
   4   2.0000      -0.605659       -16.4808
   5   2.0000      -0.542887       -14.7727
   6   2.0000      -0.523423       -14.2431
   7   2.0000      -0.435215       -11.8428
   8   2.0000      -0.373936       -10.1753
   9   0.0000       0.094415         2.5692
  10   0.0000       0.120740         3.2855
  11   0.0000       0.152286         4.1439
  12   0.0000       0.186129         5.0648
  13   0.0000       0.195721         5.3258

MULLIKEN ATOMIC CHARGES
-----------------------
   0 C :   -0.000535
   1 O :   -0.001029
   2 H :    0.001577
   3 H :   -0.000428
   4 H :   -0.000032
   5 H :    0.000042
   6 C :   -0.176288
   7 O :   -0.481847
   8 H :    0.308937
   9 H :    0.119026
  10 H :    0.104096
  11 H :    0.126482
Sum of atomic charges:    0.0000000

LOEWDIN ATOMIC CHARGES
----------------------
   0 C :   -0.000565
   1 O :   -0.001803
   2 H :   -0.012334
   3 H :   -0.000149
   4 H :   -0.000005
   5 H :   -0.000003
   6 C :   -0.362078
   7 O :   -0.083696
   8 H :    0.154905
   9 H :    0.095040
  10 H :    0.100581
  11 H :    0.110108

  Mayer bond orders larger than 0.1
B(  6-C ,  7-O ) :   0.9790 B(  6-C ,  9-H ) :   0.9699 B(  6-C , 10-H ) :   0.9808
B(  6-C , 11-H ) :   0.9756 B(  7-O ,  8-H ) :   0.9043

Dispersion correction           -0.000240183
FINAL SINGLE POINT ENERGY      -115.736251392283

DIPOLE MOMENT
-------------
                                X             Y             Z
Electronic contribution:     -1.18612      -0.41744       1.22162
Nuclear contribution   :      1.26371       0.18849      -1.87961
                        -----------------------------------------
Total Dipole Moment    :      0.07759      -0.22895      -0.65799
                        -----------------------------------------
Magnitude (a.u.)       :      0.70099
Magnitude (Debye)      :      1.78177

Rotational constants in cm-1:     4.237345     0.811459     0.785376
Rotational constants in MHz : 127032.420454 24326.936084 23544.965546

                             ****ORCA TERMINATED NORMALLY****
TOTAL RUN TIME: 0 days 0 hours 0 minutes 55 seconds 748 msec
