                         Program Version 4.1.2  - RELEASE  -
|  1> #Run DFT-D3 single point of the dimer
|  2> ! wB97X-D3 def2-TZVP TIGHTSCF CHELPG PMODEL PAL8
|  3>
|  4> %base "15-4_DFT_AB"
|  5>
|  6> %scf
|  7> MaxIter 1000
|  8> end
|  9>
| 10> * xyz 0 1
| 11>   C                      -6.481891            -7.877271            7.250222
| 12>   O                      -6.198547            -6.565036            6.837370
| 13>   H                      -6.806889            -6.005382            7.336781
| 14>   H                      -7.552956            -8.073217            7.112625
| 15>   H                      -5.784904            -8.580147            6.772301
| 16>   H                      -6.373916            -7.930089            8.316778
| 17>   C                      -9.116785            -10.529664           3.622843
| 18>   O                      -9.172273            -11.566663           4.534592
| 19>   H                      -9.388922            -11.088376           5.359630
| 20>   H                      -10.125791           -10.028202           3.430888
| 21>   H                      -8.407909            -9.813858            3.978789
| 22>   H                      -8.726457            -10.831544           2.693220
| 23> *
| 24>
| 25> #Run DFT-D3 single point of the molecule with dimer basis set
| 26> $new_job
| 27> %base "15-4_DFT_A"
| 28> ! wB97X-D3 def2-TZVP TIGHTSCF CHELPG PMODEL
| 29>
| 30> %scf
| 31> MaxIter 1000
| 32> end
| 33>
| 34> * xyz 0 1
| 35>   C                      -6.481891            -7.877271            7.250222
| 36>   O                      -6.198547            -6.565036            6.837370
| 37>   H                      -6.806889            -6.005382            7.336781
| 38>   H                      -7.552956            -8.073217            7.112625
| 39>   H                      -5.784904            -8.580147            6.772301
| 40>   H                      -6.373916            -7.930089            8.316778
| 41>   C                    : -9.116785            -10.529664           3.622843
| 42>   O                    : -9.172273            -11.566663           4.534592
| 43>   H                    : -9.388922            -11.088376           5.359630
| 44>   H                    : -10.125791           -10.028202           3.430888
| 45>   H                    : -8.407909            -9.813858            3.978789
| 46>   H                    : -8.726457            -10.831544           2.693220
| 47> *
| 48>
| 49> #Run DFT-D3 single point of the particle with dimer basis set
| 50> $new_job
| 51> %base "15-4_DFT_B"
| 52> ! wB97X-D3 def2-TZVP TIGHTSCF CHELPG PMODEL
| 53>
| 54> %scf
| 55> MaxIter 1000
| 56> end
| 57>
| 58> * xyz 0 1
| 59>   C                    : -6.481891            -7.877271            7.250222
| 60>   O                    : -6.198547            -6.565036            6.837370
| 61>   H                    : -6.806889            -6.005382            7.336781
| 62>   H                    : -7.552956            -8.073217            7.112625
| 63>   H                    : -5.784904            -8.580147            6.772301
| 64>   H                    : -6.373916            -7.930089            8.316778
| 65>   C                      -9.116785            -10.529664           3.622843
| 66>   O                      -9.172273            -11.566663           4.534592
| 67>   H                      -9.388922            -11.088376           5.359630
| 68>   H                      -10.125791           -10.028202           3.430888
| 69>   H                      -8.407909            -9.813858            3.978789
| 70>   H                      -8.726457            -10.831544           2.693220
| 71> *
| 72>
| 73>                          ****END OF INPUT****
 Total Charge           Charge          ....    0
 Multiplicity           Mult            ....    1
 Number of Electrons    NEL             ....   36
Dispersion correction           -0.000729888
FINAL SINGLE POINT ENERGY      -231.463894152901
Dispersion correction           -0.000206335
FINAL SINGLE POINT ENERGY      -115.733056769049

CARTESIAN COORDINATES (ANGSTROEM)
---------------------------------
  C     -6.481891   -7.877271    7.250222
  O     -6.198547   -6.565036    6.837370
  H     -6.806889   -6.005382    7.336781
  H     -7.552956   -8.073217    7.112625
  H     -5.784904   -8.580147    6.772301
  H     -6.373916   -7.930089    8.316778
  C     -9.116785  -10.529664    3.622843
  O     -9.172273  -11.566663    4.534592
  H     -9.388922  -11.088376    5.359630
  H    -10.125791  -10.028202    3.430888
  H     -8.407909   -9.813858    3.978789
  H     -8.726457  -10.831544    2.693220

 Multiplicity           Mult            ....    1
 Number of Electrons    NEL             ....   18
 Basis Dimension        Dim             ....  172

ORBITAL ENERGIES
----------------

  NO   OCC          E(Eh)            E(eV)
   0   2.0000     -19.233884      -523.3806
   1   2.0000     -10.307460      -280.4802
   2   2.0000      -1.148512       -31.2526
   3   2.0000      -0.792315       -21.5600
   4   2.0000      -0.612409       -16.6645
   5   2.0000      -0.546950       -14.8833
   6   2.0000      -0.536269       -14.5926
   7   2.0000      -0.435366       -11.8469
   8   2.0000      -0.372277       -10.1302
   9   0.0000       0.076589         2.0841
  10   0.0000       0.113655         3.0927
  11   0.0000       0.154811         4.2126
  12   0.0000       0.165144         4.4938
  13   0.0000       0.184378         5.0172

MULLIKEN ATOMIC CHARGES
-----------------------
   0 C :   -0.000114
   1 O :    0.000019
   2 H :    0.000004
   3 H :    0.000049
   4 H :   -0.000011
   5 H :    0.000003
   6 C :   -0.170811
   7 O :   -0.454598
   8 H :    0.318738
   9 H :    0.089390
  10 H :    0.103773
  11 H :    0.113558
Sum of atomic charges:    0.0000000

LOEWDIN ATOMIC CHARGES
----------------------
   0 C :   -0.000181
   1 O :   -0.000003
   2 H :   -0.000000
   3 H :   -0.000083
   4 H :   -0.000026
   5 H :   -0.000002
   6 C :   -0.416161
   7 O :   -0.058551
   8 H :    0.187624
   9 H :    0.100490
  10 H :    0.090124
  11 H :    0.096767

  Mayer bond orders larger than 0.1
B(  6-C ,  7-O ) :   1.0081 B(  6-C ,  9-H ) :   0.9722 B(  6-C , 10-H ) :   0.9863
B(  6-C , 11-H ) :   0.9744 B(  7-O ,  8-H ) :   0.8979

Dispersion correction           -0.000210808
FINAL SINGLE POINT ENERGY      -115.730574224737

DIPOLE MOMENT
-------------
                                X             Y             Z
Electronic contribution:     -0.02397      -1.56674       1.06788
Nuclear contribution   :     -0.04557       2.22778      -0.90565
                        -----------------------------------------
Total Dipole Moment    :     -0.06953       0.66103       0.16223
                        -----------------------------------------
Magnitude (a.u.)       :      0.68419
Magnitude (Debye)      :      1.73908

Rotational constants in cm-1:     4.273252     0.865916     0.839418
Rotational constants in MHz : 128108.865160 25959.500857 25165.132819

                             ****ORCA TERMINATED NORMALLY****
TOTAL RUN TIME: 0 days 0 hours 0 minutes 57 seconds 945 msec
