                         Program Version 4.1.2  - RELEASE  -
|  1> #Run DFT-D3 single point of the dimer
|  2> ! wB97X-D3 def2-TZVP TIGHTSCF CHELPG PMODEL PAL8
|  3>
|  4> %base "8-81_DFT_AB"
|  5>
|  6> %scf
|  7> MaxIter 1000
|  8> end
|  9>
| 10> * xyz 0 1
| 11>   C                      6.555521             2.875121             5.302771
| 12>   O                      5.960526             2.912413             6.541502
| 13>   H                      5.034107             2.707951             6.433674
| 14>   H                      6.880396             3.815636             4.981021
| 15>   H                      7.546284             2.419773             5.320943
| 16>   H                      5.929050             2.395693             4.578541
| 17>   C                      9.163591             -1.124346            7.136468
| 18>   O                      10.409505            -1.746402            6.712137
| 19>   H                      10.837029            -2.214517            7.413768
| 20>   H                      8.617915             -0.597860            6.356950
| 21>   H                      8.450139             -2.001354            7.425475
| 22>   H                      9.284925             -0.458092            7.952913
| 23> *
| 24>
| 25> #Run DFT-D3 single point of the molecule with dimer basis set
| 26> $new_job
| 27> %base "8-81_DFT_A"
| 28> ! wB97X-D3 def2-TZVP TIGHTSCF CHELPG PMODEL
| 29>
| 30> %scf
| 31> MaxIter 1000
| 32> end
| 33>
| 34> * xyz 0 1
| 35>   C                      6.555521             2.875121             5.302771
| 36>   O                      5.960526             2.912413             6.541502
| 37>   H                      5.034107             2.707951             6.433674
| 38>   H                      6.880396             3.815636             4.981021
| 39>   H                      7.546284             2.419773             5.320943
| 40>   H                      5.929050             2.395693             4.578541
| 41>   C                    : 9.163591             -1.124346            7.136468
| 42>   O                    : 10.409505            -1.746402            6.712137
| 43>   H                    : 10.837029            -2.214517            7.413768
| 44>   H                    : 8.617915             -0.597860            6.356950
| 45>   H                    : 8.450139             -2.001354            7.425475
| 46>   H                    : 9.284925             -0.458092            7.952913
| 47> *
| 48>
| 49> #Run DFT-D3 single point of the particle with dimer basis set
| 50> $new_job
| 51> %base "8-81_DFT_B"
| 52> ! wB97X-D3 def2-TZVP TIGHTSCF CHELPG PMODEL
| 53>
| 54> %scf
| 55> MaxIter 1000
| 56> end
| 57>
| 58> * xyz 0 1
| 59>   C                    : 6.555521             2.875121             5.302771
| 60>   O                    : 5.960526             2.912413             6.541502
| 61>   H                    : 5.034107             2.707951             6.433674
| 62>   H                    : 6.880396             3.815636             4.981021
| 63>   H                    : 7.546284             2.419773             5.320943
| 64>   H                    : 5.929050             2.395693             4.578541
| 65>   C                      9.163591             -1.124346            7.136468
| 66>   O                      10.409505            -1.746402            6.712137
| 67>   H                      10.837029            -2.214517            7.413768
| 68>   H                      8.617915             -0.597860            6.356950
| 69>   H                      8.450139             -2.001354            7.425475
| 70>   H                      9.284925             -0.458092            7.952913
| 71> *
| 72>
| 73>                          ****END OF INPUT****
 Total Charge           Charge          ....    0
 Multiplicity           Mult            ....    1
 Number of Electrons    NEL             ....   36
Dispersion correction           -0.000808257
FINAL SINGLE POINT ENERGY      -231.457728533517
Dispersion correction           -0.000227656
FINAL SINGLE POINT ENERGY      -115.728568703594

CARTESIAN COORDINATES (ANGSTROEM)
---------------------------------
  C      6.555521    2.875121    5.302771
  O      5.960526    2.912413    6.541502
  H      5.034107    2.707951    6.433674
  H      6.880396    3.815636    4.981021
  H      7.546284    2.419773    5.320943
  H      5.929050    2.395693    4.578541
  C      9.163591   -1.124346    7.136468
  O     10.409505   -1.746402    6.712137
  H     10.837029   -2.214517    7.413768
  H      8.617915   -0.597860    6.356950
  H      8.450139   -2.001354    7.425475
  H      9.284925   -0.458092    7.952913

 Multiplicity           Mult            ....    1
 Number of Electrons    NEL             ....   18
 Basis Dimension        Dim             ....  172

ORBITAL ENERGIES
----------------

  NO   OCC          E(Eh)            E(eV)
   0   2.0000     -19.226620      -523.1829
   1   2.0000     -10.321698      -280.8677
   2   2.0000      -1.123552       -30.5734
   3   2.0000      -0.799328       -21.7508
   4   2.0000      -0.604136       -16.4394
   5   2.0000      -0.537640       -14.6299
   6   2.0000      -0.526821       -14.3355
   7   2.0000      -0.426957       -11.6181
   8   2.0000      -0.372909       -10.1474
   9   0.0000       0.085203         2.3185
  10   0.0000       0.117154         3.1879
  11   0.0000       0.143825         3.9137
  12   0.0000       0.163940         4.4610
  13   0.0000       0.188229         5.1220

MULLIKEN ATOMIC CHARGES
-----------------------
   0 C :    0.000046
   1 O :   -0.000000
   2 H :    0.000000
   3 H :   -0.000004
   4 H :   -0.000200
   5 H :   -0.000011
   6 C :   -0.171244
   7 O :   -0.489573
   8 H :    0.315878
   9 H :    0.130581
  10 H :    0.100031
  11 H :    0.114496
Sum of atomic charges:   -0.0000000

LOEWDIN ATOMIC CHARGES
----------------------
   0 C :   -0.000184
   1 O :   -0.000003
   2 H :   -0.000001
   3 H :   -0.000001
   4 H :   -0.000292
   5 H :   -0.000005
   6 C :   -0.354221
   7 O :   -0.104237
   8 H :    0.155036
   9 H :    0.107402
  10 H :    0.109015
  11 H :    0.087490

  Mayer bond orders larger than 0.1
B(  6-C ,  7-O ) :   0.9890 B(  6-C ,  9-H ) :   0.9695 B(  6-C , 10-H ) :   0.9834
B(  6-C , 11-H ) :   0.9701 B(  7-O ,  8-H ) :   0.8982

Dispersion correction           -0.000270955
FINAL SINGLE POINT ENERGY      -115.728495437293

DIPOLE MOMENT
-------------
                                X             Y             Z
Electronic contribution:      1.63017      -0.53768      -0.65680
Nuclear contribution   :     -1.88629       0.52621       1.28640
                        -----------------------------------------
Total Dipole Moment    :     -0.25612      -0.01146       0.62961
                        -----------------------------------------
Magnitude (a.u.)       :      0.67980
Magnitude (Debye)      :      1.72793

Rotational constants in cm-1:     4.338798     0.778620     0.761608
Rotational constants in MHz : 130073.894743 23342.451951 22832.424854

                             ****ORCA TERMINATED NORMALLY****
TOTAL RUN TIME: 0 days 0 hours 0 minutes 42 seconds 172 msec
