                         Program Version 4.1.2  - RELEASE  -
|  1> #Run DFT-D3 single point of the dimer
|  2> ! wB97X-D3 def2-TZVP TIGHTSCF CHELPG PMODEL PAL8
|  3>
|  4> %base "22-110_DFT_AB"
|  5>
|  6> %scf
|  7> MaxIter 1000
|  8> end
|  9>
| 10> * xyz 0 1
| 11>   C                      -3.235452            7.974834             -3.610997
| 12>   O                      -2.335744            9.037216             -3.968717
| 13>   H                      -2.699700            9.576640             -4.691973
| 14>   H                      -3.591304            8.059104             -2.564382
| 15>   H                      -4.201722            8.035616             -4.246307
| 16>   H                      -2.818901            6.977032             -3.763111
| 17>   C                      -0.620922            5.997310             -4.928079
| 18>   O                      -0.171319            7.322030             -5.104291
| 19>   H                      -0.705595            7.884282             -4.541119
| 20>   H                      0.075131             5.262890             -5.325712
| 21>   H                      -0.776044            5.803668             -3.880271
| 22>   H                      -1.635372            5.913386             -5.387352
| 23> *
| 24>
| 25> #Run DFT-D3 single point of the molecule with dimer basis set
| 26> $new_job
| 27> %base "22-110_DFT_A"
| 28> ! wB97X-D3 def2-TZVP TIGHTSCF CHELPG PMODEL
| 29>
| 30> %scf
| 31> MaxIter 1000
| 32> end
| 33>
| 34> * xyz 0 1
| 35>   C                      -3.235452            7.974834             -3.610997
| 36>   O                      -2.335744            9.037216             -3.968717
| 37>   H                      -2.699700            9.576640             -4.691973
| 38>   H                      -3.591304            8.059104             -2.564382
| 39>   H                      -4.201722            8.035616             -4.246307
| 40>   H                      -2.818901            6.977032             -3.763111
| 41>   C                    : -0.620922            5.997310             -4.928079
| 42>   O                    : -0.171319            7.322030             -5.104291
| 43>   H                    : -0.705595            7.884282             -4.541119
| 44>   H                    : 0.075131             5.262890             -5.325712
| 45>   H                    : -0.776044            5.803668             -3.880271
| 46>   H                    : -1.635372            5.913386             -5.387352
| 47> *
| 48>
| 49> #Run DFT-D3 single point of the particle with dimer basis set
| 50> $new_job
| 51> %base "22-110_DFT_B"
| 52> ! wB97X-D3 def2-TZVP TIGHTSCF CHELPG PMODEL
| 53>
| 54> %scf
| 55> MaxIter 1000
| 56> end
| 57>
| 58> * xyz 0 1
| 59>   C                    : -3.235452            7.974834             -3.610997
| 60>   O                    : -2.335744            9.037216             -3.968717
| 61>   H                    : -2.699700            9.576640             -4.691973
| 62>   H                    : -3.591304            8.059104             -2.564382
| 63>   H                    : -4.201722            8.035616             -4.246307
| 64>   H                    : -2.818901            6.977032             -3.763111
| 65>   C                      -0.620922            5.997310             -4.928079
| 66>   O                      -0.171319            7.322030             -5.104291
| 67>   H                      -0.705595            7.884282             -4.541119
| 68>   H                      0.075131             5.262890             -5.325712
| 69>   H                      -0.776044            5.803668             -3.880271
| 70>   H                      -1.635372            5.913386             -5.387352
| 71> *
| 72>
| 73>                          ****END OF INPUT****
 Total Charge           Charge          ....    0
 Multiplicity           Mult            ....    1
 Number of Electrons    NEL             ....   36
Dispersion correction           -0.002187244
FINAL SINGLE POINT ENERGY      -231.473834827131
Dispersion correction           -0.000279436
FINAL SINGLE POINT ENERGY      -115.732108717661

CARTESIAN COORDINATES (ANGSTROEM)
---------------------------------
  C     -3.235452    7.974834   -3.610997
  O     -2.335744    9.037216   -3.968717
  H     -2.699700    9.576640   -4.691973
  H     -3.591304    8.059104   -2.564382
  H     -4.201722    8.035616   -4.246307
  H     -2.818901    6.977032   -3.763111
  C     -0.620922    5.997310   -4.928079
  O     -0.171319    7.322030   -5.104291
  H     -0.705595    7.884282   -4.541119
  H      0.075131    5.262890   -5.325712
  H     -0.776044    5.803668   -3.880271
  H     -1.635372    5.913386   -5.387352

 Multiplicity           Mult            ....    1
 Number of Electrons    NEL             ....   18
 Basis Dimension        Dim             ....  172

ORBITAL ENERGIES
----------------

  NO   OCC          E(Eh)            E(eV)
   0   2.0000     -19.228650      -523.2382
   1   2.0000     -10.312868      -280.6274
   2   2.0000      -1.137881       -30.9633
   3   2.0000      -0.794486       -21.6191
   4   2.0000      -0.612828       -16.6759
   5   2.0000      -0.541146       -14.7253
   6   2.0000      -0.531115       -14.4524
   7   2.0000      -0.436104       -11.8670
   8   2.0000      -0.369712       -10.0604
   9   0.0000       0.070417         1.9161
  10   0.0000       0.140300         3.8178
  11   0.0000       0.145091         3.9481
  12   0.0000       0.167325         4.5532
  13   0.0000       0.191462         5.2100

MULLIKEN ATOMIC CHARGES
-----------------------
   0 C :   -0.002517
   1 O :   -0.001994
   2 H :   -0.000350
   3 H :    0.000041
   4 H :   -0.000172
   5 H :   -0.002611
   6 C :   -0.172393
   7 O :   -0.466551
   8 H :    0.312084
   9 H :    0.130655
  10 H :    0.105962
  11 H :    0.097846
Sum of atomic charges:    0.0000000

LOEWDIN ATOMIC CHARGES
----------------------
   0 C :   -0.010078
   1 O :   -0.013442
   2 H :   -0.001394
   3 H :   -0.000088
   4 H :   -0.000121
   5 H :   -0.008336
   6 C :   -0.378612
   7 O :   -0.065183
   8 H :    0.174412
   9 H :    0.107531
  10 H :    0.093278
  11 H :    0.102034

  Mayer bond orders larger than 0.1
B(  6-C ,  7-O ) :   0.9945 B(  6-C ,  9-H ) :   0.9678 B(  6-C , 10-H ) :   0.9827
B(  6-C , 11-H ) :   0.9767 B(  7-O ,  8-H ) :   0.9063

Dispersion correction           -0.000221602
FINAL SINGLE POINT ENERGY      -115.735036883061

DIPOLE MOMENT
-------------
                                X             Y             Z
Electronic contribution:      0.79926       1.57576      -0.36053
Nuclear contribution   :     -1.29665      -1.75523       0.80253
                        -----------------------------------------
Total Dipole Moment    :     -0.49739      -0.17947       0.44200
                        -----------------------------------------
Magnitude (a.u.)       :      0.68918
Magnitude (Debye)      :      1.75176

Rotational constants in cm-1:     4.262655     0.841585     0.807295
Rotational constants in MHz : 127791.185097 25230.091012 24202.097455

                             ****ORCA TERMINATED NORMALLY****
TOTAL RUN TIME: 0 days 0 hours 1 minutes 2 seconds 326 msec
