                         Program Version 4.1.2  - RELEASE  -
|  1> #Run DFT-D3 single point of the dimer
|  2> ! wB97X-D3 def2-TZVP TIGHTSCF CHELPG PMODEL PAL8
|  3>
|  4> %base "2-140_DFT_AB"
|  5>
|  6> %scf
|  7> MaxIter 1000
|  8> end
|  9>
| 10> * xyz 0 1
| 11>   C                      10.601128            -7.350926            8.682818
| 12>   O                      10.943655            -8.622369            9.174331
| 13>   H                      11.734545            -8.957303            8.706563
| 14>   H                      10.837440            -6.558996            9.430620
| 15>   H                      11.007022            -7.083806            7.698603
| 16>   H                      9.479515             -7.283157            8.519507
| 17>   C                      11.134302            -4.747291            4.475778
| 18>   O                      10.370783            -5.897481            4.603069
| 19>   H                      10.715092            -6.399807            5.381798
| 20>   H                      12.126118            -4.943626            4.106023
| 21>   H                      10.619054            -4.073949            3.763484
| 22>   H                      11.296532            -4.160645            5.340873
| 23> *
| 24>
| 25> #Run DFT-D3 single point of the molecule with dimer basis set
| 26> $new_job
| 27> %base "2-140_DFT_A"
| 28> ! wB97X-D3 def2-TZVP TIGHTSCF CHELPG PMODEL
| 29>
| 30> %scf
| 31> MaxIter 1000
| 32> end
| 33>
| 34> * xyz 0 1
| 35>   C                      10.601128            -7.350926            8.682818
| 36>   O                      10.943655            -8.622369            9.174331
| 37>   H                      11.734545            -8.957303            8.706563
| 38>   H                      10.837440            -6.558996            9.430620
| 39>   H                      11.007022            -7.083806            7.698603
| 40>   H                      9.479515             -7.283157            8.519507
| 41>   C                    : 11.134302            -4.747291            4.475778
| 42>   O                    : 10.370783            -5.897481            4.603069
| 43>   H                    : 10.715092            -6.399807            5.381798
| 44>   H                    : 12.126118            -4.943626            4.106023
| 45>   H                    : 10.619054            -4.073949            3.763484
| 46>   H                    : 11.296532            -4.160645            5.340873
| 47> *
| 48>
| 49> #Run DFT-D3 single point of the particle with dimer basis set
| 50> $new_job
| 51> %base "2-140_DFT_B"
| 52> ! wB97X-D3 def2-TZVP TIGHTSCF CHELPG PMODEL
| 53>
| 54> %scf
| 55> MaxIter 1000
| 56> end
| 57>
| 58> * xyz 0 1
| 59>   C                    : 10.601128            -7.350926            8.682818
| 60>   O                    : 10.943655            -8.622369            9.174331
| 61>   H                    : 11.734545            -8.957303            8.706563
| 62>   H                    : 10.837440            -6.558996            9.430620
| 63>   H                    : 11.007022            -7.083806            7.698603
| 64>   H                    : 9.479515             -7.283157            8.519507
| 65>   C                      11.134302            -4.747291            4.475778
| 66>   O                      10.370783            -5.897481            4.603069
| 67>   H                      10.715092            -6.399807            5.381798
| 68>   H                      12.126118            -4.943626            4.106023
| 69>   H                      10.619054            -4.073949            3.763484
| 70>   H                      11.296532            -4.160645            5.340873
| 71> *
| 72>
| 73>                          ****END OF INPUT****
 Total Charge           Charge          ....    0
 Multiplicity           Mult            ....    1
 Number of Electrons    NEL             ....   36
Dispersion correction           -0.001128790
FINAL SINGLE POINT ENERGY      -231.466547243953
Dispersion correction           -0.000269036
FINAL SINGLE POINT ENERGY      -115.733399281995

CARTESIAN COORDINATES (ANGSTROEM)
---------------------------------
  C     10.601128   -7.350926    8.682818
  O     10.943655   -8.622369    9.174331
  H     11.734545   -8.957303    8.706563
  H     10.837440   -6.558996    9.430620
  H     11.007022   -7.083806    7.698603
  H      9.479515   -7.283157    8.519507
  C     11.134302   -4.747291    4.475778
  O     10.370783   -5.897481    4.603069
  H     10.715092   -6.399807    5.381798
  H     12.126118   -4.943626    4.106023
  H     10.619054   -4.073949    3.763484
  H     11.296532   -4.160645    5.340873

 Multiplicity           Mult            ....    1
 Number of Electrons    NEL             ....   18
 Basis Dimension        Dim             ....  172

ORBITAL ENERGIES
----------------

  NO   OCC          E(Eh)            E(eV)
   0   2.0000     -19.234932      -523.4091
   1   2.0000     -10.305189      -280.4184
   2   2.0000      -1.140909       -31.0457
   3   2.0000      -0.796256       -21.6672
   4   2.0000      -0.619621       -16.8608
   5   2.0000      -0.543518       -14.7899
   6   2.0000      -0.525142       -14.2899
   7   2.0000      -0.434495       -11.8232
   8   2.0000      -0.373108       -10.1528
   9   0.0000       0.072265         1.9664
  10   0.0000       0.123367         3.3570
  11   0.0000       0.153719         4.1829
  12   0.0000       0.163252         4.4423
  13   0.0000       0.194203         5.2845

MULLIKEN ATOMIC CHARGES
-----------------------
   0 C :    0.001646
   1 O :   -0.000047
   2 H :   -0.000008
   3 H :   -0.000039
   4 H :   -0.004104
   5 H :   -0.000152
   6 C :   -0.155066
   7 O :   -0.468880
   8 H :    0.316860
   9 H :    0.094039
  10 H :    0.113151
  11 H :    0.102601
Sum of atomic charges:   -0.0000000

LOEWDIN ATOMIC CHARGES
----------------------
   0 C :   -0.001051
   1 O :   -0.000017
   2 H :   -0.000001
   3 H :   -0.000004
   4 H :   -0.003161
   5 H :   -0.000104
   6 C :   -0.409336
   7 O :   -0.062783
   8 H :    0.188706
   9 H :    0.089167
  10 H :    0.113015
  11 H :    0.085568

  Mayer bond orders larger than 0.1
B(  6-C ,  7-O ) :   1.0034 B(  6-C ,  9-H ) :   0.9792 B(  6-C , 10-H ) :   0.9765
B(  6-C , 11-H ) :   0.9710 B(  7-O ,  8-H ) :   0.8977

Dispersion correction           -0.000235822
FINAL SINGLE POINT ENERGY      -115.733507218110

DIPOLE MOMENT
-------------
                                X             Y             Z
Electronic contribution:     -1.10243      -1.53179       0.12705
Nuclear contribution   :      1.60500       1.66402       0.32722
                        -----------------------------------------
Total Dipole Moment    :      0.50256       0.13223       0.45428
                        -----------------------------------------
Magnitude (a.u.)       :      0.69023
Magnitude (Debye)      :      1.75443

Rotational constants in cm-1:     4.424611     0.856017     0.817867
Rotational constants in MHz : 132646.496694 25662.742488 24519.043002

                             ****ORCA TERMINATED NORMALLY****
TOTAL RUN TIME: 0 days 0 hours 6 minutes 20 seconds 421 msec
