                         Program Version 4.1.2  - RELEASE  -
|  1> #Run DFT-D3 single point of the dimer
|  2> ! wB97X-D3 def2-TZVP TIGHTSCF CHELPG PMODEL PAL8
|  3>
|  4> %base "21-44_DFT_AB"
|  5>
|  6> %scf
|  7> MaxIter 1000
|  8> end
|  9>
| 10> * xyz 0 1
| 11>   C                      -4.571858            -8.509217            7.080362
| 12>   O                      -3.583468            -7.449682            7.394431
| 13>   H                      -3.572475            -6.902586            6.640899
| 14>   H                      -4.180799            -9.176255            6.298429
| 15>   H                      -4.673121            -9.129860            7.950470
| 16>   H                      -5.476760            -8.065264            6.898514
| 17>   C                      -0.144222            -6.388239            7.109689
| 18>   O                      0.615973             -6.573767            5.942439
| 19>   H                      0.207923             -7.303028            5.449768
| 20>   H                      0.185809             -5.543396            7.793913
| 21>   H                      -1.164782            -6.128827            6.762129
| 22>   H                      -0.143347            -7.286734            7.691108
| 23> *
| 24>
| 25> #Run DFT-D3 single point of the molecule with dimer basis set
| 26> $new_job
| 27> %base "21-44_DFT_A"
| 28> ! wB97X-D3 def2-TZVP TIGHTSCF CHELPG PMODEL
| 29>
| 30> %scf
| 31> MaxIter 1000
| 32> end
| 33>
| 34> * xyz 0 1
| 35>   C                      -4.571858            -8.509217            7.080362
| 36>   O                      -3.583468            -7.449682            7.394431
| 37>   H                      -3.572475            -6.902586            6.640899
| 38>   H                      -4.180799            -9.176255            6.298429
| 39>   H                      -4.673121            -9.129860            7.950470
| 40>   H                      -5.476760            -8.065264            6.898514
| 41>   C                    : -0.144222            -6.388239            7.109689
| 42>   O                    : 0.615973             -6.573767            5.942439
| 43>   H                    : 0.207923             -7.303028            5.449768
| 44>   H                    : 0.185809             -5.543396            7.793913
| 45>   H                    : -1.164782            -6.128827            6.762129
| 46>   H                    : -0.143347            -7.286734            7.691108
| 47> *
| 48>
| 49> #Run DFT-D3 single point of the particle with dimer basis set
| 50> $new_job
| 51> %base "21-44_DFT_B"
| 52> ! wB97X-D3 def2-TZVP TIGHTSCF CHELPG PMODEL
| 53>
| 54> %scf
| 55> MaxIter 1000
| 56> end
| 57>
| 58> * xyz 0 1
| 59>   C                    : -4.571858            -8.509217            7.080362
| 60>   O                    : -3.583468            -7.449682            7.394431
| 61>   H                    : -3.572475            -6.902586            6.640899
| 62>   H                    : -4.180799            -9.176255            6.298429
| 63>   H                    : -4.673121            -9.129860            7.950470
| 64>   H                    : -5.476760            -8.065264            6.898514
| 65>   C                      -0.144222            -6.388239            7.109689
| 66>   O                      0.615973             -6.573767            5.942439
| 67>   H                      0.207923             -7.303028            5.449768
| 68>   H                      0.185809             -5.543396            7.793913
| 69>   H                      -1.164782            -6.128827            6.762129
| 70>   H                      -0.143347            -7.286734            7.691108
| 71> *
| 72>
| 73>                          ****END OF INPUT****
 Total Charge           Charge          ....    0
 Multiplicity           Mult            ....    1
 Number of Electrons    NEL             ....   36
Dispersion correction           -0.001302280
FINAL SINGLE POINT ENERGY      -231.462166595285
Dispersion correction           -0.000238914
FINAL SINGLE POINT ENERGY      -115.729897205397

CARTESIAN COORDINATES (ANGSTROEM)
---------------------------------
  C     -4.571858   -8.509217    7.080362
  O     -3.583468   -7.449682    7.394431
  H     -3.572475   -6.902586    6.640899
  H     -4.180799   -9.176255    6.298429
  H     -4.673121   -9.129860    7.950470
  H     -5.476760   -8.065264    6.898514
  C     -0.144222   -6.388239    7.109689
  O      0.615973   -6.573767    5.942439
  H      0.207923   -7.303028    5.449768
  H      0.185809   -5.543396    7.793913
  H     -1.164782   -6.128827    6.762129
  H     -0.143347   -7.286734    7.691108

 Multiplicity           Mult            ....    1
 Number of Electrons    NEL             ....   18
 Basis Dimension        Dim             ....  172

ORBITAL ENERGIES
----------------

  NO   OCC          E(Eh)            E(eV)
   0   2.0000     -19.228489      -523.2338
   1   2.0000     -10.316033      -280.7135
   2   2.0000      -1.137154       -30.9435
   3   2.0000      -0.790021       -21.4976
   4   2.0000      -0.607350       -16.5268
   5   2.0000      -0.548847       -14.9349
   6   2.0000      -0.529005       -14.3950
   7   2.0000      -0.426020       -11.5926
   8   2.0000      -0.370774       -10.0893
   9   0.0000       0.080243         2.1835
  10   0.0000       0.116048         3.1578
  11   0.0000       0.146901         3.9974
  12   0.0000       0.170272         4.6333
  13   0.0000       0.191535         5.2119

MULLIKEN ATOMIC CHARGES
-----------------------
   0 C :   -0.000317
   1 O :   -0.000455
   2 H :   -0.000847
   3 H :   -0.000007
   4 H :    0.000022
   5 H :    0.000012
   6 C :   -0.163739
   7 O :   -0.475589
   8 H :    0.317604
   9 H :    0.117828
  10 H :    0.099003
  11 H :    0.106484
Sum of atomic charges:    0.0000000

LOEWDIN ATOMIC CHARGES
----------------------
   0 C :   -0.000159
   1 O :   -0.002684
   2 H :   -0.003641
   3 H :   -0.000007
   4 H :   -0.000005
   5 H :   -0.000002
   6 C :   -0.395394
   7 O :   -0.080987
   8 H :    0.177373
   9 H :    0.116632
  10 H :    0.099508
  11 H :    0.089366

  Mayer bond orders larger than 0.1
B(  6-C ,  7-O ) :   0.9881 B(  6-C ,  9-H ) :   0.9657 B(  6-C , 10-H ) :   0.9883
B(  6-C , 11-H ) :   0.9778 B(  7-O ,  8-H ) :   0.8949

Dispersion correction           -0.000224133
FINAL SINGLE POINT ENERGY      -115.731587080675

DIPOLE MOMENT
-------------
                                X             Y             Z
Electronic contribution:      1.14647      -0.15081      -1.41401
Nuclear contribution   :     -1.69545      -0.23490       1.57047
                        -----------------------------------------
Total Dipole Moment    :     -0.54898      -0.38571       0.15646
                        -----------------------------------------
Magnitude (a.u.)       :      0.68893
Magnitude (Debye)      :      1.75113

Rotational constants in cm-1:     4.229175     0.837535     0.808875
Rotational constants in MHz : 126787.466195 25108.670449 24249.453224

                             ****ORCA TERMINATED NORMALLY****
TOTAL RUN TIME: 0 days 0 hours 0 minutes 56 seconds 6 msec
