                         Program Version 4.1.2  - RELEASE  -
|  1> #Run DFT-D3 single point of the dimer
|  2> ! wB97X-D3 def2-TZVP TIGHTSCF CHELPG PMODEL PAL8
|  3>
|  4> %base "13-175_DFT_AB"
|  5>
|  6> %scf
|  7> MaxIter 1000
|  8> end
|  9>
| 10> * xyz 0 1
| 11>   C                      -8.408947            11.159215            2.239552
| 12>   O                      -8.037475            10.575306            0.941949
| 13>   H                      -8.743245            10.204981            0.358566
| 14>   H                      -8.538852            10.351907            2.978712
| 15>   H                      -7.662695            11.936653            2.586076
| 16>   H                      -9.404057            11.635072            2.243236
| 17>   C                      -4.955943            11.055564            -0.906676
| 18>   O                      -5.161071            10.746002            0.501768
| 19>   H                      -6.011560            10.392398            0.558272
| 20>   H                      -4.056468            10.651569            -1.359279
| 21>   H                      -5.868463            10.732974            -1.433788
| 22>   H                      -5.043970            12.151327            -1.097442
| 23> *
| 24>
| 25> #Run DFT-D3 single point of the molecule with dimer basis set
| 26> $new_job
| 27> %base "13-175_DFT_A"
| 28> ! wB97X-D3 def2-TZVP TIGHTSCF CHELPG PMODEL
| 29>
| 30> %scf
| 31> MaxIter 1000
| 32> end
| 33>
| 34> * xyz 0 1
| 35>   C                      -8.408947            11.159215            2.239552
| 36>   O                      -8.037475            10.575306            0.941949
| 37>   H                      -8.743245            10.204981            0.358566
| 38>   H                      -8.538852            10.351907            2.978712
| 39>   H                      -7.662695            11.936653            2.586076
| 40>   H                      -9.404057            11.635072            2.243236
| 41>   C                    : -4.955943            11.055564            -0.906676
| 42>   O                    : -5.161071            10.746002            0.501768
| 43>   H                    : -6.011560            10.392398            0.558272
| 44>   H                    : -4.056468            10.651569            -1.359279
| 45>   H                    : -5.868463            10.732974            -1.433788
| 46>   H                    : -5.043970            12.151327            -1.097442
| 47> *
| 48>
| 49> #Run DFT-D3 single point of the particle with dimer basis set
| 50> $new_job
| 51> %base "13-175_DFT_B"
| 52> ! wB97X-D3 def2-TZVP TIGHTSCF CHELPG PMODEL
| 53>
| 54> %scf
| 55> MaxIter 1000
| 56> end
| 57>
| 58> * xyz 0 1
| 59>   C                    : -8.408947            11.159215            2.239552
| 60>   O                    : -8.037475            10.575306            0.941949
| 61>   H                    : -8.743245            10.204981            0.358566
| 62>   H                    : -8.538852            10.351907            2.978712
| 63>   H                    : -7.662695            11.936653            2.586076
| 64>   H                    : -9.404057            11.635072            2.243236
| 65>   C                      -4.955943            11.055564            -0.906676
| 66>   O                      -5.161071            10.746002            0.501768
| 67>   H                      -6.011560            10.392398            0.558272
| 68>   H                      -4.056468            10.651569            -1.359279
| 69>   H                      -5.868463            10.732974            -1.433788
| 70>   H                      -5.043970            12.151327            -1.097442
| 71> *
| 72>
| 73>                          ****END OF INPUT****
 Total Charge           Charge          ....    0
 Multiplicity           Mult            ....    1
 Number of Electrons    NEL             ....   36
Dispersion correction           -0.001787776
FINAL SINGLE POINT ENERGY      -231.463621752205
Dispersion correction           -0.000307713
FINAL SINGLE POINT ENERGY      -115.727014825612

CARTESIAN COORDINATES (ANGSTROEM)
---------------------------------
  C     -8.408947   11.159215    2.239552
  O     -8.037475   10.575306    0.941949
  H     -8.743245   10.204981    0.358566
  H     -8.538852   10.351907    2.978712
  H     -7.662695   11.936653    2.586076
  H     -9.404057   11.635072    2.243236
  C     -4.955943   11.055564   -0.906676
  O     -5.161071   10.746002    0.501768
  H     -6.011560   10.392398    0.558272
  H     -4.056468   10.651569   -1.359279
  H     -5.868463   10.732974   -1.433788
  H     -5.043970   12.151327   -1.097442

 Multiplicity           Mult            ....    1
 Number of Electrons    NEL             ....   18
 Basis Dimension        Dim             ....  172

ORBITAL ENERGIES
----------------

  NO   OCC          E(Eh)            E(eV)
   0   2.0000     -19.229080      -523.2499
   1   2.0000     -10.321126      -280.8521
   2   2.0000      -1.134588       -30.8737
   3   2.0000      -0.799000       -21.7419
   4   2.0000      -0.609907       -16.5964
   5   2.0000      -0.543649       -14.7934
   6   2.0000      -0.521733       -14.1971
   7   2.0000      -0.434910       -11.8345
   8   2.0000      -0.378189       -10.2910
   9   0.0000       0.072679         1.9777
  10   0.0000       0.125887         3.4256
  11   0.0000       0.151757         4.1295
  12   0.0000       0.164590         4.4787
  13   0.0000       0.195297         5.3143

MULLIKEN ATOMIC CHARGES
-----------------------
   0 C :   -0.002101
   1 O :   -0.004059
   2 H :   -0.000123
   3 H :    0.000089
   4 H :   -0.001988
   5 H :   -0.000023
   6 C :   -0.181978
   7 O :   -0.459826
   8 H :    0.307949
   9 H :    0.126458
  10 H :    0.106747
  11 H :    0.108856
Sum of atomic charges:   -0.0000000

LOEWDIN ATOMIC CHARGES
----------------------
   0 C :   -0.003907
   1 O :   -0.014531
   2 H :   -0.000776
   3 H :   -0.000067
   4 H :   -0.001240
   5 H :   -0.000051
   6 C :   -0.355099
   7 O :   -0.076431
   8 H :    0.145385
   9 H :    0.101076
  10 H :    0.101324
  11 H :    0.104317

  Mayer bond orders larger than 0.1
B(  6-C ,  7-O ) :   1.0008 B(  6-C ,  9-H ) :   0.9698 B(  6-C , 10-H ) :   0.9914
B(  6-C , 11-H ) :   0.9691 B(  7-O ,  8-H ) :   0.9143

Dispersion correction           -0.000258377
FINAL SINGLE POINT ENERGY      -115.728696998031

DIPOLE MOMENT
-------------
                                X             Y             Z
Electronic contribution:      0.08428      -0.43749       1.81688
Nuclear contribution   :     -0.56524       0.33679      -2.38732
                        -----------------------------------------
Total Dipole Moment    :     -0.48096      -0.10070      -0.57044
                        -----------------------------------------
Magnitude (a.u.)       :      0.75291
Magnitude (Debye)      :      1.91373

Rotational constants in cm-1:     4.331195     0.792043     0.765780
Rotational constants in MHz : 129845.945589 23744.851016 22957.492133

                             ****ORCA TERMINATED NORMALLY****
TOTAL RUN TIME: 0 days 0 hours 1 minutes 13 seconds 402 msec
