                         Program Version 4.1.2  - RELEASE  -
|  1> #Run DFT-D3 single point of the dimer
|  2> ! wB97X-D3 def2-TZVP TIGHTSCF CHELPG PMODEL PAL8
|  3>
|  4> %base "12-208_DFT_AB"
|  5>
|  6> %scf
|  7> MaxIter 1000
|  8> end
|  9>
| 10> * xyz 0 1
| 11>   C                      -5.089564            -6.346030            7.077743
| 12>   O                      -6.465300            -6.133136            6.927184
| 13>   H                      -6.798112            -5.651534            7.717625
| 14>   H                      -4.701708            -6.957811            6.244498
| 15>   H                      -4.549811            -5.454992            7.041897
| 16>   H                      -4.832682            -6.756922            8.050849
| 17>   C                      -6.097727            -5.340235            3.404560
| 18>   O                      -6.498002            -6.530726            3.998378
| 19>   H                      -6.377586            -6.543467            4.952224
| 20>   H                      -5.046251            -5.086913            3.652144
| 21>   H                      -6.052630            -5.371745            2.312971
| 22>   H                      -6.693114            -4.525740            3.737371
| 23> *
| 24>
| 25> #Run DFT-D3 single point of the molecule with dimer basis set
| 26> $new_job
| 27> %base "12-208_DFT_A"
| 28> ! wB97X-D3 def2-TZVP TIGHTSCF CHELPG PMODEL
| 29>
| 30> %scf
| 31> MaxIter 1000
| 32> end
| 33>
| 34> * xyz 0 1
| 35>   C                      -5.089564            -6.346030            7.077743
| 36>   O                      -6.465300            -6.133136            6.927184
| 37>   H                      -6.798112            -5.651534            7.717625
| 38>   H                      -4.701708            -6.957811            6.244498
| 39>   H                      -4.549811            -5.454992            7.041897
| 40>   H                      -4.832682            -6.756922            8.050849
| 41>   C                    : -6.097727            -5.340235            3.404560
| 42>   O                    : -6.498002            -6.530726            3.998378
| 43>   H                    : -6.377586            -6.543467            4.952224
| 44>   H                    : -5.046251            -5.086913            3.652144
| 45>   H                    : -6.052630            -5.371745            2.312971
| 46>   H                    : -6.693114            -4.525740            3.737371
| 47> *
| 48>
| 49> #Run DFT-D3 single point of the particle with dimer basis set
| 50> $new_job
| 51> %base "12-208_DFT_B"
| 52> ! wB97X-D3 def2-TZVP TIGHTSCF CHELPG PMODEL
| 53>
| 54> %scf
| 55> MaxIter 1000
| 56> end
| 57>
| 58> * xyz 0 1
| 59>   C                    : -5.089564            -6.346030            7.077743
| 60>   O                    : -6.465300            -6.133136            6.927184
| 61>   H                    : -6.798112            -5.651534            7.717625
| 62>   H                    : -4.701708            -6.957811            6.244498
| 63>   H                    : -4.549811            -5.454992            7.041897
| 64>   H                    : -4.832682            -6.756922            8.050849
| 65>   C                      -6.097727            -5.340235            3.404560
| 66>   O                      -6.498002            -6.530726            3.998378
| 67>   H                      -6.377586            -6.543467            4.952224
| 68>   H                      -5.046251            -5.086913            3.652144
| 69>   H                      -6.052630            -5.371745            2.312971
| 70>   H                      -6.693114            -4.525740            3.737371
| 71> *
| 72>
| 73>                          ****END OF INPUT****
 Total Charge           Charge          ....    0
 Multiplicity           Mult            ....    1
 Number of Electrons    NEL             ....   36
Dispersion correction           -0.001980403
FINAL SINGLE POINT ENERGY      -231.472436336165
Dispersion correction           -0.000228581
FINAL SINGLE POINT ENERGY      -115.733289620643

CARTESIAN COORDINATES (ANGSTROEM)
---------------------------------
  C     -5.089564   -6.346030    7.077743
  O     -6.465300   -6.133136    6.927184
  H     -6.798112   -5.651534    7.717625
  H     -4.701708   -6.957811    6.244498
  H     -4.549811   -5.454992    7.041897
  H     -4.832682   -6.756922    8.050849
  C     -6.097727   -5.340235    3.404560
  O     -6.498002   -6.530726    3.998378
  H     -6.377586   -6.543467    4.952224
  H     -5.046251   -5.086913    3.652144
  H     -6.052630   -5.371745    2.312971
  H     -6.693114   -4.525740    3.737371

 Multiplicity           Mult            ....    1
 Number of Electrons    NEL             ....   18
 Basis Dimension        Dim             ....  172

ORBITAL ENERGIES
----------------

  NO   OCC          E(Eh)            E(eV)
   0   2.0000     -19.229836      -523.2704
   1   2.0000     -10.309933      -280.5475
   2   2.0000      -1.140772       -31.0420
   3   2.0000      -0.799576       -21.7576
   4   2.0000      -0.618296       -16.8247
   5   2.0000      -0.549989       -14.9660
   6   2.0000      -0.529185       -14.3998
   7   2.0000      -0.423957       -11.5365
   8   2.0000      -0.372324       -10.1315
   9   0.0000       0.068961         1.8765
  10   0.0000       0.141786         3.8582
  11   0.0000       0.149647         4.0721
  12   0.0000       0.155995         4.2448
  13   0.0000       0.197050         5.3620

MULLIKEN ATOMIC CHARGES
-----------------------
   0 C :   -0.003576
   1 O :   -0.002798
   2 H :   -0.000212
   3 H :   -0.005208
   4 H :    0.000595
   5 H :   -0.000452
   6 C :   -0.156965
   7 O :   -0.473246
   8 H :    0.320018
   9 H :    0.091071
  10 H :    0.124020
  11 H :    0.106753
Sum of atomic charges:    0.0000000

LOEWDIN ATOMIC CHARGES
----------------------
   0 C :   -0.010839
   1 O :   -0.014967
   2 H :   -0.000606
   3 H :   -0.004807
   4 H :   -0.000290
   5 H :   -0.000178
   6 C :   -0.399635
   7 O :   -0.044674
   8 H :    0.181010
   9 H :    0.096143
  10 H :    0.110188
  11 H :    0.088654

  Mayer bond orders larger than 0.1
B(  6-C ,  7-O ) :   0.9900 B(  6-C ,  9-H ) :   0.9778 B(  6-C , 10-H ) :   0.9709
B(  6-C , 11-H ) :   0.9805 B(  7-O ,  8-H ) :   0.9019

Dispersion correction           -0.000241186
FINAL SINGLE POINT ENERGY      -115.733724698196

DIPOLE MOMENT
-------------
                                X             Y             Z
Electronic contribution:     -0.69055      -1.61958       0.62632
Nuclear contribution   :      0.92847       2.08508      -0.25874
                        -----------------------------------------
Total Dipole Moment    :      0.23792       0.46550       0.36759
                        -----------------------------------------
Magnitude (a.u.)       :      0.63907
Magnitude (Debye)      :      1.62439

Rotational constants in cm-1:     4.492057     0.842026     0.814921
Rotational constants in MHz : 134668.493282 25243.293381 24430.720027

                             ****ORCA TERMINATED NORMALLY****
TOTAL RUN TIME: 0 days 0 hours 1 minutes 14 seconds 478 msec
