                         Program Version 4.1.2  - RELEASE  -
|  1> #Run DFT-D3 single point of the dimer
|  2> ! wB97X-D3 def2-TZVP TIGHTSCF CHELPG PMODEL PAL8
|  3>
|  4> %base "12-59_DFT_AB"
|  5>
|  6> %scf
|  7> MaxIter 1000
|  8> end
|  9>
| 10> * xyz 0 1
| 11>   C                      1.228255             8.850175             -3.515345
| 12>   O                      1.191600             8.715200             -2.081027
| 13>   H                      0.242599             8.844409             -1.860280
| 14>   H                      1.453714             9.811640             -3.993332
| 15>   H                      1.787758             7.990946             -3.923253
| 16>   H                      0.282204             8.617246             -3.914783
| 17>   C                      4.440226             6.196355             -3.849178
| 18>   O                      3.640910             5.989443             -5.101303
| 19>   H                      3.740154             6.852083             -5.484227
| 20>   H                      4.508449             5.248335             -3.274458
| 21>   H                      5.527815             6.468648             -4.136354
| 22>   H                      4.088435             7.067050             -3.349684
| 23> *
| 24>
| 25> #Run DFT-D3 single point of the molecule with dimer basis set
| 26> $new_job
| 27> %base "12-59_DFT_A"
| 28> ! wB97X-D3 def2-TZVP TIGHTSCF CHELPG PMODEL
| 29>
| 30> %scf
| 31> MaxIter 1000
| 32> end
| 33>
| 34> * xyz 0 1
| 35>   C                      1.228255             8.850175             -3.515345
| 36>   O                      1.191600             8.715200             -2.081027
| 37>   H                      0.242599             8.844409             -1.860280
| 38>   H                      1.453714             9.811640             -3.993332
| 39>   H                      1.787758             7.990946             -3.923253
| 40>   H                      0.282204             8.617246             -3.914783
| 41>   C                    : 4.440226             6.196355             -3.849178
| 42>   O                    : 3.640910             5.989443             -5.101303
| 43>   H                    : 3.740154             6.852083             -5.484227
| 44>   H                    : 4.508449             5.248335             -3.274458
| 45>   H                    : 5.527815             6.468648             -4.136354
| 46>   H                    : 4.088435             7.067050             -3.349684
| 47> *
| 48>
| 49> #Run DFT-D3 single point of the particle with dimer basis set
| 50> $new_job
| 51> %base "12-59_DFT_B"
| 52> ! wB97X-D3 def2-TZVP TIGHTSCF CHELPG PMODEL
| 53>
| 54> %scf
| 55> MaxIter 1000
| 56> end
| 57>
| 58> * xyz 0 1
| 59>   C                    : 1.228255             8.850175             -3.515345
| 60>   O                    : 1.191600             8.715200             -2.081027
| 61>   H                    : 0.242599             8.844409             -1.860280
| 62>   H                    : 1.453714             9.811640             -3.993332
| 63>   H                    : 1.787758             7.990946             -3.923253
| 64>   H                    : 0.282204             8.617246             -3.914783
| 65>   C                      4.440226             6.196355             -3.849178
| 66>   O                      3.640910             5.989443             -5.101303
| 67>   H                      3.740154             6.852083             -5.484227
| 68>   H                      4.508449             5.248335             -3.274458
| 69>   H                      5.527815             6.468648             -4.136354
| 70>   H                      4.088435             7.067050             -3.349684
| 71> *
| 72>
| 73>                          ****END OF INPUT****
 Total Charge           Charge          ....    0
 Multiplicity           Mult            ....    1
 Number of Electrons    NEL             ....   36
Dispersion correction           -0.001536300
FINAL SINGLE POINT ENERGY      -231.454280756976
Dispersion correction           -0.000258969
FINAL SINGLE POINT ENERGY      -115.725831393139

CARTESIAN COORDINATES (ANGSTROEM)
---------------------------------
  C      1.228255    8.850175   -3.515345
  O      1.191600    8.715200   -2.081027
  H      0.242599    8.844409   -1.860280
  H      1.453714    9.811640   -3.993332
  H      1.787758    7.990946   -3.923253
  H      0.282204    8.617246   -3.914783
  C      4.440226    6.196355   -3.849178
  O      3.640910    5.989443   -5.101303
  H      3.740154    6.852083   -5.484227
  H      4.508449    5.248335   -3.274458
  H      5.527815    6.468648   -4.136354
  H      4.088435    7.067050   -3.349684

 Multiplicity           Mult            ....    1
 Number of Electrons    NEL             ....   18
 Basis Dimension        Dim             ....  172

ORBITAL ENERGIES
----------------

  NO   OCC          E(Eh)            E(eV)
   0   2.0000     -19.232352      -523.3389
   1   2.0000     -10.327705      -281.0312
   2   2.0000      -1.121308       -30.5123
   3   2.0000      -0.793611       -21.5952
   4   2.0000      -0.599786       -16.3210
   5   2.0000      -0.534081       -14.5331
   6   2.0000      -0.511714       -13.9245
   7   2.0000      -0.452820       -12.3219
   8   2.0000      -0.374830       -10.1996
   9   0.0000       0.081935         2.2296
  10   0.0000       0.120341         3.2746
  11   0.0000       0.145665         3.9637
  12   0.0000       0.172881         4.7043
  13   0.0000       0.182593         4.9686

MULLIKEN ATOMIC CHARGES
-----------------------
   0 C :    0.005698
   1 O :   -0.000061
   2 H :   -0.000007
   3 H :    0.000009
   4 H :   -0.013932
   5 H :   -0.000602
   6 C :   -0.206538
   7 O :   -0.463926
   8 H :    0.309380
   9 H :    0.137182
  10 H :    0.108100
  11 H :    0.124698
Sum of atomic charges:   -0.0000000

LOEWDIN ATOMIC CHARGES
----------------------
   0 C :   -0.002252
   1 O :   -0.000124
   2 H :   -0.000004
   3 H :   -0.000017
   4 H :   -0.005522
   5 H :   -0.000030
   6 C :   -0.333827
   7 O :   -0.125483
   8 H :    0.156863
   9 H :    0.114160
  10 H :    0.106273
  11 H :    0.089963

  Mayer bond orders larger than 0.1
B(  6-C ,  7-O ) :   0.9833 B(  6-C ,  9-H ) :   0.9705 B(  6-C , 10-H ) :   0.9788
B(  6-C , 11-H ) :   0.9683 B(  7-O ,  8-H ) :   0.9084

Dispersion correction           -0.000249111
FINAL SINGLE POINT ENERGY      -115.726610272514

DIPOLE MOMENT
-------------
                                X             Y             Z
Electronic contribution:     -1.17200      -0.47312      -1.34552
Nuclear contribution   :      1.57702       1.08345       1.64185
                        -----------------------------------------
Total Dipole Moment    :      0.40502       0.61033       0.29634
                        -----------------------------------------
Magnitude (a.u.)       :      0.79016
Magnitude (Debye)      :      2.00844

Rotational constants in cm-1:     4.079128     0.768612     0.733610
Rotational constants in MHz : 122289.178798 23042.422068 21993.068337

                             ****ORCA TERMINATED NORMALLY****
TOTAL RUN TIME: 0 days 0 hours 0 minutes 58 seconds 6 msec
