                         Program Version 4.1.2  - RELEASE  -
|  1> #Run DFT-D3 single point of the dimer
|  2> ! wB97X-D3 def2-TZVP TIGHTSCF CHELPG PMODEL PAL8
|  3>
|  4> %base "4-172_DFT_AB"
|  5>
|  6> %scf
|  7> MaxIter 1000
|  8> end
|  9>
| 10> * xyz 0 1
| 11>   C                      0.569891             -5.382715            -7.010546
| 12>   O                      0.773501             -4.376366            -7.990577
| 13>   H                      0.921267             -3.482390            -7.603652
| 14>   H                      -0.365843            -5.204678            -6.471750
| 15>   H                      0.436550             -6.385259            -7.416811
| 16>   H                      1.339440             -5.489965            -6.216515
| 17>   C                      -1.960716            -1.248465            -7.519585
| 18>   O                      -1.515087            -2.388539            -6.770776
| 19>   H                      -1.940425            -3.175903            -7.101188
| 20>   H                      -1.128487            -0.496994            -7.700805
| 21>   H                      -2.279092            -1.575083            -8.453508
| 22>   H                      -2.754508            -0.764400            -6.987525
| 23> *
| 24>
| 25> #Run DFT-D3 single point of the molecule with dimer basis set
| 26> $new_job
| 27> %base "4-172_DFT_A"
| 28> ! wB97X-D3 def2-TZVP TIGHTSCF CHELPG PMODEL
| 29>
| 30> %scf
| 31> MaxIter 1000
| 32> end
| 33>
| 34> * xyz 0 1
| 35>   C                      0.569891             -5.382715            -7.010546
| 36>   O                      0.773501             -4.376366            -7.990577
| 37>   H                      0.921267             -3.482390            -7.603652
| 38>   H                      -0.365843            -5.204678            -6.471750
| 39>   H                      0.436550             -6.385259            -7.416811
| 40>   H                      1.339440             -5.489965            -6.216515
| 41>   C                    : -1.960716            -1.248465            -7.519585
| 42>   O                    : -1.515087            -2.388539            -6.770776
| 43>   H                    : -1.940425            -3.175903            -7.101188
| 44>   H                    : -1.128487            -0.496994            -7.700805
| 45>   H                    : -2.279092            -1.575083            -8.453508
| 46>   H                    : -2.754508            -0.764400            -6.987525
| 47> *
| 48>
| 49> #Run DFT-D3 single point of the particle with dimer basis set
| 50> $new_job
| 51> %base "4-172_DFT_B"
| 52> ! wB97X-D3 def2-TZVP TIGHTSCF CHELPG PMODEL
| 53>
| 54> %scf
| 55> MaxIter 1000
| 56> end
| 57>
| 58> * xyz 0 1
| 59>   C                    : 0.569891             -5.382715            -7.010546
| 60>   O                    : 0.773501             -4.376366            -7.990577
| 61>   H                    : 0.921267             -3.482390            -7.603652
| 62>   H                    : -0.365843            -5.204678            -6.471750
| 63>   H                    : 0.436550             -6.385259            -7.416811
| 64>   H                    : 1.339440             -5.489965            -6.216515
| 65>   C                      -1.960716            -1.248465            -7.519585
| 66>   O                      -1.515087            -2.388539            -6.770776
| 67>   H                      -1.940425            -3.175903            -7.101188
| 68>   H                      -1.128487            -0.496994            -7.700805
| 69>   H                      -2.279092            -1.575083            -8.453508
| 70>   H                      -2.754508            -0.764400            -6.987525
| 71> *
| 72>
| 73>                          ****END OF INPUT****
 Total Charge           Charge          ....    0
 Multiplicity           Mult            ....    1
 Number of Electrons    NEL             ....   36
Dispersion correction           -0.001776579
FINAL SINGLE POINT ENERGY      -231.469172391388
Dispersion correction           -0.000277115
FINAL SINGLE POINT ENERGY      -115.732862841465

CARTESIAN COORDINATES (ANGSTROEM)
---------------------------------
  C      0.569891   -5.382715   -7.010546
  O      0.773501   -4.376366   -7.990577
  H      0.921267   -3.482390   -7.603652
  H     -0.365843   -5.204678   -6.471750
  H      0.436550   -6.385259   -7.416811
  H      1.339440   -5.489965   -6.216515
  C     -1.960716   -1.248465   -7.519585
  O     -1.515087   -2.388539   -6.770776
  H     -1.940425   -3.175903   -7.101188
  H     -1.128487   -0.496994   -7.700805
  H     -2.279092   -1.575083   -8.453508
  H     -2.754508   -0.764400   -6.987525

 Multiplicity           Mult            ....    1
 Number of Electrons    NEL             ....   18
 Basis Dimension        Dim             ....  172

ORBITAL ENERGIES
----------------

  NO   OCC          E(Eh)            E(eV)
   0   2.0000     -19.227080      -523.1954
   1   2.0000     -10.311830      -280.5991
   2   2.0000      -1.129588       -30.7376
   3   2.0000      -0.799960       -21.7680
   4   2.0000      -0.610271       -16.6063
   5   2.0000      -0.545822       -14.8526
   6   2.0000      -0.525247       -14.2927
   7   2.0000      -0.431207       -11.7337
   8   2.0000      -0.374484       -10.1902
   9   0.0000       0.088881         2.4186
  10   0.0000       0.127036         3.4568
  11   0.0000       0.151801         4.1307
  12   0.0000       0.175692         4.7808
  13   0.0000       0.198452         5.4001

MULLIKEN ATOMIC CHARGES
-----------------------
   0 C :   -0.001749
   1 O :   -0.000496
   2 H :   -0.004194
   3 H :   -0.001781
   4 H :    0.000154
   5 H :   -0.000129
   6 C :   -0.155611
   7 O :   -0.481361
   8 H :    0.316175
   9 H :    0.113686
  10 H :    0.105667
  11 H :    0.109639
Sum of atomic charges:   -0.0000000

LOEWDIN ATOMIC CHARGES
----------------------
   0 C :   -0.003869
   1 O :   -0.003101
   2 H :   -0.007482
   3 H :   -0.001906
   4 H :   -0.000030
   5 H :   -0.000047
   6 C :   -0.357847
   7 O :   -0.082131
   8 H :    0.163389
   9 H :    0.114543
  10 H :    0.084380
  11 H :    0.094100

  Mayer bond orders larger than 0.1
B(  6-C ,  7-O ) :   0.9936 B(  6-C ,  9-H ) :   0.9734 B(  6-C , 10-H ) :   0.9882
B(  6-C , 11-H ) :   0.9750 B(  7-O ,  8-H ) :   0.8983

Dispersion correction           -0.000242365
FINAL SINGLE POINT ENERGY      -115.732127069937

DIPOLE MOMENT
-------------
                                X             Y             Z
Electronic contribution:      0.55813      -1.32370       0.97956
Nuclear contribution   :     -1.04453       1.29297      -1.53254
                        -----------------------------------------
Total Dipole Moment    :     -0.48640      -0.03074      -0.55298
                        -----------------------------------------
Magnitude (a.u.)       :      0.73710
Magnitude (Debye)      :      1.87356

Rotational constants in cm-1:     4.383855     0.812410     0.787750
Rotational constants in MHz : 131424.658043 24355.435114 23616.142859

                             ****ORCA TERMINATED NORMALLY****
TOTAL RUN TIME: 0 days 0 hours 1 minutes 34 seconds 246 msec
