                         Program Version 4.1.2  - RELEASE  -
|  1> #Run DFT-D3 single point of the dimer
|  2> ! wB97X-D3 def2-TZVP TIGHTSCF CHELPG PMODEL PAL8
|  3>
|  4> %base "22-21_DFT_AB"
|  5>
|  6> %scf
|  7> MaxIter 1000
|  8> end
|  9>
| 10> * xyz 0 1
| 11>   C                      -0.754698            -4.429643            3.939378
| 12>   O                      -1.196798            -4.428082            5.254249
| 13>   H                      -0.395699            -4.752719            5.779728
| 14>   H                      -0.383757            -5.340087            3.635676
| 15>   H                      -1.507620            -4.118996            3.190048
| 16>   H                      0.031200             -3.762485            3.769299
| 17>   C                      1.275221             -6.355841            8.572647
| 18>   O                      0.369848             -6.012530            7.583084
| 19>   H                      -0.558603            -6.118223            7.924945
| 20>   H                      0.865770             -6.230336            9.614596
| 21>   H                      1.442478             -7.496958            8.504093
| 22>   H                      2.202625             -5.742370            8.426494
| 23> *
| 24>
| 25> #Run DFT-D3 single point of the molecule with dimer basis set
| 26> $new_job
| 27> %base "22-21_DFT_A"
| 28> ! wB97X-D3 def2-TZVP TIGHTSCF CHELPG PMODEL
| 29>
| 30> %scf
| 31> MaxIter 1000
| 32> end
| 33>
| 34> * xyz 0 1
| 35>   C                      -0.754698            -4.429643            3.939378
| 36>   O                      -1.196798            -4.428082            5.254249
| 37>   H                      -0.395699            -4.752719            5.779728
| 38>   H                      -0.383757            -5.340087            3.635676
| 39>   H                      -1.507620            -4.118996            3.190048
| 40>   H                      0.031200             -3.762485            3.769299
| 41>   C                    : 1.275221             -6.355841            8.572647
| 42>   O                    : 0.369848             -6.012530            7.583084
| 43>   H                    : -0.558603            -6.118223            7.924945
| 44>   H                    : 0.865770             -6.230336            9.614596
| 45>   H                    : 1.442478             -7.496958            8.504093
| 46>   H                    : 2.202625             -5.742370            8.426494
| 47> *
| 48>
| 49> #Run DFT-D3 single point of the particle with dimer basis set
| 50> $new_job
| 51> %base "22-21_DFT_B"
| 52> ! wB97X-D3 def2-TZVP TIGHTSCF CHELPG PMODEL
| 53>
| 54> %scf
| 55> MaxIter 1000
| 56> end
| 57>
| 58> * xyz 0 1
| 59>   C                    : -0.754698            -4.429643            3.939378
| 60>   O                    : -1.196798            -4.428082            5.254249
| 61>   H                    : -0.395699            -4.752719            5.779728
| 62>   H                    : -0.383757            -5.340087            3.635676
| 63>   H                    : -1.507620            -4.118996            3.190048
| 64>   H                    : 0.031200             -3.762485            3.769299
| 65>   C                      1.275221             -6.355841            8.572647
| 66>   O                      0.369848             -6.012530            7.583084
| 67>   H                      -0.558603            -6.118223            7.924945
| 68>   H                      0.865770             -6.230336            9.614596
| 69>   H                      1.442478             -7.496958            8.504093
| 70>   H                      2.202625             -5.742370            8.426494
| 71> *
| 72>
| 73>                          ****END OF INPUT****
 Total Charge           Charge          ....    0
 Multiplicity           Mult            ....    1
 Number of Electrons    NEL             ....   36
Dispersion correction           -0.001234850
FINAL SINGLE POINT ENERGY      -231.463128134732
Dispersion correction           -0.000214268
FINAL SINGLE POINT ENERGY      -115.726510009755

CARTESIAN COORDINATES (ANGSTROEM)
---------------------------------
  C     -0.754698   -4.429643    3.939378
  O     -1.196798   -4.428082    5.254249
  H     -0.395699   -4.752719    5.779728
  H     -0.383757   -5.340087    3.635676
  H     -1.507620   -4.118996    3.190048
  H      0.031200   -3.762485    3.769299
  C      1.275221   -6.355841    8.572647
  O      0.369848   -6.012530    7.583084
  H     -0.558603   -6.118223    7.924945
  H      0.865770   -6.230336    9.614596
  H      1.442478   -7.496958    8.504093
  H      2.202625   -5.742370    8.426494

 Multiplicity           Mult            ....    1
 Number of Electrons    NEL             ....   18
 Basis Dimension        Dim             ....  172

ORBITAL ENERGIES
----------------

  NO   OCC          E(Eh)            E(eV)
   0   2.0000     -19.232982      -523.3561
   1   2.0000     -10.323444      -280.9152
   2   2.0000      -1.139766       -31.0146
   3   2.0000      -0.782144       -21.2832
   4   2.0000      -0.613914       -16.7055
   5   2.0000      -0.540391       -14.7048
   6   2.0000      -0.521630       -14.1943
   7   2.0000      -0.430865       -11.7244
   8   2.0000      -0.365869        -9.9558
   9   0.0000       0.095349         2.5946
  10   0.0000       0.112946         3.0734
  11   0.0000       0.151427         4.1205
  12   0.0000       0.184678         5.0253
  13   0.0000       0.198205         5.3934

MULLIKEN ATOMIC CHARGES
-----------------------
   0 C :    0.001134
   1 O :    0.000019
   2 H :   -0.009954
   3 H :   -0.000486
   4 H :   -0.000023
   5 H :   -0.000095
   6 C :   -0.163831
   7 O :   -0.459430
   8 H :    0.321086
   9 H :    0.098635
  10 H :    0.091488
  11 H :    0.121457
Sum of atomic charges:    0.0000000

LOEWDIN ATOMIC CHARGES
----------------------
   0 C :   -0.000473
   1 O :   -0.001581
   2 H :   -0.018867
   3 H :   -0.000106
   4 H :   -0.000005
   5 H :   -0.000006
   6 C :   -0.422522
   7 O :   -0.060543
   8 H :    0.193003
   9 H :    0.096950
  10 H :    0.101979
  11 H :    0.112170

  Mayer bond orders larger than 0.1
B(  6-C ,  7-O ) :   0.9985 B(  6-C ,  9-H ) :   0.9748 B(  6-C , 10-H ) :   0.9718
B(  6-C , 11-H ) :   0.9718 B(  7-O ,  8-H ) :   0.8875

Dispersion correction           -0.000245803
FINAL SINGLE POINT ENERGY      -115.729796137482

DIPOLE MOMENT
-------------
                                X             Y             Z
Electronic contribution:     -1.02138       0.60616      -1.39583
Nuclear contribution   :      0.74829      -0.77560       1.99405
                        -----------------------------------------
Total Dipole Moment    :     -0.27309      -0.16943       0.59823
                        -----------------------------------------
Magnitude (a.u.)       :      0.67909
Magnitude (Debye)      :      1.72610

Rotational constants in cm-1:     3.956377     0.855843     0.819700
Rotational constants in MHz : 118609.188626 25657.526845 24573.980665

                             ****ORCA TERMINATED NORMALLY****
TOTAL RUN TIME: 0 days 0 hours 0 minutes 55 seconds 964 msec
