                         Program Version 4.1.2  - RELEASE  -
|  1> #Run DFT-D3 single point of the dimer
|  2> ! wB97X-D3 def2-TZVP TIGHTSCF CHELPG PMODEL PAL8
|  3>
|  4> %base "12-60_DFT_AB"
|  5>
|  6> %scf
|  7> MaxIter 1000
|  8> end
|  9>
| 10> * xyz 0 1
| 11>   C                      1.228255             8.850175             -3.515345
| 12>   O                      1.191600             8.715200             -2.081027
| 13>   H                      0.242599             8.844409             -1.860280
| 14>   H                      1.453714             9.811640             -3.993332
| 15>   H                      1.787758             7.990946             -3.923253
| 16>   H                      0.282204             8.617246             -3.914783
| 17>   C                      -2.764552            7.689700             -2.700682
| 18>   O                      -1.783057            8.128319             -1.781473
| 19>   H                      -2.098016            8.161863             -0.870368
| 20>   H                      -3.585737            8.485283             -2.820275
| 21>   H                      -2.383180            7.442190             -3.645396
| 22>   H                      -3.302192            6.826364             -2.326708
| 23> *
| 24>
| 25> #Run DFT-D3 single point of the molecule with dimer basis set
| 26> $new_job
| 27> %base "12-60_DFT_A"
| 28> ! wB97X-D3 def2-TZVP TIGHTSCF CHELPG PMODEL
| 29>
| 30> %scf
| 31> MaxIter 1000
| 32> end
| 33>
| 34> * xyz 0 1
| 35>   C                      1.228255             8.850175             -3.515345
| 36>   O                      1.191600             8.715200             -2.081027
| 37>   H                      0.242599             8.844409             -1.860280
| 38>   H                      1.453714             9.811640             -3.993332
| 39>   H                      1.787758             7.990946             -3.923253
| 40>   H                      0.282204             8.617246             -3.914783
| 41>   C                    : -2.764552            7.689700             -2.700682
| 42>   O                    : -1.783057            8.128319             -1.781473
| 43>   H                    : -2.098016            8.161863             -0.870368
| 44>   H                    : -3.585737            8.485283             -2.820275
| 45>   H                    : -2.383180            7.442190             -3.645396
| 46>   H                    : -3.302192            6.826364             -2.326708
| 47> *
| 48>
| 49> #Run DFT-D3 single point of the particle with dimer basis set
| 50> $new_job
| 51> %base "12-60_DFT_B"
| 52> ! wB97X-D3 def2-TZVP TIGHTSCF CHELPG PMODEL
| 53>
| 54> %scf
| 55> MaxIter 1000
| 56> end
| 57>
| 58> * xyz 0 1
| 59>   C                    : 1.228255             8.850175             -3.515345
| 60>   O                    : 1.191600             8.715200             -2.081027
| 61>   H                    : 0.242599             8.844409             -1.860280
| 62>   H                    : 1.453714             9.811640             -3.993332
| 63>   H                    : 1.787758             7.990946             -3.923253
| 64>   H                    : 0.282204             8.617246             -3.914783
| 65>   C                      -2.764552            7.689700             -2.700682
| 66>   O                      -1.783057            8.128319             -1.781473
| 67>   H                      -2.098016            8.161863             -0.870368
| 68>   H                      -3.585737            8.485283             -2.820275
| 69>   H                      -2.383180            7.442190             -3.645396
| 70>   H                      -3.302192            6.826364             -2.326708
| 71> *
| 72>
| 73>                          ****END OF INPUT****
 Total Charge           Charge          ....    0
 Multiplicity           Mult            ....    1
 Number of Electrons    NEL             ....   36
Dispersion correction           -0.001814647
FINAL SINGLE POINT ENERGY      -231.465758007840
Dispersion correction           -0.000258969
FINAL SINGLE POINT ENERGY      -115.726091911466

CARTESIAN COORDINATES (ANGSTROEM)
---------------------------------
  C      1.228255    8.850175   -3.515345
  O      1.191600    8.715200   -2.081027
  H      0.242599    8.844409   -1.860280
  H      1.453714    9.811640   -3.993332
  H      1.787758    7.990946   -3.923253
  H      0.282204    8.617246   -3.914783
  C     -2.764552    7.689700   -2.700682
  O     -1.783057    8.128319   -1.781473
  H     -2.098016    8.161863   -0.870368
  H     -3.585737    8.485283   -2.820275
  H     -2.383180    7.442190   -3.645396
  H     -3.302192    6.826364   -2.326708

 Multiplicity           Mult            ....    1
 Number of Electrons    NEL             ....   18
 Basis Dimension        Dim             ....  172

ORBITAL ENERGIES
----------------

  NO   OCC          E(Eh)            E(eV)
   0   2.0000     -19.229829      -523.2703
   1   2.0000     -10.314737      -280.6783
   2   2.0000      -1.132291       -30.8112
   3   2.0000      -0.799708       -21.7611
   4   2.0000      -0.613168       -16.6851
   5   2.0000      -0.540544       -14.7090
   6   2.0000      -0.529592       -14.4109
   7   2.0000      -0.430826       -11.7234
   8   2.0000      -0.369694       -10.0599
   9   0.0000       0.100250         2.7279
  10   0.0000       0.123367         3.3570
  11   0.0000       0.149958         4.0806
  12   0.0000       0.195053         5.3077
  13   0.0000       0.198310         5.3963

MULLIKEN ATOMIC CHARGES
-----------------------
   0 C :    0.001038
   1 O :   -0.000231
   2 H :   -0.009088
   3 H :   -0.000099
   4 H :   -0.000043
   5 H :   -0.001218
   6 C :   -0.150331
   7 O :   -0.479184
   8 H :    0.318953
   9 H :    0.090883
  10 H :    0.126359
  11 H :    0.102960
Sum of atomic charges:   -0.0000000

LOEWDIN ATOMIC CHARGES
----------------------
   0 C :   -0.003152
   1 O :   -0.003403
   2 H :   -0.027923
   3 H :   -0.000028
   4 H :   -0.000028
   5 H :   -0.001330
   6 C :   -0.376687
   7 O :   -0.052254
   8 H :    0.171887
   9 H :    0.102579
  10 H :    0.096879
  11 H :    0.093461

  Mayer bond orders larger than 0.1
B(  6-C ,  7-O ) :   0.9921 B(  6-C ,  9-H ) :   0.9771 B(  6-C , 10-H ) :   0.9732
B(  6-C , 11-H ) :   0.9770 B(  7-O ,  8-H ) :   0.8907

Dispersion correction           -0.000254506
FINAL SINGLE POINT ENERGY      -115.732313511669

DIPOLE MOMENT
-------------
                                X             Y             Z
Electronic contribution:      1.48687       0.49459       1.00024
Nuclear contribution   :     -2.08668      -0.69002      -0.78119
                        -----------------------------------------
Total Dipole Moment    :     -0.59981      -0.19543       0.21904
                        -----------------------------------------
Magnitude (a.u.)       :      0.66779
Magnitude (Debye)      :      1.69738

Rotational constants in cm-1:     4.396076     0.819189     0.792856
Rotational constants in MHz : 131791.037232 24558.677203 23769.226004

                             ****ORCA TERMINATED NORMALLY****
TOTAL RUN TIME: 0 days 0 hours 1 minutes 3 seconds 128 msec
