                         Program Version 4.1.2  - RELEASE  -
|  1> #Run DFT-D3 single point of the dimer
|  2> ! wB97X-D3 def2-TZVP TIGHTSCF CHELPG PMODEL PAL8
|  3>
|  4> %base "11-22_DFT_AB"
|  5>
|  6> %scf
|  7> MaxIter 1000
|  8> end
|  9>
| 10> * xyz 0 1
| 11>   C                      -8.448119            2.442185             -5.118233
| 12>   O                      -7.831945            1.753476             -4.059607
| 13>   H                      -8.251878            0.862124             -3.916511
| 14>   H                      -9.518605            2.289483             -5.032777
| 15>   H                      -8.197066            3.464053             -5.152794
| 16>   H                      -8.176135            2.038059             -6.035437
| 17>   C                      -9.377443            -0.722194            -1.786221
| 18>   O                      -9.024279            -1.231015            -3.033294
| 19>   H                      -8.088597            -1.123171            -3.081556
| 20>   H                      -9.541488            0.328002             -1.906169
| 21>   H                      -10.284769           -1.261342            -1.328762
| 22>   H                      -8.513561            -0.847553            -1.098093
| 23> *
| 24>
| 25> #Run DFT-D3 single point of the molecule with dimer basis set
| 26> $new_job
| 27> %base "11-22_DFT_A"
| 28> ! wB97X-D3 def2-TZVP TIGHTSCF CHELPG PMODEL
| 29>
| 30> %scf
| 31> MaxIter 1000
| 32> end
| 33>
| 34> * xyz 0 1
| 35>   C                      -8.448119            2.442185             -5.118233
| 36>   O                      -7.831945            1.753476             -4.059607
| 37>   H                      -8.251878            0.862124             -3.916511
| 38>   H                      -9.518605            2.289483             -5.032777
| 39>   H                      -8.197066            3.464053             -5.152794
| 40>   H                      -8.176135            2.038059             -6.035437
| 41>   C                    : -9.377443            -0.722194            -1.786221
| 42>   O                    : -9.024279            -1.231015            -3.033294
| 43>   H                    : -8.088597            -1.123171            -3.081556
| 44>   H                    : -9.541488            0.328002             -1.906169
| 45>   H                    : -10.284769           -1.261342            -1.328762
| 46>   H                    : -8.513561            -0.847553            -1.098093
| 47> *
| 48>
| 49> #Run DFT-D3 single point of the particle with dimer basis set
| 50> $new_job
| 51> %base "11-22_DFT_B"
| 52> ! wB97X-D3 def2-TZVP TIGHTSCF CHELPG PMODEL
| 53>
| 54> %scf
| 55> MaxIter 1000
| 56> end
| 57>
| 58> * xyz 0 1
| 59>   C                    : -8.448119            2.442185             -5.118233
| 60>   O                    : -7.831945            1.753476             -4.059607
| 61>   H                    : -8.251878            0.862124             -3.916511
| 62>   H                    : -9.518605            2.289483             -5.032777
| 63>   H                    : -8.197066            3.464053             -5.152794
| 64>   H                    : -8.176135            2.038059             -6.035437
| 65>   C                      -9.377443            -0.722194            -1.786221
| 66>   O                      -9.024279            -1.231015            -3.033294
| 67>   H                      -8.088597            -1.123171            -3.081556
| 68>   H                      -9.541488            0.328002             -1.906169
| 69>   H                      -10.284769           -1.261342            -1.328762
| 70>   H                      -8.513561            -0.847553            -1.098093
| 71> *
| 72>
| 73>                          ****END OF INPUT****
 Total Charge           Charge          ....    0
 Multiplicity           Mult            ....    1
 Number of Electrons    NEL             ....   36
Dispersion correction           -0.001627647
FINAL SINGLE POINT ENERGY      -231.465781122133
Dispersion correction           -0.000222118
FINAL SINGLE POINT ENERGY      -115.730490036639

CARTESIAN COORDINATES (ANGSTROEM)
---------------------------------
  C     -8.448119    2.442185   -5.118233
  O     -7.831945    1.753476   -4.059607
  H     -8.251878    0.862124   -3.916511
  H     -9.518605    2.289483   -5.032777
  H     -8.197066    3.464053   -5.152794
  H     -8.176135    2.038059   -6.035437
  C     -9.377443   -0.722194   -1.786221
  O     -9.024279   -1.231015   -3.033294
  H     -8.088597   -1.123171   -3.081556
  H     -9.541488    0.328002   -1.906169
  H    -10.284769   -1.261342   -1.328762
  H     -8.513561   -0.847553   -1.098093

 Multiplicity           Mult            ....    1
 Number of Electrons    NEL             ....   18
 Basis Dimension        Dim             ....  172

ORBITAL ENERGIES
----------------

  NO   OCC          E(Eh)            E(eV)
   0   2.0000     -19.228957      -523.2465
   1   2.0000     -10.316719      -280.7322
   2   2.0000      -1.149871       -31.2896
   3   2.0000      -0.789734       -21.4898
   4   2.0000      -0.616679       -16.7807
   5   2.0000      -0.549862       -14.9625
   6   2.0000      -0.527235       -14.3468
   7   2.0000      -0.432144       -11.7592
   8   2.0000      -0.372847       -10.1457
   9   0.0000       0.086395         2.3509
  10   0.0000       0.120346         3.2748
  11   0.0000       0.155179         4.2226
  12   0.0000       0.179075         4.8729
  13   0.0000       0.192743         5.2448

MULLIKEN ATOMIC CHARGES
-----------------------
   0 C :    0.002542
   1 O :    0.002566
   2 H :   -0.019498
   3 H :   -0.000495
   4 H :   -0.000001
   5 H :   -0.000320
   6 C :   -0.174942
   7 O :   -0.448376
   8 H :    0.315335
   9 H :    0.107426
  10 H :    0.116083
  11 H :    0.099680
Sum of atomic charges:   -0.0000000

LOEWDIN ATOMIC CHARGES
----------------------
   0 C :   -0.000437
   1 O :   -0.001393
   2 H :   -0.016305
   3 H :   -0.000080
   4 H :   -0.000006
   5 H :   -0.000016
   6 C :   -0.403761
   7 O :   -0.044724
   8 H :    0.162791
   9 H :    0.089855
  10 H :    0.116424
  11 H :    0.097652

  Mayer bond orders larger than 0.1
B(  6-C ,  7-O ) :   1.0037 B(  6-C ,  9-H ) :   0.9759 B(  6-C , 10-H ) :   0.9694
B(  6-C , 11-H ) :   0.9903 B(  7-O ,  8-H ) :   0.9014

Dispersion correction           -0.000215683
FINAL SINGLE POINT ENERGY      -115.731394856757

DIPOLE MOMENT
-------------
                                X             Y             Z
Electronic contribution:      0.24406      -0.68800      -1.66155
Nuclear contribution   :      0.22721       0.93712       2.10644
                        -----------------------------------------
Total Dipole Moment    :      0.47127       0.24912       0.44490
                        -----------------------------------------
Magnitude (a.u.)       :      0.69433
Magnitude (Debye)      :      1.76484

Rotational constants in cm-1:     4.144562     0.861749     0.825852
Rotational constants in MHz : 124250.850778 25834.575510 24758.414389

                             ****ORCA TERMINATED NORMALLY****
TOTAL RUN TIME: 0 days 0 hours 1 minutes 14 seconds 97 msec
