                         Program Version 4.1.2  - RELEASE  -
|  1> #Run DFT-D3 single point of the dimer
|  2> ! wB97X-D3 def2-TZVP TIGHTSCF CHELPG PMODEL PAL8
|  3>
|  4> %base "13-61_DFT_AB"
|  5>
|  6> %scf
|  7> MaxIter 1000
|  8> end
|  9>
| 10> * xyz 0 1
| 11>   C                      6.579677             -4.656054            2.098122
| 12>   O                      6.418017             -5.253259            3.379541
| 13>   H                      5.507121             -5.599913            3.333520
| 14>   H                      5.924402             -3.782596            1.864666
| 15>   H                      7.523478             -4.087973            1.999012
| 16>   H                      6.439044             -5.427651            1.315982
| 17>   C                      3.430092             -1.192626            2.065246
| 18>   O                      2.789394             -1.440383            3.271237
| 19>   H                      2.279054             -0.679949            3.535481
| 20>   H                      4.032795             -1.946773            1.773120
| 21>   H                      2.727652             -0.932789            1.217253
| 22>   H                      4.034279             -0.301592            2.073270
| 23> *
| 24>
| 25> #Run DFT-D3 single point of the molecule with dimer basis set
| 26> $new_job
| 27> %base "13-61_DFT_A"
| 28> ! wB97X-D3 def2-TZVP TIGHTSCF CHELPG PMODEL
| 29>
| 30> %scf
| 31> MaxIter 1000
| 32> end
| 33>
| 34> * xyz 0 1
| 35>   C                      6.579677             -4.656054            2.098122
| 36>   O                      6.418017             -5.253259            3.379541
| 37>   H                      5.507121             -5.599913            3.333520
| 38>   H                      5.924402             -3.782596            1.864666
| 39>   H                      7.523478             -4.087973            1.999012
| 40>   H                      6.439044             -5.427651            1.315982
| 41>   C                    : 3.430092             -1.192626            2.065246
| 42>   O                    : 2.789394             -1.440383            3.271237
| 43>   H                    : 2.279054             -0.679949            3.535481
| 44>   H                    : 4.032795             -1.946773            1.773120
| 45>   H                    : 2.727652             -0.932789            1.217253
| 46>   H                    : 4.034279             -0.301592            2.073270
| 47> *
| 48>
| 49> #Run DFT-D3 single point of the particle with dimer basis set
| 50> $new_job
| 51> %base "13-61_DFT_B"
| 52> ! wB97X-D3 def2-TZVP TIGHTSCF CHELPG PMODEL
| 53>
| 54> %scf
| 55> MaxIter 1000
| 56> end
| 57>
| 58> * xyz 0 1
| 59>   C                    : 6.579677             -4.656054            2.098122
| 60>   O                    : 6.418017             -5.253259            3.379541
| 61>   H                    : 5.507121             -5.599913            3.333520
| 62>   H                    : 5.924402             -3.782596            1.864666
| 63>   H                    : 7.523478             -4.087973            1.999012
| 64>   H                    : 6.439044             -5.427651            1.315982
| 65>   C                      3.430092             -1.192626            2.065246
| 66>   O                      2.789394             -1.440383            3.271237
| 67>   H                      2.279054             -0.679949            3.535481
| 68>   H                      4.032795             -1.946773            1.773120
| 69>   H                      2.727652             -0.932789            1.217253
| 70>   H                      4.034279             -0.301592            2.073270
| 71> *
| 72>
| 73>                          ****END OF INPUT****
 Total Charge           Charge          ....    0
 Multiplicity           Mult            ....    1
 Number of Electrons    NEL             ....   36
Dispersion correction           -0.001003093
FINAL SINGLE POINT ENERGY      -231.459272571670
Dispersion correction           -0.000250269
FINAL SINGLE POINT ENERGY      -115.729843480543

CARTESIAN COORDINATES (ANGSTROEM)
---------------------------------
  C      6.579677   -4.656054    2.098122
  O      6.418017   -5.253259    3.379541
  H      5.507121   -5.599913    3.333520
  H      5.924402   -3.782596    1.864666
  H      7.523478   -4.087973    1.999012
  H      6.439044   -5.427651    1.315982
  C      3.430092   -1.192626    2.065246
  O      2.789394   -1.440383    3.271237
  H      2.279054   -0.679949    3.535481
  H      4.032795   -1.946773    1.773120
  H      2.727652   -0.932789    1.217253
  H      4.034279   -0.301592    2.073270

 Multiplicity           Mult            ....    1
 Number of Electrons    NEL             ....   18
 Basis Dimension        Dim             ....  172

ORBITAL ENERGIES
----------------

  NO   OCC          E(Eh)            E(eV)
   0   2.0000     -19.231043      -523.3033
   1   2.0000     -10.303938      -280.3844
   2   2.0000      -1.145061       -31.1587
   3   2.0000      -0.805086       -21.9075
   4   2.0000      -0.622637       -16.9428
   5   2.0000      -0.545620       -14.8471
   6   2.0000      -0.530846       -14.4451
   7   2.0000      -0.438585       -11.9345
   8   2.0000      -0.368871       -10.0375
   9   0.0000       0.089924         2.4470
  10   0.0000       0.117513         3.1977
  11   0.0000       0.154531         4.2050
  12   0.0000       0.171420         4.6646
  13   0.0000       0.191884         5.2214

MULLIKEN ATOMIC CHARGES
-----------------------
   0 C :   -0.000824
   1 O :   -0.000010
   2 H :   -0.000007
   3 H :    0.001675
   4 H :    0.000012
   5 H :    0.000019
   6 C :   -0.164473
   7 O :   -0.471536
   8 H :    0.317484
   9 H :    0.131902
  10 H :    0.087885
  11 H :    0.097874
Sum of atomic charges:    0.0000000

LOEWDIN ATOMIC CHARGES
----------------------
   0 C :   -0.000391
   1 O :   -0.000004
   2 H :   -0.000005
   3 H :   -0.001786
   4 H :   -0.000005
   5 H :   -0.000002
   6 C :   -0.394987
   7 O :   -0.049375
   8 H :    0.168102
   9 H :    0.087608
  10 H :    0.099545
  11 H :    0.091300

  Mayer bond orders larger than 0.1
B(  6-C ,  7-O ) :   1.0170 B(  6-C ,  9-H ) :   0.9716 B(  6-C , 10-H ) :   0.9796
B(  6-C , 11-H ) :   0.9814 B(  7-O ,  8-H ) :   0.8974

Dispersion correction           -0.000235054
FINAL SINGLE POINT ENERGY      -115.729036707948

DIPOLE MOMENT
-------------
                                X             Y             Z
Electronic contribution:     -0.71836      -0.62363       1.68915
Nuclear contribution   :      0.66580       1.20780      -1.97367
                        -----------------------------------------
Total Dipole Moment    :     -0.05256       0.58417      -0.28452
                        -----------------------------------------
Magnitude (a.u.)       :      0.65190
Magnitude (Debye)      :      1.65699

Rotational constants in cm-1:     4.595544     0.850907     0.817517
Rotational constants in MHz : 137770.930131 25509.559622 24508.540528

                             ****ORCA TERMINATED NORMALLY****
TOTAL RUN TIME: 0 days 0 hours 1 minutes 11 seconds 458 msec
