                         Program Version 4.1.2  - RELEASE  -
|  1> #Run DFT-D3 single point of the dimer
|  2> ! wB97X-D3 def2-TZVP TIGHTSCF CHELPG PMODEL PAL8
|  3>
|  4> %base "7-39_DFT_AB"
|  5>
|  6> %scf
|  7> MaxIter 1000
|  8> end
|  9>
| 10> * xyz 0 1
| 11>   C                      4.287323             3.811473             -10.095497
| 12>   O                      5.437001             3.561698             -10.899745
| 13>   H                      5.610883             2.637790             -10.816381
| 14>   H                      3.601199             4.500166             -10.683801
| 15>   H                      3.740410             2.909689             -9.881101
| 16>   H                      4.471084             4.301608             -9.117160
| 17>   C                      3.290816             2.639390             -6.435223
| 18>   O                      2.221507             3.210297             -7.185437
| 19>   H                      1.960015             3.895836             -6.607853
| 20>   H                      3.608396             1.654702             -6.888811
| 21>   H                      4.077403             3.324916             -6.281360
| 22>   H                      2.889501             2.348891             -5.371082
| 23> *
| 24>
| 25> #Run DFT-D3 single point of the molecule with dimer basis set
| 26> $new_job
| 27> %base "7-39_DFT_A"
| 28> ! wB97X-D3 def2-TZVP TIGHTSCF CHELPG PMODEL
| 29>
| 30> %scf
| 31> MaxIter 1000
| 32> end
| 33>
| 34> * xyz 0 1
| 35>   C                      4.287323             3.811473             -10.095497
| 36>   O                      5.437001             3.561698             -10.899745
| 37>   H                      5.610883             2.637790             -10.816381
| 38>   H                      3.601199             4.500166             -10.683801
| 39>   H                      3.740410             2.909689             -9.881101
| 40>   H                      4.471084             4.301608             -9.117160
| 41>   C                    : 3.290816             2.639390             -6.435223
| 42>   O                    : 2.221507             3.210297             -7.185437
| 43>   H                    : 1.960015             3.895836             -6.607853
| 44>   H                    : 3.608396             1.654702             -6.888811
| 45>   H                    : 4.077403             3.324916             -6.281360
| 46>   H                    : 2.889501             2.348891             -5.371082
| 47> *
| 48>
| 49> #Run DFT-D3 single point of the particle with dimer basis set
| 50> $new_job
| 51> %base "7-39_DFT_B"
| 52> ! wB97X-D3 def2-TZVP TIGHTSCF CHELPG PMODEL
| 53>
| 54> %scf
| 55> MaxIter 1000
| 56> end
| 57>
| 58> * xyz 0 1
| 59>   C                    : 4.287323             3.811473             -10.095497
| 60>   O                    : 5.437001             3.561698             -10.899745
| 61>   H                    : 5.610883             2.637790             -10.816381
| 62>   H                    : 3.601199             4.500166             -10.683801
| 63>   H                    : 3.740410             2.909689             -9.881101
| 64>   H                    : 4.471084             4.301608             -9.117160
| 65>   C                      3.290816             2.639390             -6.435223
| 66>   O                      2.221507             3.210297             -7.185437
| 67>   H                      1.960015             3.895836             -6.607853
| 68>   H                      3.608396             1.654702             -6.888811
| 69>   H                      4.077403             3.324916             -6.281360
| 70>   H                      2.889501             2.348891             -5.371082
| 71> *
| 72>
| 73>                          ****END OF INPUT****
 Total Charge           Charge          ....    0
 Multiplicity           Mult            ....    1
 Number of Electrons    NEL             ....   36
Dispersion correction           -0.001654432
FINAL SINGLE POINT ENERGY      -231.464118057201
Dispersion correction           -0.000258314
FINAL SINGLE POINT ENERGY      -115.733469103280

CARTESIAN COORDINATES (ANGSTROEM)
---------------------------------
  C      4.287323    3.811473  -10.095497
  O      5.437001    3.561698  -10.899745
  H      5.610883    2.637790  -10.816381
  H      3.601199    4.500166  -10.683801
  H      3.740410    2.909689   -9.881101
  H      4.471084    4.301608   -9.117160
  C      3.290816    2.639390   -6.435223
  O      2.221507    3.210297   -7.185437
  H      1.960015    3.895836   -6.607853
  H      3.608396    1.654702   -6.888811
  H      4.077403    3.324916   -6.281360
  H      2.889501    2.348891   -5.371082

 Multiplicity           Mult            ....    1
 Number of Electrons    NEL             ....   18
 Basis Dimension        Dim             ....  172

ORBITAL ENERGIES
----------------

  NO   OCC          E(Eh)            E(eV)
   0   2.0000     -19.231381      -523.3125
   1   2.0000     -10.323600      -280.9194
   2   2.0000      -1.145142       -31.1609
   3   2.0000      -0.789744       -21.4900
   4   2.0000      -0.612413       -16.6646
   5   2.0000      -0.543201       -14.7812
   6   2.0000      -0.521164       -14.1816
   7   2.0000      -0.442157       -12.0317
   8   2.0000      -0.374671       -10.1953
   9   0.0000       0.091962         2.5024
  10   0.0000       0.121830         3.3152
  11   0.0000       0.153060         4.1650
  12   0.0000       0.175842         4.7849
  13   0.0000       0.185299         5.0422

MULLIKEN ATOMIC CHARGES
-----------------------
   0 C :    0.002277
   1 O :   -0.000081
   2 H :   -0.000042
   3 H :   -0.000390
   4 H :   -0.001875
   5 H :   -0.002824
   6 C :   -0.183165
   7 O :   -0.455066
   8 H :    0.307592
   9 H :    0.120567
  10 H :    0.117245
  11 H :    0.095762
Sum of atomic charges:    0.0000000

LOEWDIN ATOMIC CHARGES
----------------------
   0 C :   -0.005067
   1 O :   -0.000028
   2 H :   -0.000012
   3 H :   -0.000158
   4 H :   -0.001729
   5 H :   -0.001906
   6 C :   -0.385188
   7 O :   -0.066762
   8 H :    0.154279
   9 H :    0.115937
  10 H :    0.084785
  11 H :    0.105851

  Mayer bond orders larger than 0.1
B(  6-C ,  7-O ) :   0.9862 B(  6-C ,  9-H ) :   0.9736 B(  6-C , 10-H ) :   0.9700
B(  6-C , 11-H ) :   0.9786 B(  7-O ,  8-H ) :   0.9091

Dispersion correction           -0.000225697
FINAL SINGLE POINT ENERGY      -115.728713539721

DIPOLE MOMENT
-------------
                                X             Y             Z
Electronic contribution:     -1.22631       0.72859      -1.24219
Nuclear contribution   :      1.48103      -0.51899       1.88524
                        -----------------------------------------
Total Dipole Moment    :      0.25472       0.20960       0.64304
                        -----------------------------------------
Magnitude (a.u.)       :      0.72272
Magnitude (Debye)      :      1.83700

Rotational constants in cm-1:     4.092421     0.828711     0.795079
Rotational constants in MHz : 122687.697309 24844.138572 23835.855509

                             ****ORCA TERMINATED NORMALLY****
TOTAL RUN TIME: 0 days 0 hours 1 minutes 0 seconds 723 msec
