                         Program Version 4.1.2  - RELEASE  -
|  1> #Run DFT-D3 single point of the dimer
|  2> ! wB97X-D3 def2-TZVP TIGHTSCF CHELPG PMODEL PAL8
|  3>
|  4> %base "7-54_DFT_AB"
|  5>
|  6> %scf
|  7> MaxIter 1000
|  8> end
|  9>
| 10> * xyz 0 1
| 11>   C                      -10.430630           5.965214             -6.659766
| 12>   O                      -11.506915           6.842817             -6.664926
| 13>   H                      -12.269845           6.244401             -6.518812
| 14>   H                      -10.239529           5.594698             -5.660409
| 15>   H                      -10.552653           5.211127             -7.463928
| 16>   H                      -9.466643            6.469908             -6.833632
| 17>   C                      -7.646360            9.044873             -2.935009
| 18>   O                      -6.895352            7.881883             -2.856566
| 19>   H                      -6.917512            7.440230             -2.024012
| 20>   H                      -8.691625            8.860502             -2.725810
| 21>   H                      -7.337985            9.821476             -2.248945
| 22>   H                      -7.476254            9.658602             -3.836094
| 23> *
| 24>
| 25> #Run DFT-D3 single point of the molecule with dimer basis set
| 26> $new_job
| 27> %base "7-54_DFT_A"
| 28> ! wB97X-D3 def2-TZVP TIGHTSCF CHELPG PMODEL
| 29>
| 30> %scf
| 31> MaxIter 1000
| 32> end
| 33>
| 34> * xyz 0 1
| 35>   C                      -10.430630           5.965214             -6.659766
| 36>   O                      -11.506915           6.842817             -6.664926
| 37>   H                      -12.269845           6.244401             -6.518812
| 38>   H                      -10.239529           5.594698             -5.660409
| 39>   H                      -10.552653           5.211127             -7.463928
| 40>   H                      -9.466643            6.469908             -6.833632
| 41>   C                    : -7.646360            9.044873             -2.935009
| 42>   O                    : -6.895352            7.881883             -2.856566
| 43>   H                    : -6.917512            7.440230             -2.024012
| 44>   H                    : -8.691625            8.860502             -2.725810
| 45>   H                    : -7.337985            9.821476             -2.248945
| 46>   H                    : -7.476254            9.658602             -3.836094
| 47> *
| 48>
| 49> #Run DFT-D3 single point of the particle with dimer basis set
| 50> $new_job
| 51> %base "7-54_DFT_B"
| 52> ! wB97X-D3 def2-TZVP TIGHTSCF CHELPG PMODEL
| 53>
| 54> %scf
| 55> MaxIter 1000
| 56> end
| 57>
| 58> * xyz 0 1
| 59>   C                    : -10.430630           5.965214             -6.659766
| 60>   O                    : -11.506915           6.842817             -6.664926
| 61>   H                    : -12.269845           6.244401             -6.518812
| 62>   H                    : -10.239529           5.594698             -5.660409
| 63>   H                    : -10.552653           5.211127             -7.463928
| 64>   H                    : -9.466643            6.469908             -6.833632
| 65>   C                      -7.646360            9.044873             -2.935009
| 66>   O                      -6.895352            7.881883             -2.856566
| 67>   H                      -6.917512            7.440230             -2.024012
| 68>   H                      -8.691625            8.860502             -2.725810
| 69>   H                      -7.337985            9.821476             -2.248945
| 70>   H                      -7.476254            9.658602             -3.836094
| 71> *
| 72>
| 73>                          ****END OF INPUT****
 Total Charge           Charge          ....    0
 Multiplicity           Mult            ....    1
 Number of Electrons    NEL             ....   36
Dispersion correction           -0.000642519
FINAL SINGLE POINT ENERGY      -231.460211158272
Dispersion correction           -0.000219080
FINAL SINGLE POINT ENERGY      -115.731152495648

CARTESIAN COORDINATES (ANGSTROEM)
---------------------------------
  C    -10.430630    5.965214   -6.659766
  O    -11.506915    6.842817   -6.664926
  H    -12.269845    6.244401   -6.518812
  H    -10.239529    5.594698   -5.660409
  H    -10.552653    5.211127   -7.463928
  H     -9.466643    6.469908   -6.833632
  C     -7.646360    9.044873   -2.935009
  O     -6.895352    7.881883   -2.856566
  H     -6.917512    7.440230   -2.024012
  H     -8.691625    8.860502   -2.725810
  H     -7.337985    9.821476   -2.248945
  H     -7.476254    9.658602   -3.836094

 Multiplicity           Mult            ....    1
 Number of Electrons    NEL             ....   18
 Basis Dimension        Dim             ....  172

ORBITAL ENERGIES
----------------

  NO   OCC          E(Eh)            E(eV)
   0   2.0000     -19.227355      -523.2029
   1   2.0000     -10.309730      -280.5420
   2   2.0000      -1.143400       -31.1135
   3   2.0000      -0.803564       -21.8661
   4   2.0000      -0.623585       -16.9686
   5   2.0000      -0.554585       -15.0910
   6   2.0000      -0.521574       -14.1928
   7   2.0000      -0.420373       -11.4389
   8   2.0000      -0.372022       -10.1232
   9   0.0000       0.090212         2.4548
  10   0.0000       0.119643         3.2556
  11   0.0000       0.151043         4.1101
  12   0.0000       0.168544         4.5863
  13   0.0000       0.196674         5.3518

MULLIKEN ATOMIC CHARGES
-----------------------
   0 C :    0.000072
   1 O :   -0.000000
   2 H :    0.000000
   3 H :   -0.000105
   4 H :   -0.000006
   5 H :   -0.000060
   6 C :   -0.153613
   7 O :   -0.482593
   8 H :    0.318670
   9 H :    0.101990
  10 H :    0.095505
  11 H :    0.120140
Sum of atomic charges:   -0.0000000

LOEWDIN ATOMIC CHARGES
----------------------
   0 C :   -0.000019
   1 O :   -0.000003
   2 H :   -0.000000
   3 H :   -0.000027
   4 H :   -0.000001
   5 H :   -0.000013
   6 C :   -0.408792
   7 O :   -0.049050
   8 H :    0.159537
   9 H :    0.092418
  10 H :    0.091380
  11 H :    0.114570

  Mayer bond orders larger than 0.1
B(  6-C ,  7-O ) :   0.9977 B(  6-C ,  9-H ) :   0.9814 B(  6-C , 10-H ) :   0.9753
B(  6-C , 11-H ) :   0.9688 B(  7-O ,  8-H ) :   0.8939

Dispersion correction           -0.000251801
FINAL SINGLE POINT ENERGY      -115.728677780896

DIPOLE MOMENT
-------------
                                X             Y             Z
Electronic contribution:      0.97622      -1.64744      -0.05928
Nuclear contribution   :     -1.26882       1.84379       0.59553
                        -----------------------------------------
Total Dipole Moment    :     -0.29260       0.19635       0.53625
                        -----------------------------------------
Magnitude (a.u.)       :      0.64166
Magnitude (Debye)      :      1.63098

Rotational constants in cm-1:     4.629033     0.839445     0.810448
Rotational constants in MHz : 138774.932952 25165.916767 24296.610990

                             ****ORCA TERMINATED NORMALLY****
TOTAL RUN TIME: 0 days 0 hours 1 minutes 7 seconds 463 msec
