                         Program Version 4.1.2  - RELEASE  -
|  1> #Run DFT-D3 single point of the dimer
|  2> ! wB97X-D3 def2-TZVP TIGHTSCF CHELPG PMODEL PAL8
|  3>
|  4> %base "21-72_DFT_AB"
|  5>
|  6> %scf
|  7> MaxIter 1000
|  8> end
|  9>
| 10> * xyz 0 1
| 11>   C                      3.842016             6.695679             2.250202
| 12>   O                      2.873278             7.246164             1.343030
| 13>   H                      3.031708             6.919436             0.425400
| 14>   H                      3.817862             5.565453             2.173094
| 15>   H                      4.822762             6.953849             1.878522
| 16>   H                      3.663193             7.138407             3.241986
| 17>   C                      -0.209073            7.246687             3.659188
| 18>   O                      -1.346885            8.025318             3.141750
| 19>   H                      -1.003598            8.635182             2.472548
| 20>   H                      0.609450             7.974867             3.989157
| 21>   H                      -0.527729            6.725133             4.575650
| 22>   H                      0.160751             6.566100             2.895262
| 23> *
| 24>
| 25> #Run DFT-D3 single point of the molecule with dimer basis set
| 26> $new_job
| 27> %base "21-72_DFT_A"
| 28> ! wB97X-D3 def2-TZVP TIGHTSCF CHELPG PMODEL
| 29>
| 30> %scf
| 31> MaxIter 1000
| 32> end
| 33>
| 34> * xyz 0 1
| 35>   C                      3.842016             6.695679             2.250202
| 36>   O                      2.873278             7.246164             1.343030
| 37>   H                      3.031708             6.919436             0.425400
| 38>   H                      3.817862             5.565453             2.173094
| 39>   H                      4.822762             6.953849             1.878522
| 40>   H                      3.663193             7.138407             3.241986
| 41>   C                    : -0.209073            7.246687             3.659188
| 42>   O                    : -1.346885            8.025318             3.141750
| 43>   H                    : -1.003598            8.635182             2.472548
| 44>   H                    : 0.609450             7.974867             3.989157
| 45>   H                    : -0.527729            6.725133             4.575650
| 46>   H                    : 0.160751             6.566100             2.895262
| 47> *
| 48>
| 49> #Run DFT-D3 single point of the particle with dimer basis set
| 50> $new_job
| 51> %base "21-72_DFT_B"
| 52> ! wB97X-D3 def2-TZVP TIGHTSCF CHELPG PMODEL
| 53>
| 54> %scf
| 55> MaxIter 1000
| 56> end
| 57>
| 58> * xyz 0 1
| 59>   C                    : 3.842016             6.695679             2.250202
| 60>   O                    : 2.873278             7.246164             1.343030
| 61>   H                    : 3.031708             6.919436             0.425400
| 62>   H                    : 3.817862             5.565453             2.173094
| 63>   H                    : 4.822762             6.953849             1.878522
| 64>   H                    : 3.663193             7.138407             3.241986
| 65>   C                      -0.209073            7.246687             3.659188
| 66>   O                      -1.346885            8.025318             3.141750
| 67>   H                      -1.003598            8.635182             2.472548
| 68>   H                      0.609450             7.974867             3.989157
| 69>   H                      -0.527729            6.725133             4.575650
| 70>   H                      0.160751             6.566100             2.895262
| 71> *
| 72>
| 73>                          ****END OF INPUT****
 Total Charge           Charge          ....    0
 Multiplicity           Mult            ....    1
 Number of Electrons    NEL             ....   36
Dispersion correction           -0.001375875
FINAL SINGLE POINT ENERGY      -231.467455097931
Dispersion correction           -0.000238932
FINAL SINGLE POINT ENERGY      -115.732200829421

CARTESIAN COORDINATES (ANGSTROEM)
---------------------------------
  C      3.842016    6.695679    2.250202
  O      2.873278    7.246164    1.343030
  H      3.031708    6.919436    0.425400
  H      3.817862    5.565453    2.173094
  H      4.822762    6.953849    1.878522
  H      3.663193    7.138407    3.241986
  C     -0.209073    7.246687    3.659188
  O     -1.346885    8.025318    3.141750
  H     -1.003598    8.635182    2.472548
  H      0.609450    7.974867    3.989157
  H     -0.527729    6.725133    4.575650
  H      0.160751    6.566100    2.895262

 Multiplicity           Mult            ....    1
 Number of Electrons    NEL             ....   18
 Basis Dimension        Dim             ....  172

ORBITAL ENERGIES
----------------

  NO   OCC          E(Eh)            E(eV)
   0   2.0000     -19.228597      -523.2367
   1   2.0000     -10.324050      -280.9317
   2   2.0000      -1.116736       -30.3879
   3   2.0000      -0.792067       -21.5532
   4   2.0000      -0.594982       -16.1903
   5   2.0000      -0.540031       -14.6950
   6   2.0000      -0.517649       -14.0859
   7   2.0000      -0.433539       -11.7972
   8   2.0000      -0.374521       -10.1912
   9   0.0000       0.077495         2.1087
  10   0.0000       0.114520         3.1162
  11   0.0000       0.144887         3.9426
  12   0.0000       0.160618         4.3706
  13   0.0000       0.183950         5.0055

MULLIKEN ATOMIC CHARGES
-----------------------
   0 C :   -0.000788
   1 O :    0.000215
   2 H :   -0.000005
   3 H :    0.000031
   4 H :   -0.000049
   5 H :   -0.000460
   6 C :   -0.177499
   7 O :   -0.486322
   8 H :    0.312797
   9 H :    0.106619
  10 H :    0.128280
  11 H :    0.117182
Sum of atomic charges:    0.0000000

LOEWDIN ATOMIC CHARGES
----------------------
   0 C :   -0.001221
   1 O :   -0.000550
   2 H :   -0.000055
   3 H :   -0.000047
   4 H :   -0.000019
   5 H :   -0.000612
   6 C :   -0.349533
   7 O :   -0.126224
   8 H :    0.167056
   9 H :    0.105819
  10 H :    0.110363
  11 H :    0.095022

  Mayer bond orders larger than 0.1
B(  6-C ,  7-O ) :   0.9901 B(  6-C ,  9-H ) :   0.9780 B(  6-C , 10-H ) :   0.9695
B(  6-C , 11-H ) :   0.9687 B(  7-O ,  8-H ) :   0.9013

Dispersion correction           -0.000262623
FINAL SINGLE POINT ENERGY      -115.733216265380

DIPOLE MOMENT
-------------
                                X             Y             Z
Electronic contribution:     -1.49340       0.75065      -0.57596
Nuclear contribution   :      2.18519      -0.70361       0.38858
                        -----------------------------------------
Total Dipole Moment    :      0.69179       0.04704      -0.18738
                        -----------------------------------------
Magnitude (a.u.)       :      0.71826
Magnitude (Debye)      :      1.82567

Rotational constants in cm-1:     4.095007     0.777947     0.754348
Rotational constants in MHz : 122765.225421 23322.272800 22614.797834

                             ****ORCA TERMINATED NORMALLY****
TOTAL RUN TIME: 0 days 0 hours 1 minutes 4 seconds 898 msec
