                         Program Version 4.1.2  - RELEASE  -
|  1> #Run DFT-D3 single point of the dimer
|  2> ! wB97X-D3 def2-TZVP TIGHTSCF CHELPG PMODEL PAL8
|  3>
|  4> %base "4-9_DFT_AB"
|  5>
|  6> %scf
|  7> MaxIter 1000
|  8> end
|  9>
| 10> * xyz 0 1
| 11>   C                      -3.440480            1.608124             -5.363870
| 12>   O                      -4.023051            1.698251             -6.686188
| 13>   H                      -4.350094            0.892071             -7.073146
| 14>   H                      -4.299878            1.217766             -4.707092
| 15>   H                      -2.598717            0.960056             -5.139841
| 16>   H                      -3.210669            2.597576             -4.898620
| 17>   C                      -5.506058            -1.317867            -8.266987
| 18>   O                      -6.144623            -0.197786            -7.648836
| 19>   H                      -6.625206            0.214050             -8.380967
| 20>   H                      -6.295067            -1.864258            -8.774842
| 21>   H                      -4.853261            -0.980029            -9.058349
| 22>   H                      -4.979811            -1.980948            -7.508206
| 23> *
| 24>
| 25> #Run DFT-D3 single point of the molecule with dimer basis set
| 26> $new_job
| 27> %base "4-9_DFT_A"
| 28> ! wB97X-D3 def2-TZVP TIGHTSCF CHELPG PMODEL
| 29>
| 30> %scf
| 31> MaxIter 1000
| 32> end
| 33>
| 34> * xyz 0 1
| 35>   C                      -3.440480            1.608124             -5.363870
| 36>   O                      -4.023051            1.698251             -6.686188
| 37>   H                      -4.350094            0.892071             -7.073146
| 38>   H                      -4.299878            1.217766             -4.707092
| 39>   H                      -2.598717            0.960056             -5.139841
| 40>   H                      -3.210669            2.597576             -4.898620
| 41>   C                    : -5.506058            -1.317867            -8.266987
| 42>   O                    : -6.144623            -0.197786            -7.648836
| 43>   H                    : -6.625206            0.214050             -8.380967
| 44>   H                    : -6.295067            -1.864258            -8.774842
| 45>   H                    : -4.853261            -0.980029            -9.058349
| 46>   H                    : -4.979811            -1.980948            -7.508206
| 47> *
| 48>
| 49> #Run DFT-D3 single point of the particle with dimer basis set
| 50> $new_job
| 51> %base "4-9_DFT_B"
| 52> ! wB97X-D3 def2-TZVP TIGHTSCF CHELPG PMODEL
| 53>
| 54> %scf
| 55> MaxIter 1000
| 56> end
| 57>
| 58> * xyz 0 1
| 59>   C                    : -3.440480            1.608124             -5.363870
| 60>   O                    : -4.023051            1.698251             -6.686188
| 61>   H                    : -4.350094            0.892071             -7.073146
| 62>   H                    : -4.299878            1.217766             -4.707092
| 63>   H                    : -2.598717            0.960056             -5.139841
| 64>   H                    : -3.210669            2.597576             -4.898620
| 65>   C                      -5.506058            -1.317867            -8.266987
| 66>   O                      -6.144623            -0.197786            -7.648836
| 67>   H                      -6.625206            0.214050             -8.380967
| 68>   H                      -6.295067            -1.864258            -8.774842
| 69>   H                      -4.853261            -0.980029            -9.058349
| 70>   H                      -4.979811            -1.980948            -7.508206
| 71> *
| 72>
| 73>                          ****END OF INPUT****
 Total Charge           Charge          ....    0
 Multiplicity           Mult            ....    1
 Number of Electrons    NEL             ....   36
Dispersion correction           -0.001635423
FINAL SINGLE POINT ENERGY      -231.462062230069
Dispersion correction           -0.000299515
FINAL SINGLE POINT ENERGY      -115.724622966217

CARTESIAN COORDINATES (ANGSTROEM)
---------------------------------
  C     -3.440480    1.608124   -5.363870
  O     -4.023051    1.698251   -6.686188
  H     -4.350094    0.892071   -7.073146
  H     -4.299878    1.217766   -4.707092
  H     -2.598717    0.960056   -5.139841
  H     -3.210669    2.597576   -4.898620
  C     -5.506058   -1.317867   -8.266987
  O     -6.144623   -0.197786   -7.648836
  H     -6.625206    0.214050   -8.380967
  H     -6.295067   -1.864258   -8.774842
  H     -4.853261   -0.980029   -9.058349
  H     -4.979811   -1.980948   -7.508206

 Multiplicity           Mult            ....    1
 Number of Electrons    NEL             ....   18
 Basis Dimension        Dim             ....  172

ORBITAL ENERGIES
----------------

  NO   OCC          E(Eh)            E(eV)
   0   2.0000     -19.230093      -523.2774
   1   2.0000     -10.317014      -280.7402
   2   2.0000      -1.133102       -30.8333
   3   2.0000      -0.790506       -21.5108
   4   2.0000      -0.608210       -16.5502
   5   2.0000      -0.540633       -14.7114
   6   2.0000      -0.524275       -14.2663
   7   2.0000      -0.440462       -11.9856
   8   2.0000      -0.370746       -10.0885
   9   0.0000       0.095534         2.5996
  10   0.0000       0.118016         3.2114
  11   0.0000       0.153431         4.1751
  12   0.0000       0.189911         5.1677
  13   0.0000       0.190902         5.1947

MULLIKEN ATOMIC CHARGES
-----------------------
   0 C :    0.000193
   1 O :   -0.000339
   2 H :   -0.005485
   3 H :   -0.000823
   4 H :   -0.000082
   5 H :   -0.000025
   6 C :   -0.183842
   7 O :   -0.473001
   8 H :    0.313017
   9 H :    0.110528
  10 H :    0.114094
  11 H :    0.125766
Sum of atomic charges:    0.0000000

LOEWDIN ATOMIC CHARGES
----------------------
   0 C :   -0.000915
   1 O :   -0.005462
   2 H :   -0.025011
   3 H :   -0.000321
   4 H :   -0.000012
   5 H :   -0.000012
   6 C :   -0.376712
   7 O :   -0.073142
   8 H :    0.174314
   9 H :    0.095470
  10 H :    0.092701
  11 H :    0.119102

  Mayer bond orders larger than 0.1
B(  6-C ,  7-O ) :   0.9685 B(  6-C ,  9-H ) :   0.9814 B(  6-C , 10-H ) :   0.9762
B(  6-C , 11-H ) :   0.9701 B(  7-O ,  8-H ) :   0.9001

Dispersion correction           -0.000216502
FINAL SINGLE POINT ENERGY      -115.732306079047

DIPOLE MOMENT
-------------
                                X             Y             Z
Electronic contribution:     -0.65163       1.34241       0.97302
Nuclear contribution   :      0.59418      -1.54928      -1.69010
                        -----------------------------------------
Total Dipole Moment    :     -0.05745      -0.20688      -0.71708
                        -----------------------------------------
Magnitude (a.u.)       :      0.74853
Magnitude (Debye)      :      1.90262

Rotational constants in cm-1:     4.140072     0.832568     0.789566
Rotational constants in MHz : 124116.237607 24959.773617 23670.597790

                             ****ORCA TERMINATED NORMALLY****
TOTAL RUN TIME: 0 days 0 hours 1 minutes 32 seconds 990 msec
