                         Program Version 4.1.2  - RELEASE  -
|  1> #Run DFT-D3 single point of the dimer
|  2> ! wB97X-D3 def2-TZVP TIGHTSCF CHELPG PMODEL PAL8
|  3>
|  4> %base "2-164_DFT_AB"
|  5>
|  6> %scf
|  7> MaxIter 1000
|  8> end
|  9>
| 10> * xyz 0 1
| 11>   C                      -5.133653            6.341155             4.742406
| 12>   O                      -5.119965            5.757814             5.996789
| 13>   H                      -4.614317            6.391830             6.569836
| 14>   H                      -5.439715            7.357164             4.755278
| 15>   H                      -4.234583            6.205325             4.158552
| 16>   H                      -5.880882            5.822539             4.108501
| 17>   C                      -4.602138            1.634884             6.062380
| 18>   O                      -5.510830            2.685958             5.751689
| 19>   H                      -5.954040            2.791662             6.614522
| 20>   H                      -5.100692            0.938811             6.756365
| 21>   H                      -4.443054            0.931583             5.176692
| 22>   H                      -3.641260            1.881957             6.524378
| 23> *
| 24>
| 25> #Run DFT-D3 single point of the molecule with dimer basis set
| 26> $new_job
| 27> %base "2-164_DFT_A"
| 28> ! wB97X-D3 def2-TZVP TIGHTSCF CHELPG PMODEL
| 29>
| 30> %scf
| 31> MaxIter 1000
| 32> end
| 33>
| 34> * xyz 0 1
| 35>   C                      -5.133653            6.341155             4.742406
| 36>   O                      -5.119965            5.757814             5.996789
| 37>   H                      -4.614317            6.391830             6.569836
| 38>   H                      -5.439715            7.357164             4.755278
| 39>   H                      -4.234583            6.205325             4.158552
| 40>   H                      -5.880882            5.822539             4.108501
| 41>   C                    : -4.602138            1.634884             6.062380
| 42>   O                    : -5.510830            2.685958             5.751689
| 43>   H                    : -5.954040            2.791662             6.614522
| 44>   H                    : -5.100692            0.938811             6.756365
| 45>   H                    : -4.443054            0.931583             5.176692
| 46>   H                    : -3.641260            1.881957             6.524378
| 47> *
| 48>
| 49> #Run DFT-D3 single point of the particle with dimer basis set
| 50> $new_job
| 51> %base "2-164_DFT_B"
| 52> ! wB97X-D3 def2-TZVP TIGHTSCF CHELPG PMODEL
| 53>
| 54> %scf
| 55> MaxIter 1000
| 56> end
| 57>
| 58> * xyz 0 1
| 59>   C                    : -5.133653            6.341155             4.742406
| 60>   O                    : -5.119965            5.757814             5.996789
| 61>   H                    : -4.614317            6.391830             6.569836
| 62>   H                    : -5.439715            7.357164             4.755278
| 63>   H                    : -4.234583            6.205325             4.158552
| 64>   H                    : -5.880882            5.822539             4.108501
| 65>   C                      -4.602138            1.634884             6.062380
| 66>   O                      -5.510830            2.685958             5.751689
| 67>   H                      -5.954040            2.791662             6.614522
| 68>   H                      -5.100692            0.938811             6.756365
| 69>   H                      -4.443054            0.931583             5.176692
| 70>   H                      -3.641260            1.881957             6.524378
| 71> *
| 72>
| 73>                          ****END OF INPUT****
 Total Charge           Charge          ....    0
 Multiplicity           Mult            ....    1
 Number of Electrons    NEL             ....   36
Dispersion correction           -0.001325654
FINAL SINGLE POINT ENERGY      -231.460612668276
Dispersion correction           -0.000231123
FINAL SINGLE POINT ENERGY      -115.732881156663

CARTESIAN COORDINATES (ANGSTROEM)
---------------------------------
  C     -5.133653    6.341155    4.742406
  O     -5.119965    5.757814    5.996789
  H     -4.614317    6.391830    6.569836
  H     -5.439715    7.357164    4.755278
  H     -4.234583    6.205325    4.158552
  H     -5.880882    5.822539    4.108501
  C     -4.602138    1.634884    6.062380
  O     -5.510830    2.685958    5.751689
  H     -5.954040    2.791662    6.614522
  H     -5.100692    0.938811    6.756365
  H     -4.443054    0.931583    5.176692
  H     -3.641260    1.881957    6.524378

 Multiplicity           Mult            ....    1
 Number of Electrons    NEL             ....   18
 Basis Dimension        Dim             ....  172

ORBITAL ENERGIES
----------------

  NO   OCC          E(Eh)            E(eV)
   0   2.0000     -19.239084      -523.5221
   1   2.0000     -10.320971      -280.8479
   2   2.0000      -1.138682       -30.9851
   3   2.0000      -0.789497       -21.4833
   4   2.0000      -0.609193       -16.5770
   5   2.0000      -0.543747       -14.7961
   6   2.0000      -0.522108       -14.2073
   7   2.0000      -0.432814       -11.7775
   8   2.0000      -0.379989       -10.3400
   9   0.0000       0.092459         2.5159
  10   0.0000       0.116544         3.1713
  11   0.0000       0.148935         4.0527
  12   0.0000       0.174312         4.7433
  13   0.0000       0.192289         5.2324

MULLIKEN ATOMIC CHARGES
-----------------------
   0 C :   -0.004465
   1 O :    0.000204
   2 H :    0.000032
   3 H :   -0.000106
   4 H :   -0.000007
   5 H :   -0.000666
   6 C :   -0.190565
   7 O :   -0.451433
   8 H :    0.319789
   9 H :    0.103044
  10 H :    0.116093
  11 H :    0.108081
Sum of atomic charges:   -0.0000000

LOEWDIN ATOMIC CHARGES
----------------------
   0 C :   -0.003628
   1 O :   -0.005897
   2 H :   -0.000367
   3 H :   -0.000075
   4 H :   -0.000154
   5 H :   -0.000750
   6 C :   -0.400677
   7 O :   -0.078806
   8 H :    0.184596
   9 H :    0.096833
  10 H :    0.115149
  11 H :    0.093776

  Mayer bond orders larger than 0.1
B(  6-C ,  7-O ) :   1.0093 B(  6-C ,  9-H ) :   0.9879 B(  6-C , 10-H ) :   0.9733
B(  6-C , 11-H ) :   0.9609 B(  7-O ,  8-H ) :   0.8980

Dispersion correction           -0.000250574
FINAL SINGLE POINT ENERGY      -115.729106050577

DIPOLE MOMENT
-------------
                                X             Y             Z
Electronic contribution:     -1.05189       1.58662      -0.58913
Nuclear contribution   :      1.09720      -1.95802       1.25398
                        -----------------------------------------
Total Dipole Moment    :      0.04531      -0.37140       0.66485
                        -----------------------------------------
Magnitude (a.u.)       :      0.76290
Magnitude (Debye)      :      1.93914

Rotational constants in cm-1:     4.207515     0.815200     0.788820
Rotational constants in MHz : 126138.117507 24439.089503 23648.226677

                             ****ORCA TERMINATED NORMALLY****
TOTAL RUN TIME: 0 days 0 hours 6 minutes 26 seconds 177 msec
