                         Program Version 4.1.2  - RELEASE  -
|  1> #Run DFT-D3 single point of the dimer
|  2> ! wB97X-D3 def2-TZVP TIGHTSCF CHELPG PMODEL PAL8
|  3>
|  4> %base "10-55_DFT_AB"
|  5>
|  6> %scf
|  7> MaxIter 1000
|  8> end
|  9>
| 10> * xyz 0 1
| 11>   C                      6.640702             1.118679             1.001048
| 12>   O                      7.266035             -0.143782            1.123999
| 13>   H                      7.994274             -0.063849            0.473445
| 14>   H                      5.730766             1.058960             0.469523
| 15>   H                      6.333335             1.429739             2.003741
| 16>   H                      7.222567             1.942048             0.618447
| 17>   C                      4.262847             0.709514             5.516234
| 18>   O                      3.249038             1.221760             4.607938
| 19>   H                      2.759917             0.525777             4.274813
| 20>   H                      5.064640             1.369477             5.723628
| 21>   H                      3.836143             0.461897             6.456810
| 22>   H                      4.748013             -0.205630            5.211231
| 23> *
| 24>
| 25> #Run DFT-D3 single point of the molecule with dimer basis set
| 26> $new_job
| 27> %base "10-55_DFT_A"
| 28> ! wB97X-D3 def2-TZVP TIGHTSCF CHELPG PMODEL
| 29>
| 30> %scf
| 31> MaxIter 1000
| 32> end
| 33>
| 34> * xyz 0 1
| 35>   C                      6.640702             1.118679             1.001048
| 36>   O                      7.266035             -0.143782            1.123999
| 37>   H                      7.994274             -0.063849            0.473445
| 38>   H                      5.730766             1.058960             0.469523
| 39>   H                      6.333335             1.429739             2.003741
| 40>   H                      7.222567             1.942048             0.618447
| 41>   C                    : 4.262847             0.709514             5.516234
| 42>   O                    : 3.249038             1.221760             4.607938
| 43>   H                    : 2.759917             0.525777             4.274813
| 44>   H                    : 5.064640             1.369477             5.723628
| 45>   H                    : 3.836143             0.461897             6.456810
| 46>   H                    : 4.748013             -0.205630            5.211231
| 47> *
| 48>
| 49> #Run DFT-D3 single point of the particle with dimer basis set
| 50> $new_job
| 51> %base "10-55_DFT_B"
| 52> ! wB97X-D3 def2-TZVP TIGHTSCF CHELPG PMODEL
| 53>
| 54> %scf
| 55> MaxIter 1000
| 56> end
| 57>
| 58> * xyz 0 1
| 59>   C                    : 6.640702             1.118679             1.001048
| 60>   O                    : 7.266035             -0.143782            1.123999
| 61>   H                    : 7.994274             -0.063849            0.473445
| 62>   H                    : 5.730766             1.058960             0.469523
| 63>   H                    : 6.333335             1.429739             2.003741
| 64>   H                    : 7.222567             1.942048             0.618447
| 65>   C                      4.262847             0.709514             5.516234
| 66>   O                      3.249038             1.221760             4.607938
| 67>   H                      2.759917             0.525777             4.274813
| 68>   H                      5.064640             1.369477             5.723628
| 69>   H                      3.836143             0.461897             6.456810
| 70>   H                      4.748013             -0.205630            5.211231
| 71> *
| 72>
| 73>                          ****END OF INPUT****
 Total Charge           Charge          ....    0
 Multiplicity           Mult            ....    1
 Number of Electrons    NEL             ....   36
Dispersion correction           -0.000840498
FINAL SINGLE POINT ENERGY      -231.460965100303
Dispersion correction           -0.000239590
FINAL SINGLE POINT ENERGY      -115.731227203017

CARTESIAN COORDINATES (ANGSTROEM)
---------------------------------
  C      6.640702    1.118679    1.001048
  O      7.266035   -0.143782    1.123999
  H      7.994274   -0.063849    0.473445
  H      5.730766    1.058960    0.469523
  H      6.333335    1.429739    2.003741
  H      7.222567    1.942048    0.618447
  C      4.262847    0.709514    5.516234
  O      3.249038    1.221760    4.607938
  H      2.759917    0.525777    4.274813
  H      5.064640    1.369477    5.723628
  H      3.836143    0.461897    6.456810
  H      4.748013   -0.205630    5.211231

 Multiplicity           Mult            ....    1
 Number of Electrons    NEL             ....   18
 Basis Dimension        Dim             ....  172

ORBITAL ENERGIES
----------------

  NO   OCC          E(Eh)            E(eV)
   0   2.0000     -19.227163      -523.1977
   1   2.0000     -10.308906      -280.5196
   2   2.0000      -1.133590       -30.8465
   3   2.0000      -0.811296       -22.0765
   4   2.0000      -0.613858       -16.7039
   5   2.0000      -0.538320       -14.6484
   6   2.0000      -0.527724       -14.3601
   7   2.0000      -0.439006       -11.9460
   8   2.0000      -0.377521       -10.2729
   9   0.0000       0.088961         2.4207
  10   0.0000       0.121066         3.2944
  11   0.0000       0.149419         4.0659
  12   0.0000       0.170957         4.6520
  13   0.0000       0.196876         5.3573

MULLIKEN ATOMIC CHARGES
-----------------------
   0 C :    0.000237
   1 O :   -0.000004
   2 H :   -0.000001
   3 H :   -0.000055
   4 H :   -0.000701
   5 H :   -0.000050
   6 C :   -0.169292
   7 O :   -0.475726
   8 H :    0.305638
   9 H :    0.126632
  10 H :    0.108812
  11 H :    0.104510
Sum of atomic charges:    0.0000000

LOEWDIN ATOMIC CHARGES
----------------------
   0 C :   -0.000173
   1 O :   -0.000012
   2 H :   -0.000001
   3 H :   -0.000021
   4 H :   -0.000334
   5 H :   -0.000004
   6 C :   -0.345232
   7 O :   -0.077219
   8 H :    0.134584
   9 H :    0.101983
  10 H :    0.091393
  11 H :    0.095036

  Mayer bond orders larger than 0.1
B(  6-C ,  7-O ) :   0.9887 B(  6-C ,  9-H ) :   0.9751 B(  6-C , 10-H ) :   0.9805
B(  6-C , 11-H ) :   0.9779 B(  7-O ,  8-H ) :   0.9114

Dispersion correction           -0.000262244
FINAL SINGLE POINT ENERGY      -115.728848064380

DIPOLE MOMENT
-------------
                                X             Y             Z
Electronic contribution:     -1.23884       0.83007      -1.18651
Nuclear contribution   :      1.36537      -1.51876       1.36862
                        -----------------------------------------
Total Dipole Moment    :      0.12653      -0.68869       0.18212
                        -----------------------------------------
Magnitude (a.u.)       :      0.72352
Magnitude (Debye)      :      1.83903

Rotational constants in cm-1:     4.748275     0.786666     0.761967
Rotational constants in MHz : 142349.694947 23583.651325 22843.205126

                             ****ORCA TERMINATED NORMALLY****
TOTAL RUN TIME: 0 days 0 hours 1 minutes 3 seconds 683 msec
