                         Program Version 4.1.2  - RELEASE  -
|  1> #Run DFT-D3 single point of the dimer
|  2> ! wB97X-D3 def2-TZVP TIGHTSCF CHELPG PMODEL PAL8
|  3>
|  4> %base "16-23_DFT_AB"
|  5>
|  6> %scf
|  7> MaxIter 1000
|  8> end
|  9>
| 10> * xyz 0 1
| 11>   C                      4.271779             4.712240             5.343485
| 12>   O                      4.861457             5.690898             4.454410
| 13>   H                      4.587557             5.662843             3.570705
| 14>   H                      4.713760             3.664029             5.121006
| 15>   H                      4.705710             4.923602             6.335144
| 16>   H                      3.190266             4.808637             5.377588
| 17>   C                      6.702892             0.779702             7.600748
| 18>   O                      7.121883             1.692307             6.609128
| 19>   H                      7.273720             2.593465             6.912985
| 20>   H                      7.038373             1.054997             8.600324
| 21>   H                      5.597028             0.886269             7.755625
| 22>   H                      6.986620             -0.200158            7.380845
| 23> *
| 24>
| 25> #Run DFT-D3 single point of the molecule with dimer basis set
| 26> $new_job
| 27> %base "16-23_DFT_A"
| 28> ! wB97X-D3 def2-TZVP TIGHTSCF CHELPG PMODEL
| 29>
| 30> %scf
| 31> MaxIter 1000
| 32> end
| 33>
| 34> * xyz 0 1
| 35>   C                      4.271779             4.712240             5.343485
| 36>   O                      4.861457             5.690898             4.454410
| 37>   H                      4.587557             5.662843             3.570705
| 38>   H                      4.713760             3.664029             5.121006
| 39>   H                      4.705710             4.923602             6.335144
| 40>   H                      3.190266             4.808637             5.377588
| 41>   C                    : 6.702892             0.779702             7.600748
| 42>   O                    : 7.121883             1.692307             6.609128
| 43>   H                    : 7.273720             2.593465             6.912985
| 44>   H                    : 7.038373             1.054997             8.600324
| 45>   H                    : 5.597028             0.886269             7.755625
| 46>   H                    : 6.986620             -0.200158            7.380845
| 47> *
| 48>
| 49> #Run DFT-D3 single point of the particle with dimer basis set
| 50> $new_job
| 51> %base "16-23_DFT_B"
| 52> ! wB97X-D3 def2-TZVP TIGHTSCF CHELPG PMODEL
| 53>
| 54> %scf
| 55> MaxIter 1000
| 56> end
| 57>
| 58> * xyz 0 1
| 59>   C                    : 4.271779             4.712240             5.343485
| 60>   O                    : 4.861457             5.690898             4.454410
| 61>   H                    : 4.587557             5.662843             3.570705
| 62>   H                    : 4.713760             3.664029             5.121006
| 63>   H                    : 4.705710             4.923602             6.335144
| 64>   H                    : 3.190266             4.808637             5.377588
| 65>   C                      6.702892             0.779702             7.600748
| 66>   O                      7.121883             1.692307             6.609128
| 67>   H                      7.273720             2.593465             6.912985
| 68>   H                      7.038373             1.054997             8.600324
| 69>   H                      5.597028             0.886269             7.755625
| 70>   H                      6.986620             -0.200158            7.380845
| 71> *
| 72>
| 73>                          ****END OF INPUT****
 Total Charge           Charge          ....    0
 Multiplicity           Mult            ....    1
 Number of Electrons    NEL             ....   36
Dispersion correction           -0.001070538
FINAL SINGLE POINT ENERGY      -231.461039163368
Dispersion correction           -0.000280228
FINAL SINGLE POINT ENERGY      -115.729108365661

CARTESIAN COORDINATES (ANGSTROEM)
---------------------------------
  C      4.271779    4.712240    5.343485
  O      4.861457    5.690898    4.454410
  H      4.587557    5.662843    3.570705
  H      4.713760    3.664029    5.121006
  H      4.705710    4.923602    6.335144
  H      3.190266    4.808637    5.377588
  C      6.702892    0.779702    7.600748
  O      7.121883    1.692307    6.609128
  H      7.273720    2.593465    6.912985
  H      7.038373    1.054997    8.600324
  H      5.597028    0.886269    7.755625
  H      6.986620   -0.200158    7.380845

 Multiplicity           Mult            ....    1
 Number of Electrons    NEL             ....   18
 Basis Dimension        Dim             ....  172

ORBITAL ENERGIES
----------------

  NO   OCC          E(Eh)            E(eV)
   0   2.0000     -19.227572      -523.2088
   1   2.0000     -10.311764      -280.5974
   2   2.0000      -1.131565       -30.7914
   3   2.0000      -0.801802       -21.8182
   4   2.0000      -0.616690       -16.7810
   5   2.0000      -0.546938       -14.8829
   6   2.0000      -0.522899       -14.2288
   7   2.0000      -0.429996       -11.7008
   8   2.0000      -0.368104       -10.0166
   9   0.0000       0.084630         2.3029
  10   0.0000       0.118398         3.2218
  11   0.0000       0.152860         4.1595
  12   0.0000       0.167866         4.5679
  13   0.0000       0.190320         5.1789

MULLIKEN ATOMIC CHARGES
-----------------------
   0 C :    0.001031
   1 O :   -0.000008
   2 H :   -0.000010
   3 H :   -0.003954
   4 H :   -0.000619
   5 H :   -0.000183
   6 C :   -0.146092
   7 O :   -0.491449
   8 H :    0.321572
   9 H :    0.097323
  10 H :    0.096960
  11 H :    0.125428
Sum of atomic charges:    0.0000000

LOEWDIN ATOMIC CHARGES
----------------------
   0 C :   -0.000900
   1 O :   -0.000014
   2 H :   -0.000000
   3 H :   -0.002118
   4 H :   -0.000284
   5 H :   -0.000013
   6 C :   -0.377536
   7 O :   -0.078569
   8 H :    0.169361
   9 H :    0.094125
  10 H :    0.100937
  11 H :    0.095010

  Mayer bond orders larger than 0.1
B(  6-C ,  7-O ) :   0.9967 B(  6-C ,  9-H ) :   0.9814 B(  6-C , 10-H ) :   0.9774
B(  6-C , 11-H ) :   0.9725 B(  7-O ,  8-H ) :   0.8906

Dispersion correction           -0.000253015
FINAL SINGLE POINT ENERGY      -115.730944326486

DIPOLE MOMENT
-------------
                                X             Y             Z
Electronic contribution:      0.67152       0.92444      -1.41916
Nuclear contribution   :     -0.71300      -0.70675       2.05301
                        -----------------------------------------
Total Dipole Moment    :     -0.04148       0.21769       0.63385
                        -----------------------------------------
Magnitude (a.u.)       :      0.67147
Magnitude (Debye)      :      1.70675

Rotational constants in cm-1:     4.459442     0.826406     0.795594
Rotational constants in MHz : 133690.710579 24775.014705 23851.293735

                             ****ORCA TERMINATED NORMALLY****
TOTAL RUN TIME: 0 days 0 hours 0 minutes 53 seconds 73 msec
