                         Program Version 4.1.2  - RELEASE  -
|  1> #Run DFT-D3 single point of the dimer
|  2> ! wB97X-D3 def2-TZVP TIGHTSCF CHELPG PMODEL PAL8
|  3>
|  4> %base "18-183_DFT_AB"
|  5>
|  6> %scf
|  7> MaxIter 1000
|  8> end
|  9>
| 10> * xyz 0 1
| 11>   C                      9.787844             2.152567             -10.184364
| 12>   O                      8.841214             3.115848             -10.503385
| 13>   H                      7.997305             3.046407             -10.016759
| 14>   H                      9.332874             1.321949             -9.644591
| 15>   H                      10.278225            1.725676             -11.109056
| 16>   H                      10.528190            2.590519             -9.499628
| 17>   C                      9.434943             5.210073             -7.819585
| 18>   O                      9.248454             5.607098             -9.157237
| 19>   H                      9.460507             4.853923             -9.707023
| 20>   H                      10.546848            5.095713             -7.645145
| 21>   H                      9.110706             5.850167             -7.060190
| 22>   H                      8.814741             4.330477             -7.540248
| 23> *
| 24>
| 25> #Run DFT-D3 single point of the molecule with dimer basis set
| 26> $new_job
| 27> %base "18-183_DFT_A"
| 28> ! wB97X-D3 def2-TZVP TIGHTSCF CHELPG PMODEL
| 29>
| 30> %scf
| 31> MaxIter 1000
| 32> end
| 33>
| 34> * xyz 0 1
| 35>   C                      9.787844             2.152567             -10.184364
| 36>   O                      8.841214             3.115848             -10.503385
| 37>   H                      7.997305             3.046407             -10.016759
| 38>   H                      9.332874             1.321949             -9.644591
| 39>   H                      10.278225            1.725676             -11.109056
| 40>   H                      10.528190            2.590519             -9.499628
| 41>   C                    : 9.434943             5.210073             -7.819585
| 42>   O                    : 9.248454             5.607098             -9.157237
| 43>   H                    : 9.460507             4.853923             -9.707023
| 44>   H                    : 10.546848            5.095713             -7.645145
| 45>   H                    : 9.110706             5.850167             -7.060190
| 46>   H                    : 8.814741             4.330477             -7.540248
| 47> *
| 48>
| 49> #Run DFT-D3 single point of the particle with dimer basis set
| 50> $new_job
| 51> %base "18-183_DFT_B"
| 52> ! wB97X-D3 def2-TZVP TIGHTSCF CHELPG PMODEL
| 53>
| 54> %scf
| 55> MaxIter 1000
| 56> end
| 57>
| 58> * xyz 0 1
| 59>   C                    : 9.787844             2.152567             -10.184364
| 60>   O                    : 8.841214             3.115848             -10.503385
| 61>   H                    : 7.997305             3.046407             -10.016759
| 62>   H                    : 9.332874             1.321949             -9.644591
| 63>   H                    : 10.278225            1.725676             -11.109056
| 64>   H                    : 10.528190            2.590519             -9.499628
| 65>   C                      9.434943             5.210073             -7.819585
| 66>   O                      9.248454             5.607098             -9.157237
| 67>   H                      9.460507             4.853923             -9.707023
| 68>   H                      10.546848            5.095713             -7.645145
| 69>   H                      9.110706             5.850167             -7.060190
| 70>   H                      8.814741             4.330477             -7.540248
| 71> *
| 72>
| 73>                          ****END OF INPUT****
 Total Charge           Charge          ....    0
 Multiplicity           Mult            ....    1
 Number of Electrons    NEL             ....   36
Dispersion correction           -0.002196333
FINAL SINGLE POINT ENERGY      -231.468604401797
Dispersion correction           -0.000249822
FINAL SINGLE POINT ENERGY      -115.733476663018

CARTESIAN COORDINATES (ANGSTROEM)
---------------------------------
  C      9.787844    2.152567  -10.184364
  O      8.841214    3.115848  -10.503385
  H      7.997305    3.046407  -10.016759
  H      9.332874    1.321949   -9.644591
  H     10.278225    1.725676  -11.109056
  H     10.528190    2.590519   -9.499628
  C      9.434943    5.210073   -7.819585
  O      9.248454    5.607098   -9.157237
  H      9.460507    4.853923   -9.707023
  H     10.546848    5.095713   -7.645145
  H      9.110706    5.850167   -7.060190
  H      8.814741    4.330477   -7.540248

 Multiplicity           Mult            ....    1
 Number of Electrons    NEL             ....   18
 Basis Dimension        Dim             ....  172

ORBITAL ENERGIES
----------------

  NO   OCC          E(Eh)            E(eV)
   0   2.0000     -19.232696      -523.3483
   1   2.0000     -10.313605      -280.6474
   2   2.0000      -1.140507       -31.0348
   3   2.0000      -0.799257       -21.7489
   4   2.0000      -0.608592       -16.5606
   5   2.0000      -0.549426       -14.9506
   6   2.0000      -0.533589       -14.5197
   7   2.0000      -0.423825       -11.5329
   8   2.0000      -0.375990       -10.2312
   9   0.0000       0.070907         1.9295
  10   0.0000       0.141028         3.8376
  11   0.0000       0.145854         3.9689
  12   0.0000       0.158126         4.3028
  13   0.0000       0.194988         5.3059

MULLIKEN ATOMIC CHARGES
-----------------------
   0 C :   -0.001326
   1 O :   -0.005885
   2 H :   -0.001800
   3 H :   -0.000179
   4 H :    0.000094
   5 H :    0.000290
   6 C :   -0.184297
   7 O :   -0.460834
   8 H :    0.320010
   9 H :    0.102923
  10 H :    0.130254
  11 H :    0.100750
Sum of atomic charges:    0.0000000

LOEWDIN ATOMIC CHARGES
----------------------
   0 C :   -0.006013
   1 O :   -0.016704
   2 H :   -0.003454
   3 H :   -0.000111
   4 H :   -0.000059
   5 H :   -0.001697
   6 C :   -0.395018
   7 O :   -0.055835
   8 H :    0.176216
   9 H :    0.104907
  10 H :    0.096625
  11 H :    0.101142

  Mayer bond orders larger than 0.1
B(  6-C ,  7-O ) :   0.9997 B(  6-C ,  9-H ) :   0.9868 B(  6-C , 10-H ) :   0.9692
B(  6-C , 11-H ) :   0.9725 B(  7-O ,  8-H ) :   0.9024

Dispersion correction           -0.000244474
FINAL SINGLE POINT ENERGY      -115.728345616266

DIPOLE MOMENT
-------------
                                X             Y             Z
Electronic contribution:     -0.33331       0.73338      -1.73819
Nuclear contribution   :      0.50628      -1.32296       1.94389
                        -----------------------------------------
Total Dipole Moment    :      0.17297      -0.58959       0.20570
                        -----------------------------------------
Magnitude (a.u.)       :      0.64795
Magnitude (Debye)      :      1.64696

Rotational constants in cm-1:     4.396376     0.818369     0.810906
Rotational constants in MHz : 131800.050951 24534.082921 24310.351492

                             ****ORCA TERMINATED NORMALLY****
TOTAL RUN TIME: 0 days 0 hours 1 minutes 2 seconds 89 msec
