                         Program Version 4.1.2  - RELEASE  -
|  1> #Run DFT-D3 single point of the dimer
|  2> ! wB97X-D3 def2-TZVP TIGHTSCF CHELPG PMODEL PAL8
|  3>
|  4> %base "9-152_DFT_AB"
|  5>
|  6> %scf
|  7> MaxIter 1000
|  8> end
|  9>
| 10> * xyz 0 1
| 11>   C                      10.075611            6.830938             -8.894365
| 12>   O                      8.833961             6.302375             -8.430890
| 13>   H                      8.378268             6.007736             -9.213528
| 14>   H                      10.782056            7.052458             -8.123057
| 15>   H                      10.633551            6.010513             -9.486578
| 16>   H                      10.056742            7.765154             -9.460617
| 17>   C                      5.587614             4.649970             -9.980250
| 18>   O                      6.000144             5.824287             -9.369973
| 19>   H                      5.776454             5.741417             -8.392991
| 20>   H                      5.404867             4.789464             -11.041357
| 21>   H                      6.450289             3.993672             -9.861821
| 22>   H                      4.703624             4.257846             -9.424045
| 23> *
| 24>
| 25> #Run DFT-D3 single point of the molecule with dimer basis set
| 26> $new_job
| 27> %base "9-152_DFT_A"
| 28> ! wB97X-D3 def2-TZVP TIGHTSCF CHELPG PMODEL
| 29>
| 30> %scf
| 31> MaxIter 1000
| 32> end
| 33>
| 34> * xyz 0 1
| 35>   C                      10.075611            6.830938             -8.894365
| 36>   O                      8.833961             6.302375             -8.430890
| 37>   H                      8.378268             6.007736             -9.213528
| 38>   H                      10.782056            7.052458             -8.123057
| 39>   H                      10.633551            6.010513             -9.486578
| 40>   H                      10.056742            7.765154             -9.460617
| 41>   C                    : 5.587614             4.649970             -9.980250
| 42>   O                    : 6.000144             5.824287             -9.369973
| 43>   H                    : 5.776454             5.741417             -8.392991
| 44>   H                    : 5.404867             4.789464             -11.041357
| 45>   H                    : 6.450289             3.993672             -9.861821
| 46>   H                    : 4.703624             4.257846             -9.424045
| 47> *
| 48>
| 49> #Run DFT-D3 single point of the particle with dimer basis set
| 50> $new_job
| 51> %base "9-152_DFT_B"
| 52> ! wB97X-D3 def2-TZVP TIGHTSCF CHELPG PMODEL
| 53>
| 54> %scf
| 55> MaxIter 1000
| 56> end
| 57>
| 58> * xyz 0 1
| 59>   C                    : 10.075611            6.830938             -8.894365
| 60>   O                    : 8.833961             6.302375             -8.430890
| 61>   H                    : 8.378268             6.007736             -9.213528
| 62>   H                    : 10.782056            7.052458             -8.123057
| 63>   H                    : 10.633551            6.010513             -9.486578
| 64>   H                    : 10.056742            7.765154             -9.460617
| 65>   C                      5.587614             4.649970             -9.980250
| 66>   O                      6.000144             5.824287             -9.369973
| 67>   H                      5.776454             5.741417             -8.392991
| 68>   H                      5.404867             4.789464             -11.041357
| 69>   H                      6.450289             3.993672             -9.861821
| 70>   H                      4.703624             4.257846             -9.424045
| 71> *
| 72>
| 73>                          ****END OF INPUT****
 Total Charge           Charge          ....    0
 Multiplicity           Mult            ....    1
 Number of Electrons    NEL             ....   36
Dispersion correction           -0.001461134
FINAL SINGLE POINT ENERGY      -231.464769769660
Dispersion correction           -0.000262798
FINAL SINGLE POINT ENERGY      -115.730730856459

CARTESIAN COORDINATES (ANGSTROEM)
---------------------------------
  C     10.075611    6.830938   -8.894365
  O      8.833961    6.302375   -8.430890
  H      8.378268    6.007736   -9.213528
  H     10.782056    7.052458   -8.123057
  H     10.633551    6.010513   -9.486578
  H     10.056742    7.765154   -9.460617
  C      5.587614    4.649970   -9.980250
  O      6.000144    5.824287   -9.369973
  H      5.776454    5.741417   -8.392991
  H      5.404867    4.789464  -11.041357
  H      6.450289    3.993672   -9.861821
  H      4.703624    4.257846   -9.424045

 Multiplicity           Mult            ....    1
 Number of Electrons    NEL             ....   18
 Basis Dimension        Dim             ....  172

ORBITAL ENERGIES
----------------

  NO   OCC          E(Eh)            E(eV)
   0   2.0000     -19.229059      -523.2493
   1   2.0000     -10.310811      -280.5714
   2   2.0000      -1.137111       -30.9424
   3   2.0000      -0.786104       -21.3910
   4   2.0000      -0.607100       -16.5200
   5   2.0000      -0.546494       -14.8708
   6   2.0000      -0.534649       -14.5485
   7   2.0000      -0.429751       -11.6941
   8   2.0000      -0.364310        -9.9134
   9   0.0000       0.092554         2.5185
  10   0.0000       0.111829         3.0430
  11   0.0000       0.157659         4.2901
  12   0.0000       0.179033         4.8717
  13   0.0000       0.203185         5.5289

MULLIKEN ATOMIC CHARGES
-----------------------
   0 C :   -0.000470
   1 O :   -0.001132
   2 H :   -0.007567
   3 H :    0.000021
   4 H :    0.000027
   5 H :   -0.000010
   6 C :   -0.157802
   7 O :   -0.468237
   8 H :    0.319163
   9 H :    0.115289
  10 H :    0.104402
  11 H :    0.096318
Sum of atomic charges:    0.0000000

LOEWDIN ATOMIC CHARGES
----------------------
   0 C :   -0.000489
   1 O :   -0.006104
   2 H :   -0.016960
   3 H :   -0.000011
   4 H :   -0.000004
   5 H :   -0.000018
   6 C :   -0.407535
   7 O :   -0.066409
   8 H :    0.198580
   9 H :    0.103593
  10 H :    0.095865
  11 H :    0.099492

  Mayer bond orders larger than 0.1
B(  6-C ,  7-O ) :   0.9921 B(  6-C ,  9-H ) :   0.9691 B(  6-C , 10-H ) :   0.9865
B(  6-C , 11-H ) :   0.9842 B(  7-O ,  8-H ) :   0.8909

Dispersion correction           -0.000208432
FINAL SINGLE POINT ENERGY      -115.729381319029

DIPOLE MOMENT
-------------
                                X             Y             Z
Electronic contribution:      0.47037       1.55433       0.52170
Nuclear contribution   :     -0.78241      -2.04211      -0.15477
                        -----------------------------------------
Total Dipole Moment    :     -0.31205      -0.48778       0.36693
                        -----------------------------------------
Magnitude (a.u.)       :      0.68552
Magnitude (Debye)      :      1.74246

Rotational constants in cm-1:     4.079150     0.874802     0.833262
Rotational constants in MHz : 122289.837464 26225.915127 24980.561246

                             ****ORCA TERMINATED NORMALLY****
TOTAL RUN TIME: 0 days 0 hours 0 minutes 43 seconds 267 msec
