                         Program Version 4.1.2  - RELEASE  -
|  1> #Run DFT-D3 single point of the dimer
|  2> ! wB97X-D3 def2-TZVP TIGHTSCF CHELPG PMODEL PAL8
|  3>
|  4> %base "15-131_DFT_AB"
|  5>
|  6> %scf
|  7> MaxIter 1000
|  8> end
|  9>
| 10> * xyz 0 1
| 11>   C                      0.512501             8.461024             -0.689806
| 12>   O                      -0.712721            7.890156             -0.211231
| 13>   H                      -0.662369            6.949089             -0.202390
| 14>   H                      0.578281             8.470859             -1.785892
| 15>   H                      0.672981             9.551212             -0.568216
| 16>   H                      1.340160             7.905085             -0.222265
| 17>   C                      -0.069685            3.844129             0.063434
| 18>   O                      -0.104926            5.211639             0.418285
| 19>   H                      0.753784             5.502813             0.660447
| 20>   H                      -0.962979            3.347517             -0.377816
| 21>   H                      0.827611             3.554464             -0.528559
| 22>   H                      0.022119             3.317603             0.991936
| 23> *
| 24>
| 25> #Run DFT-D3 single point of the molecule with dimer basis set
| 26> $new_job
| 27> %base "15-131_DFT_A"
| 28> ! wB97X-D3 def2-TZVP TIGHTSCF CHELPG PMODEL
| 29>
| 30> %scf
| 31> MaxIter 1000
| 32> end
| 33>
| 34> * xyz 0 1
| 35>   C                      0.512501             8.461024             -0.689806
| 36>   O                      -0.712721            7.890156             -0.211231
| 37>   H                      -0.662369            6.949089             -0.202390
| 38>   H                      0.578281             8.470859             -1.785892
| 39>   H                      0.672981             9.551212             -0.568216
| 40>   H                      1.340160             7.905085             -0.222265
| 41>   C                    : -0.069685            3.844129             0.063434
| 42>   O                    : -0.104926            5.211639             0.418285
| 43>   H                    : 0.753784             5.502813             0.660447
| 44>   H                    : -0.962979            3.347517             -0.377816
| 45>   H                    : 0.827611             3.554464             -0.528559
| 46>   H                    : 0.022119             3.317603             0.991936
| 47> *
| 48>
| 49> #Run DFT-D3 single point of the particle with dimer basis set
| 50> $new_job
| 51> %base "15-131_DFT_B"
| 52> ! wB97X-D3 def2-TZVP TIGHTSCF CHELPG PMODEL
| 53>
| 54> %scf
| 55> MaxIter 1000
| 56> end
| 57>
| 58> * xyz 0 1
| 59>   C                    : 0.512501             8.461024             -0.689806
| 60>   O                    : -0.712721            7.890156             -0.211231
| 61>   H                    : -0.662369            6.949089             -0.202390
| 62>   H                    : 0.578281             8.470859             -1.785892
| 63>   H                    : 0.672981             9.551212             -0.568216
| 64>   H                    : 1.340160             7.905085             -0.222265
| 65>   C                      -0.069685            3.844129             0.063434
| 66>   O                      -0.104926            5.211639             0.418285
| 67>   H                      0.753784             5.502813             0.660447
| 68>   H                      -0.962979            3.347517             -0.377816
| 69>   H                      0.827611             3.554464             -0.528559
| 70>   H                      0.022119             3.317603             0.991936
| 71> *
| 72>
| 73>                          ****END OF INPUT****
 Total Charge           Charge          ....    0
 Multiplicity           Mult            ....    1
 Number of Electrons    NEL             ....   36
Dispersion correction           -0.001674043
FINAL SINGLE POINT ENERGY      -231.462697873488
Dispersion correction           -0.000264612
FINAL SINGLE POINT ENERGY      -115.728512474514

CARTESIAN COORDINATES (ANGSTROEM)
---------------------------------
  C      0.512501    8.461024   -0.689806
  O     -0.712721    7.890156   -0.211231
  H     -0.662369    6.949089   -0.202390
  H      0.578281    8.470859   -1.785892
  H      0.672981    9.551212   -0.568216
  H      1.340160    7.905085   -0.222265
  C     -0.069685    3.844129    0.063434
  O     -0.104926    5.211639    0.418285
  H      0.753784    5.502813    0.660447
  H     -0.962979    3.347517   -0.377816
  H      0.827611    3.554464   -0.528559
  H      0.022119    3.317603    0.991936

 Multiplicity           Mult            ....    1
 Number of Electrons    NEL             ....   18
 Basis Dimension        Dim             ....  172

ORBITAL ENERGIES
----------------

  NO   OCC          E(Eh)            E(eV)
   0   2.0000     -19.229820      -523.2700
   1   2.0000     -10.316052      -280.7140
   2   2.0000      -1.141122       -31.0515
   3   2.0000      -0.799520       -21.7561
   4   2.0000      -0.615822       -16.7574
   5   2.0000      -0.539282       -14.6746
   6   2.0000      -0.533836       -14.5264
   7   2.0000      -0.430681       -11.7194
   8   2.0000      -0.370647       -10.0858
   9   0.0000       0.092078         2.5056
  10   0.0000       0.128104         3.4859
  11   0.0000       0.150793         4.1033
  12   0.0000       0.185599         5.0504
  13   0.0000       0.202517         5.5108

MULLIKEN ATOMIC CHARGES
-----------------------
   0 C :   -0.002523
   1 O :    0.002609
   2 H :   -0.012584
   3 H :    0.000050
   4 H :   -0.000518
   5 H :   -0.002429
   6 C :   -0.176491
   7 O :   -0.465299
   8 H :    0.319050
   9 H :    0.126688
  10 H :    0.103840
  11 H :    0.107606
Sum of atomic charges:    0.0000000

LOEWDIN ATOMIC CHARGES
----------------------
   0 C :   -0.004622
   1 O :   -0.006344
   2 H :   -0.044453
   3 H :   -0.000083
   4 H :   -0.000110
   5 H :   -0.001820
   6 C :   -0.388456
   7 O :   -0.021856
   8 H :    0.161001
   9 H :    0.114148
  10 H :    0.099068
  11 H :    0.093527

  Mayer bond orders larger than 0.1
B(  6-C ,  7-O ) :   0.9808 B(  6-C ,  9-H ) :   0.9699 B(  6-C , 10-H ) :   0.9747
B(  6-C , 11-H ) :   0.9842 B(  7-O ,  8-H ) :   0.8940

Dispersion correction           -0.000245467
FINAL SINGLE POINT ENERGY      -115.727873976447

DIPOLE MOMENT
-------------
                                X             Y             Z
Electronic contribution:     -0.25153       1.87000       0.30259
Nuclear contribution   :      0.81926      -2.26878      -0.25879
                        -----------------------------------------
Total Dipole Moment    :      0.56774      -0.39878       0.04380
                        -----------------------------------------
Magnitude (a.u.)       :      0.69517
Magnitude (Debye)      :      1.76699

Rotational constants in cm-1:     4.502334     0.822192     0.788540
Rotational constants in MHz : 134976.563288 24648.701887 23639.821965

                             ****ORCA TERMINATED NORMALLY****
TOTAL RUN TIME: 0 days 0 hours 1 minutes 3 seconds 88 msec
