                         Program Version 4.1.2  - RELEASE  -
|  1> #Run DFT-D3 single point of the dimer
|  2> ! wB97X-D3 def2-TZVP TIGHTSCF CHELPG PMODEL PAL8
|  3>
|  4> %base "19-118_DFT_AB"
|  5>
|  6> %scf
|  7> MaxIter 1000
|  8> end
|  9>
| 10> * xyz 0 1
| 11>   C                      -0.942349            -0.312623            6.462802
| 12>   O                      -1.254387            -1.464392            7.229617
| 13>   H                      -0.880571            -2.244624            6.848968
| 14>   H                      -1.109190            -0.446360            5.396069
| 15>   H                      -1.477128            0.535260             6.817403
| 16>   H                      0.090158             -0.179774            6.506438
| 17>   C                      2.254314             -3.277744            9.060280
| 18>   O                      1.640389             -4.540750            8.796992
| 19>   H                      1.402713             -4.529007            7.885413
| 20>   H                      2.992467             -3.018373            8.293263
| 21>   H                      1.466970             -2.474905            9.159412
| 22>   H                      2.721805             -3.280190            10.014671
| 23> *
| 24>
| 25> #Run DFT-D3 single point of the molecule with dimer basis set
| 26> $new_job
| 27> %base "19-118_DFT_A"
| 28> ! wB97X-D3 def2-TZVP TIGHTSCF CHELPG PMODEL
| 29>
| 30> %scf
| 31> MaxIter 1000
| 32> end
| 33>
| 34> * xyz 0 1
| 35>   C                      -0.942349            -0.312623            6.462802
| 36>   O                      -1.254387            -1.464392            7.229617
| 37>   H                      -0.880571            -2.244624            6.848968
| 38>   H                      -1.109190            -0.446360            5.396069
| 39>   H                      -1.477128            0.535260             6.817403
| 40>   H                      0.090158             -0.179774            6.506438
| 41>   C                    : 2.254314             -3.277744            9.060280
| 42>   O                    : 1.640389             -4.540750            8.796992
| 43>   H                    : 1.402713             -4.529007            7.885413
| 44>   H                    : 2.992467             -3.018373            8.293263
| 45>   H                    : 1.466970             -2.474905            9.159412
| 46>   H                    : 2.721805             -3.280190            10.014671
| 47> *
| 48>
| 49> #Run DFT-D3 single point of the particle with dimer basis set
| 50> $new_job
| 51> %base "19-118_DFT_B"
| 52> ! wB97X-D3 def2-TZVP TIGHTSCF CHELPG PMODEL
| 53>
| 54> %scf
| 55> MaxIter 1000
| 56> end
| 57>
| 58> * xyz 0 1
| 59>   C                    : -0.942349            -0.312623            6.462802
| 60>   O                    : -1.254387            -1.464392            7.229617
| 61>   H                    : -0.880571            -2.244624            6.848968
| 62>   H                    : -1.109190            -0.446360            5.396069
| 63>   H                    : -1.477128            0.535260             6.817403
| 64>   H                    : 0.090158             -0.179774            6.506438
| 65>   C                      2.254314             -3.277744            9.060280
| 66>   O                      1.640389             -4.540750            8.796992
| 67>   H                      1.402713             -4.529007            7.885413
| 68>   H                      2.992467             -3.018373            8.293263
| 69>   H                      1.466970             -2.474905            9.159412
| 70>   H                      2.721805             -3.280190            10.014671
| 71> *
| 72>
| 73>                          ****END OF INPUT****
 Total Charge           Charge          ....    0
 Multiplicity           Mult            ....    1
 Number of Electrons    NEL             ....   36
Dispersion correction           -0.001106655
FINAL SINGLE POINT ENERGY      -231.467111168713
Dispersion correction           -0.000226066
FINAL SINGLE POINT ENERGY      -115.732313110267

CARTESIAN COORDINATES (ANGSTROEM)
---------------------------------
  C     -0.942349   -0.312623    6.462802
  O     -1.254387   -1.464392    7.229617
  H     -0.880571   -2.244624    6.848968
  H     -1.109190   -0.446360    5.396069
  H     -1.477128    0.535260    6.817403
  H      0.090158   -0.179774    6.506438
  C      2.254314   -3.277744    9.060280
  O      1.640389   -4.540750    8.796992
  H      1.402713   -4.529007    7.885413
  H      2.992467   -3.018373    8.293263
  H      1.466970   -2.474905    9.159412
  H      2.721805   -3.280190   10.014671

 Multiplicity           Mult            ....    1
 Number of Electrons    NEL             ....   18
 Basis Dimension        Dim             ....  172

ORBITAL ENERGIES
----------------

  NO   OCC          E(Eh)            E(eV)
   0   2.0000     -19.229123      -523.2510
   1   2.0000     -10.315076      -280.6875
   2   2.0000      -1.136626       -30.9292
   3   2.0000      -0.797275       -21.6950
   4   2.0000      -0.607612       -16.5340
   5   2.0000      -0.540402       -14.7051
   6   2.0000      -0.529325       -14.4037
   7   2.0000      -0.437867       -11.9150
   8   2.0000      -0.374057       -10.1786
   9   0.0000       0.077686         2.1139
  10   0.0000       0.118211         3.2167
  11   0.0000       0.150928         4.1070
  12   0.0000       0.171002         4.6532
  13   0.0000       0.188582         5.1316

MULLIKEN ATOMIC CHARGES
-----------------------
   0 C :   -0.000401
   1 O :    0.000143
   2 H :   -0.000284
   3 H :   -0.000002
   4 H :   -0.000015
   5 H :    0.000019
   6 C :   -0.170614
   7 O :   -0.470736
   8 H :    0.311224
   9 H :    0.107776
  10 H :    0.097883
  11 H :    0.125007
Sum of atomic charges:   -0.0000000

LOEWDIN ATOMIC CHARGES
----------------------
   0 C :   -0.000276
   1 O :   -0.000219
   2 H :   -0.000488
   3 H :   -0.000004
   4 H :   -0.000004
   5 H :   -0.000109
   6 C :   -0.374467
   7 O :   -0.078936
   8 H :    0.156296
   9 H :    0.096827
  10 H :    0.100502
  11 H :    0.100878

  Mayer bond orders larger than 0.1
B(  6-C ,  7-O ) :   1.0001 B(  6-C ,  9-H ) :   0.9766 B(  6-C , 10-H ) :   0.9754
B(  6-C , 11-H ) :   0.9747 B(  7-O ,  8-H ) :   0.9058

Dispersion correction           -0.000242124
FINAL SINGLE POINT ENERGY      -115.734901494996

DIPOLE MOMENT
-------------
                                X             Y             Z
Electronic contribution:     -0.67378      -1.69769      -0.21768
Nuclear contribution   :      0.79065       2.20028      -0.23676
                        -----------------------------------------
Total Dipole Moment    :      0.11687       0.50259      -0.45444
                        -----------------------------------------
Magnitude (a.u.)       :      0.68758
Magnitude (Debye)      :      1.74769

Rotational constants in cm-1:     4.293434     0.816930     0.793186
Rotational constants in MHz : 128713.917926 24490.950972 23779.106740

                             ****ORCA TERMINATED NORMALLY****
TOTAL RUN TIME: 0 days 0 hours 0 minutes 45 seconds 852 msec
