                         Program Version 4.1.2  - RELEASE  -
|  1> #Run DFT-D3 single point of the dimer
|  2> ! wB97X-D3 def2-TZVP TIGHTSCF CHELPG PMODEL PAL8
|  3>
|  4> %base "17-22_DFT_AB"
|  5>
|  6> %scf
|  7> MaxIter 1000
|  8> end
|  9>
| 10> * xyz 0 1
| 11>   C                      -1.552654            -0.347999            4.263472
| 12>   O                      -0.675985            -0.786314            3.238730
| 13>   H                      -1.311521            -0.903148            2.507645
| 14>   H                      -1.893925            0.644904             3.934240
| 15>   H                      -2.420135            -0.936720            4.503697
| 16>   H                      -1.047543            -0.169033            5.200596
| 17>   C                      0.560714             2.345337             5.928225
| 18>   O                      0.858539             3.108066             7.045610
| 19>   H                      1.736582             3.009554             7.392584
| 20>   H                      -0.467210            2.038130             5.852823
| 21>   H                      0.691862             2.842417             4.985025
| 22>   H                      1.169017             1.443859             5.860867
| 23> *
| 24>
| 25> #Run DFT-D3 single point of the molecule with dimer basis set
| 26> $new_job
| 27> %base "17-22_DFT_A"
| 28> ! wB97X-D3 def2-TZVP TIGHTSCF CHELPG PMODEL
| 29>
| 30> %scf
| 31> MaxIter 1000
| 32> end
| 33>
| 34> * xyz 0 1
| 35>   C                      -1.552654            -0.347999            4.263472
| 36>   O                      -0.675985            -0.786314            3.238730
| 37>   H                      -1.311521            -0.903148            2.507645
| 38>   H                      -1.893925            0.644904             3.934240
| 39>   H                      -2.420135            -0.936720            4.503697
| 40>   H                      -1.047543            -0.169033            5.200596
| 41>   C                    : 0.560714             2.345337             5.928225
| 42>   O                    : 0.858539             3.108066             7.045610
| 43>   H                    : 1.736582             3.009554             7.392584
| 44>   H                    : -0.467210            2.038130             5.852823
| 45>   H                    : 0.691862             2.842417             4.985025
| 46>   H                    : 1.169017             1.443859             5.860867
| 47> *
| 48>
| 49> #Run DFT-D3 single point of the particle with dimer basis set
| 50> $new_job
| 51> %base "17-22_DFT_B"
| 52> ! wB97X-D3 def2-TZVP TIGHTSCF CHELPG PMODEL
| 53>
| 54> %scf
| 55> MaxIter 1000
| 56> end
| 57>
| 58> * xyz 0 1
| 59>   C                    : -1.552654            -0.347999            4.263472
| 60>   O                    : -0.675985            -0.786314            3.238730
| 61>   H                    : -1.311521            -0.903148            2.507645
| 62>   H                    : -1.893925            0.644904             3.934240
| 63>   H                    : -2.420135            -0.936720            4.503697
| 64>   H                    : -1.047543            -0.169033            5.200596
| 65>   C                      0.560714             2.345337             5.928225
| 66>   O                      0.858539             3.108066             7.045610
| 67>   H                      1.736582             3.009554             7.392584
| 68>   H                      -0.467210            2.038130             5.852823
| 69>   H                      0.691862             2.842417             4.985025
| 70>   H                      1.169017             1.443859             5.860867
| 71> *
| 72>
| 73>                          ****END OF INPUT****
 Total Charge           Charge          ....    0
 Multiplicity           Mult            ....    1
 Number of Electrons    NEL             ....   36
Dispersion correction           -0.001538445
FINAL SINGLE POINT ENERGY      -231.463625495558
Dispersion correction           -0.000224197
FINAL SINGLE POINT ENERGY      -115.730872712224

CARTESIAN COORDINATES (ANGSTROEM)
---------------------------------
  C     -1.552654   -0.347999    4.263472
  O     -0.675985   -0.786314    3.238730
  H     -1.311521   -0.903148    2.507645
  H     -1.893925    0.644904    3.934240
  H     -2.420135   -0.936720    4.503697
  H     -1.047543   -0.169033    5.200596
  C      0.560714    2.345337    5.928225
  O      0.858539    3.108066    7.045610
  H      1.736582    3.009554    7.392584
  H     -0.467210    2.038130    5.852823
  H      0.691862    2.842417    4.985025
  H      1.169017    1.443859    5.860867

 Multiplicity           Mult            ....    1
 Number of Electrons    NEL             ....   18
 Basis Dimension        Dim             ....  172

ORBITAL ENERGIES
----------------

  NO   OCC          E(Eh)            E(eV)
   0   2.0000     -19.228514      -523.2345
   1   2.0000     -10.306681      -280.4590
   2   2.0000      -1.142600       -31.0917
   3   2.0000      -0.804866       -21.9015
   4   2.0000      -0.624121       -16.9832
   5   2.0000      -0.542545       -14.7634
   6   2.0000      -0.533969       -14.5300
   7   2.0000      -0.424209       -11.5433
   8   2.0000      -0.371457       -10.1079
   9   0.0000       0.084596         2.3020
  10   0.0000       0.117923         3.2088
  11   0.0000       0.151851         4.1321
  12   0.0000       0.170103         4.6287
  13   0.0000       0.186965         5.0876

MULLIKEN ATOMIC CHARGES
-----------------------
   0 C :    0.003046
   1 O :    0.000047
   2 H :    0.000007
   3 H :   -0.000640
   4 H :   -0.000174
   5 H :   -0.005129
   6 C :   -0.144629
   7 O :   -0.484286
   8 H :    0.322763
   9 H :    0.116085
  10 H :    0.096978
  11 H :    0.095932
Sum of atomic charges:    0.0000000

LOEWDIN ATOMIC CHARGES
----------------------
   0 C :   -0.004656
   1 O :   -0.000037
   2 H :   -0.000003
   3 H :   -0.000911
   4 H :   -0.000028
   5 H :   -0.004894
   6 C :   -0.399571
   7 O :   -0.048672
   8 H :    0.164870
   9 H :    0.105927
  10 H :    0.091658
  11 H :    0.096318

  Mayer bond orders larger than 0.1
B(  6-C ,  7-O ) :   1.0161 B(  6-C ,  9-H ) :   0.9743 B(  6-C , 10-H ) :   0.9711
B(  6-C , 11-H ) :   0.9858 B(  7-O ,  8-H ) :   0.8923

Dispersion correction           -0.000255660
FINAL SINGLE POINT ENERGY      -115.731813329623

DIPOLE MOMENT
-------------
                                X             Y             Z
Electronic contribution:      0.30043       1.08498       1.56269
Nuclear contribution   :      0.17151      -1.46238      -1.77530
                        -----------------------------------------
Total Dipole Moment    :      0.47193      -0.37740      -0.21261
                        -----------------------------------------
Magnitude (a.u.)       :      0.64059
Magnitude (Debye)      :      1.62824

Rotational constants in cm-1:     4.703135     0.841937     0.809711
Rotational constants in MHz : 140996.428155 25240.629526 24274.528580

                             ****ORCA TERMINATED NORMALLY****
TOTAL RUN TIME: 0 days 0 hours 1 minutes 5 seconds 716 msec
