                         Program Version 4.1.2  - RELEASE  -
|  1> #Run DFT-D3 single point of the dimer
|  2> ! wB97X-D3 def2-TZVP TIGHTSCF CHELPG PMODEL PAL8
|  3>
|  4> %base "13-123_DFT_AB"
|  5>
|  6> %scf
|  7> MaxIter 1000
|  8> end
|  9>
| 10> * xyz 0 1
| 11>   C                      -4.441860            0.252273             -10.388572
| 12>   O                      -5.831980            0.272758             -10.110588
| 13>   H                      -6.199616            0.251479             -11.006176
| 14>   H                      -4.139284            1.101493             -11.007962
| 15>   H                      -3.881177            0.211888             -9.421861
| 16>   H                      -4.225145            -0.703041            -10.844103
| 17>   C                      -8.511850            -0.963525            -8.511419
| 18>   O                      -7.419741            -0.358722            -7.879378
| 19>   H                      -6.722054            -0.542908            -8.465725
| 20>   H                      -8.506354            -2.102621            -8.689913
| 21>   H                      -9.434446            -0.754104            -8.016659
| 22>   H                      -8.626261            -0.625500            -9.523608
| 23> *
| 24>
| 25> #Run DFT-D3 single point of the molecule with dimer basis set
| 26> $new_job
| 27> %base "13-123_DFT_A"
| 28> ! wB97X-D3 def2-TZVP TIGHTSCF CHELPG PMODEL
| 29>
| 30> %scf
| 31> MaxIter 1000
| 32> end
| 33>
| 34> * xyz 0 1
| 35>   C                      -4.441860            0.252273             -10.388572
| 36>   O                      -5.831980            0.272758             -10.110588
| 37>   H                      -6.199616            0.251479             -11.006176
| 38>   H                      -4.139284            1.101493             -11.007962
| 39>   H                      -3.881177            0.211888             -9.421861
| 40>   H                      -4.225145            -0.703041            -10.844103
| 41>   C                    : -8.511850            -0.963525            -8.511419
| 42>   O                    : -7.419741            -0.358722            -7.879378
| 43>   H                    : -6.722054            -0.542908            -8.465725
| 44>   H                    : -8.506354            -2.102621            -8.689913
| 45>   H                    : -9.434446            -0.754104            -8.016659
| 46>   H                    : -8.626261            -0.625500            -9.523608
| 47> *
| 48>
| 49> #Run DFT-D3 single point of the particle with dimer basis set
| 50> $new_job
| 51> %base "13-123_DFT_B"
| 52> ! wB97X-D3 def2-TZVP TIGHTSCF CHELPG PMODEL
| 53>
| 54> %scf
| 55> MaxIter 1000
| 56> end
| 57>
| 58> * xyz 0 1
| 59>   C                    : -4.441860            0.252273             -10.388572
| 60>   O                    : -5.831980            0.272758             -10.110588
| 61>   H                    : -6.199616            0.251479             -11.006176
| 62>   H                    : -4.139284            1.101493             -11.007962
| 63>   H                    : -3.881177            0.211888             -9.421861
| 64>   H                    : -4.225145            -0.703041            -10.844103
| 65>   C                      -8.511850            -0.963525            -8.511419
| 66>   O                      -7.419741            -0.358722            -7.879378
| 67>   H                      -6.722054            -0.542908            -8.465725
| 68>   H                      -8.506354            -2.102621            -8.689913
| 69>   H                      -9.434446            -0.754104            -8.016659
| 70>   H                      -8.626261            -0.625500            -9.523608
| 71> *
| 72>
| 73>                          ****END OF INPUT****
 Total Charge           Charge          ....    0
 Multiplicity           Mult            ....    1
 Number of Electrons    NEL             ....   36
Dispersion correction           -0.001723366
FINAL SINGLE POINT ENERGY      -231.468846589452
Dispersion correction           -0.000213209
FINAL SINGLE POINT ENERGY      -115.733817389028

CARTESIAN COORDINATES (ANGSTROEM)
---------------------------------
  C     -4.441860    0.252273  -10.388572
  O     -5.831980    0.272758  -10.110588
  H     -6.199616    0.251479  -11.006176
  H     -4.139284    1.101493  -11.007962
  H     -3.881177    0.211888   -9.421861
  H     -4.225145   -0.703041  -10.844103
  C     -8.511850   -0.963525   -8.511419
  O     -7.419741   -0.358722   -7.879378
  H     -6.722054   -0.542908   -8.465725
  H     -8.506354   -2.102621   -8.689913
  H     -9.434446   -0.754104   -8.016659
  H     -8.626261   -0.625500   -9.523608

 Multiplicity           Mult            ....    1
 Number of Electrons    NEL             ....   18
 Basis Dimension        Dim             ....  172

ORBITAL ENERGIES
----------------

  NO   OCC          E(Eh)            E(eV)
   0   2.0000     -19.236579      -523.4539
   1   2.0000     -10.313759      -280.6516
   2   2.0000      -1.154923       -31.4270
   3   2.0000      -0.798449       -21.7269
   4   2.0000      -0.623551       -16.9677
   5   2.0000      -0.537428       -14.6242
   6   2.0000      -0.529439       -14.4068
   7   2.0000      -0.447516       -12.1775
   8   2.0000      -0.374372       -10.1872
   9   0.0000       0.070988         1.9317
  10   0.0000       0.129846         3.5333
  11   0.0000       0.149748         4.0748
  12   0.0000       0.163129         4.4390
  13   0.0000       0.195376         5.3165

MULLIKEN ATOMIC CHARGES
-----------------------
   0 C :   -0.002660
   1 O :   -0.005866
   2 H :    0.000124
   3 H :    0.000052
   4 H :    0.000067
   5 H :    0.000087
   6 C :   -0.185702
   7 O :   -0.439685
   8 H :    0.309319
   9 H :    0.093310
  10 H :    0.125354
  11 H :    0.105599
Sum of atomic charges:   -0.0000000

LOEWDIN ATOMIC CHARGES
----------------------
   0 C :   -0.002398
   1 O :   -0.017410
   2 H :   -0.001107
   3 H :   -0.000057
   4 H :   -0.000204
   5 H :   -0.000063
   6 C :   -0.404132
   7 O :   -0.028644
   8 H :    0.159148
   9 H :    0.102092
  10 H :    0.102600
  11 H :    0.090176

  Mayer bond orders larger than 0.1
B(  6-C ,  7-O ) :   1.0092 B(  6-C ,  9-H ) :   0.9708 B(  6-C , 10-H ) :   0.9762
B(  6-C , 11-H ) :   0.9755 B(  7-O ,  8-H ) :   0.9129

Dispersion correction           -0.000241307
FINAL SINGLE POINT ENERGY      -115.729959711320

DIPOLE MOMENT
-------------
                                X             Y             Z
Electronic contribution:      1.42858       0.96465       1.10235
Nuclear contribution   :     -1.41675      -1.26898      -1.71259
                        -----------------------------------------
Total Dipole Moment    :      0.01183      -0.30432      -0.61024
                        -----------------------------------------
Magnitude (a.u.)       :      0.68201
Magnitude (Debye)      :      1.73354

Rotational constants in cm-1:     4.472226     0.839827     0.804712
Rotational constants in MHz : 134073.968170 25177.365365 24124.656348

                             ****ORCA TERMINATED NORMALLY****
TOTAL RUN TIME: 0 days 0 hours 1 minutes 7 seconds 295 msec
