                         Program Version 4.1.2  - RELEASE  -
|  1> #Run DFT geometry optimization
|  2> ! wB97X-D3 def2-TZVP TIGHTSCF Grid5 FinalGrid6 Opt CHELPG PAL4
|  3>
|  4> %base "2_geo_opt"
|  5> %geom MaxIter 500
|  6> end
|  7>
|  8> %geom
|  9>   Constraints
| 10>     { A 5 0 1 C }
| 11>   end
| 12> end
| 13>
| 14>
| 15> * xyz 0 1
| 16>   C                    3.011308             -1.180897            0.598492
| 17>   O                    4.395106             -1.131372            0.872747
| 18>   H                    4.772196             -0.379022            0.412493
| 19>   H                    2.806434             -1.318965            -0.469350
| 20>   H                    2.611632             -2.040265            1.135898
| 21>   H                    2.482285             -0.285569            0.944681
| 22> *
| 23>
| 24>                          ****END OF INPUT****
 Total Charge           Charge          ....    0
 Multiplicity           Mult            ....    1
 Number of Electrons    NEL             ....   18
Dispersion correction           -0.000239671
FINAL SINGLE POINT ENERGY      -115.738045066980
Dispersion correction            ... done
Dispersion correction           -0.000239693
FINAL SINGLE POINT ENERGY      -115.738048134891
Dispersion correction            ... done
                    ***********************HURRAY********************

CARTESIAN COORDINATES (ANGSTROEM)
---------------------------------
  C      3.011545   -1.180771    0.598523
  O      4.395173   -1.130380    0.872391
  H      4.772467   -0.379839    0.412931
  H      2.806035   -1.319125   -0.469236
  H      2.611678   -2.040284    1.135654
  H      2.482064   -0.285691    0.944698

 Multiplicity           Mult            ....    1
 Number of Electrons    NEL             ....   18
 Basis Dimension        Dim             ....   86

ORBITAL ENERGIES
----------------

  NO   OCC          E(Eh)            E(eV)
   0   2.0000     -19.228224      -523.2266
   1   2.0000     -10.315102      -280.6882
   2   2.0000      -1.136938       -30.9376
   3   2.0000      -0.795384       -21.6435
   4   2.0000      -0.611765       -16.6470
   5   2.0000      -0.541642       -14.7388
   6   2.0000      -0.526283       -14.3209
   7   2.0000      -0.433879       -11.8064
   8   2.0000      -0.373685       -10.1685
   9   0.0000       0.116673         3.1748
  10   0.0000       0.156587         4.2610
  11   0.0000       0.202527         5.5110
  12   0.0000       0.205192         5.5836
  13   0.0000       0.226519         6.1639

MULLIKEN ATOMIC CHARGES
-----------------------
   0 C :   -0.151019
   1 O :   -0.477384
   2 H :    0.313024
   3 H :    0.098570
   4 H :    0.118197
   5 H :    0.098613
Sum of atomic charges:   -0.0000000

LOEWDIN ATOMIC CHARGES
----------------------
   0 C :   -0.385534
   1 O :   -0.075735
   2 H :    0.165818
   3 H :    0.093409
   4 H :    0.108717
   5 H :    0.093325

  Mayer bond orders larger than 0.1
B(  0-C ,  1-O ) :   0.9989 B(  0-C ,  3-H ) :   0.9757 B(  0-C ,  4-H ) :   0.9750
B(  0-C ,  5-H ) :   0.9751 B(  1-O ,  2-H ) :   0.9002

Dispersion correction           -0.000239773
FINAL SINGLE POINT ENERGY      -115.738048295683

DIPOLE MOMENT
-------------
                                X             Y             Z
Electronic contribution:      1.75958      -0.02862       0.41922
Nuclear contribution   :     -2.06921       0.47819      -0.81445
                        -----------------------------------------
Total Dipole Moment    :     -0.30963       0.44957      -0.39523
                        -----------------------------------------
Magnitude (a.u.)       :      0.67394
Magnitude (Debye)      :      1.71301

Rotational constants in cm-1:     4.295892     0.833736     0.804814
Rotational constants in MHz : 128787.600719 24994.783008 24127.706619

                             ****ORCA TERMINATED NORMALLY****
TOTAL RUN TIME: 0 days 0 hours 0 minutes 48 seconds 18 msec
