                         Program Version 4.1.2  - RELEASE  -
|  1> #Run DFT-D3 single point of the dimer
|  2> ! wB97X-D3 def2-TZVP TIGHTSCF CHELPG PMODEL PAL8
|  3>
|  4> %base "3-112_DFT_AB"
|  5>
|  6> %scf
|  7> MaxIter 1000
|  8> end
|  9>
| 10> * xyz 0 1
| 11>   C                      0.989700             0.103803             9.865704
| 12>   O                      1.265327             0.630240             11.214209
| 13>   H                      0.451374             1.012931             11.587193
| 14>   H                      0.426579             -0.844866            9.908428
| 15>   H                      0.413281             0.719244             9.217680
| 16>   H                      1.945017             -0.202523            9.432650
| 17>   C                      0.950948             -3.319941            8.340230
| 18>   O                      1.689084             -4.526680            8.530754
| 19>   H                      1.756726             -4.672052            9.437307
| 20>   H                      0.546774             -3.197701            7.363918
| 21>   H                      0.064719             -3.277361            8.944016
| 22>   H                      1.442575             -2.422004            8.557518
| 23> *
| 24>
| 25> #Run DFT-D3 single point of the molecule with dimer basis set
| 26> $new_job
| 27> %base "3-112_DFT_A"
| 28> ! wB97X-D3 def2-TZVP TIGHTSCF CHELPG PMODEL
| 29>
| 30> %scf
| 31> MaxIter 1000
| 32> end
| 33>
| 34> * xyz 0 1
| 35>   C                      0.989700             0.103803             9.865704
| 36>   O                      1.265327             0.630240             11.214209
| 37>   H                      0.451374             1.012931             11.587193
| 38>   H                      0.426579             -0.844866            9.908428
| 39>   H                      0.413281             0.719244             9.217680
| 40>   H                      1.945017             -0.202523            9.432650
| 41>   C                    : 0.950948             -3.319941            8.340230
| 42>   O                    : 1.689084             -4.526680            8.530754
| 43>   H                    : 1.756726             -4.672052            9.437307
| 44>   H                    : 0.546774             -3.197701            7.363918
| 45>   H                    : 0.064719             -3.277361            8.944016
| 46>   H                    : 1.442575             -2.422004            8.557518
| 47> *
| 48>
| 49> #Run DFT-D3 single point of the particle with dimer basis set
| 50> $new_job
| 51> %base "3-112_DFT_B"
| 52> ! wB97X-D3 def2-TZVP TIGHTSCF CHELPG PMODEL
| 53>
| 54> %scf
| 55> MaxIter 1000
| 56> end
| 57>
| 58> * xyz 0 1
| 59>   C                    : 0.989700             0.103803             9.865704
| 60>   O                    : 1.265327             0.630240             11.214209
| 61>   H                    : 0.451374             1.012931             11.587193
| 62>   H                    : 0.426579             -0.844866            9.908428
| 63>   H                    : 0.413281             0.719244             9.217680
| 64>   H                    : 1.945017             -0.202523            9.432650
| 65>   C                      0.950948             -3.319941            8.340230
| 66>   O                      1.689084             -4.526680            8.530754
| 67>   H                      1.756726             -4.672052            9.437307
| 68>   H                      0.546774             -3.197701            7.363918
| 69>   H                      0.064719             -3.277361            8.944016
| 70>   H                      1.442575             -2.422004            8.557518
| 71> *
| 72>
| 73>                          ****END OF INPUT****
 Total Charge           Charge          ....    0
 Multiplicity           Mult            ....    1
 Number of Electrons    NEL             ....   36
Dispersion correction           -0.001534969
FINAL SINGLE POINT ENERGY      -231.461240425949
Dispersion correction           -0.000282072
FINAL SINGLE POINT ENERGY      -115.731814602083

CARTESIAN COORDINATES (ANGSTROEM)
---------------------------------
  C      0.989700    0.103803    9.865704
  O      1.265327    0.630240   11.214209
  H      0.451374    1.012931   11.587193
  H      0.426579   -0.844866    9.908428
  H      0.413281    0.719244    9.217680
  H      1.945017   -0.202523    9.432650
  C      0.950948   -3.319941    8.340230
  O      1.689084   -4.526680    8.530754
  H      1.756726   -4.672052    9.437307
  H      0.546774   -3.197701    7.363918
  H      0.064719   -3.277361    8.944016
  H      1.442575   -2.422004    8.557518

 Multiplicity           Mult            ....    1
 Number of Electrons    NEL             ....   18
 Basis Dimension        Dim             ....  172

ORBITAL ENERGIES
----------------

  NO   OCC          E(Eh)            E(eV)
   0   2.0000     -19.229632      -523.2649
   1   2.0000     -10.303932      -280.3843
   2   2.0000      -1.141216       -31.0541
   3   2.0000      -0.811056       -22.0700
   4   2.0000      -0.618875       -16.8405
   5   2.0000      -0.542076       -14.7506
   6   2.0000      -0.530457       -14.4345
   7   2.0000      -0.437263       -11.8985
   8   2.0000      -0.378881       -10.3099
   9   0.0000       0.083146         2.2625
  10   0.0000       0.122917         3.3448
  11   0.0000       0.147832         4.0227
  12   0.0000       0.170637         4.6433
  13   0.0000       0.189590         5.1590

MULLIKEN ATOMIC CHARGES
-----------------------
   0 C :    0.003176
   1 O :   -0.000107
   2 H :   -0.000027
   3 H :   -0.006097
   4 H :   -0.000195
   5 H :   -0.000070
   6 C :   -0.159806
   7 O :   -0.468759
   8 H :    0.307542
   9 H :    0.117640
  10 H :    0.102154
  11 H :    0.104549
Sum of atomic charges:    0.0000000

LOEWDIN ATOMIC CHARGES
----------------------
   0 C :   -0.007440
   1 O :   -0.000018
   2 H :   -0.000011
   3 H :   -0.005350
   4 H :   -0.000088
   5 H :   -0.003025
   6 C :   -0.361525
   7 O :   -0.058507
   8 H :    0.143377
   9 H :    0.105002
  10 H :    0.095995
  11 H :    0.091591

  Mayer bond orders larger than 0.1
B(  6-C ,  7-O ) :   1.0008 B(  6-C ,  9-H ) :   0.9716 B(  6-C , 10-H ) :   0.9857
B(  6-C , 11-H ) :   0.9747 B(  7-O ,  8-H ) :   0.9099

Dispersion correction           -0.000246817
FINAL SINGLE POINT ENERGY      -115.729442815843

DIPOLE MOMENT
-------------
                                X             Y             Z
Electronic contribution:      1.09230      -1.60855       0.09099
Nuclear contribution   :     -1.37190       2.01505       0.41640
                        -----------------------------------------
Total Dipole Moment    :     -0.27960       0.40650       0.50738
                        -----------------------------------------
Magnitude (a.u.)       :      0.70771
Magnitude (Debye)      :      1.79887

Rotational constants in cm-1:     4.796923     0.811627     0.785836
Rotational constants in MHz : 143808.135773 24331.952481 23558.774740

                             ****ORCA TERMINATED NORMALLY****
TOTAL RUN TIME: 0 days 0 hours 5 minutes 58 seconds 703 msec
