                         Program Version 4.1.2  - RELEASE  -
|  1> #Run DFT-D3 single point of the dimer
|  2> ! wB97X-D3 def2-TZVP TIGHTSCF CHELPG PMODEL PAL8
|  3>
|  4> %base "18-137_DFT_AB"
|  5>
|  6> %scf
|  7> MaxIter 1000
|  8> end
|  9>
| 10> * xyz 0 1
| 11>   C                      -9.153282            -8.477792            6.924629
| 12>   O                      -7.769319            -8.220859            7.312762
| 13>   H                      -7.444320            -7.572881            6.635456
| 14>   H                      -9.273223            -9.351089            6.351012
| 15>   H                      -9.805501            -8.522427            7.775496
| 16>   H                      -9.528106            -7.587786            6.403392
| 17>   C                      -6.783903            -7.096621            10.591650
| 18>   O                      -7.576018            -8.155001            10.136895
| 19>   H                      -7.577256            -8.115780            9.180449
| 20>   H                      -6.211171            -7.343095            11.536931
| 21>   H                      -5.974185            -6.841315            9.844080
| 22>   H                      -7.378611            -6.180968            10.689863
| 23> *
| 24>
| 25> #Run DFT-D3 single point of the molecule with dimer basis set
| 26> $new_job
| 27> %base "18-137_DFT_A"
| 28> ! wB97X-D3 def2-TZVP TIGHTSCF CHELPG PMODEL
| 29>
| 30> %scf
| 31> MaxIter 1000
| 32> end
| 33>
| 34> * xyz 0 1
| 35>   C                      -9.153282            -8.477792            6.924629
| 36>   O                      -7.769319            -8.220859            7.312762
| 37>   H                      -7.444320            -7.572881            6.635456
| 38>   H                      -9.273223            -9.351089            6.351012
| 39>   H                      -9.805501            -8.522427            7.775496
| 40>   H                      -9.528106            -7.587786            6.403392
| 41>   C                    : -6.783903            -7.096621            10.591650
| 42>   O                    : -7.576018            -8.155001            10.136895
| 43>   H                    : -7.577256            -8.115780            9.180449
| 44>   H                    : -6.211171            -7.343095            11.536931
| 45>   H                    : -5.974185            -6.841315            9.844080
| 46>   H                    : -7.378611            -6.180968            10.689863
| 47> *
| 48>
| 49> #Run DFT-D3 single point of the particle with dimer basis set
| 50> $new_job
| 51> %base "18-137_DFT_B"
| 52> ! wB97X-D3 def2-TZVP TIGHTSCF CHELPG PMODEL
| 53>
| 54> %scf
| 55> MaxIter 1000
| 56> end
| 57>
| 58> * xyz 0 1
| 59>   C                    : -9.153282            -8.477792            6.924629
| 60>   O                    : -7.769319            -8.220859            7.312762
| 61>   H                    : -7.444320            -7.572881            6.635456
| 62>   H                    : -9.273223            -9.351089            6.351012
| 63>   H                    : -9.805501            -8.522427            7.775496
| 64>   H                    : -9.528106            -7.587786            6.403392
| 65>   C                      -6.783903            -7.096621            10.591650
| 66>   O                      -7.576018            -8.155001            10.136895
| 67>   H                      -7.577256            -8.115780            9.180449
| 68>   H                      -6.211171            -7.343095            11.536931
| 69>   H                      -5.974185            -6.841315            9.844080
| 70>   H                      -7.378611            -6.180968            10.689863
| 71> *
| 72>
| 73>                          ****END OF INPUT****
 Total Charge           Charge          ....    0
 Multiplicity           Mult            ....    1
 Number of Electrons    NEL             ....   36
Dispersion correction           -0.001721383
FINAL SINGLE POINT ENERGY      -231.473602008365
Dispersion correction           -0.000249975
FINAL SINGLE POINT ENERGY      -115.730905160659

CARTESIAN COORDINATES (ANGSTROEM)
---------------------------------
  C     -9.153282   -8.477792    6.924629
  O     -7.769319   -8.220859    7.312762
  H     -7.444320   -7.572881    6.635456
  H     -9.273223   -9.351089    6.351012
  H     -9.805501   -8.522427    7.775496
  H     -9.528106   -7.587786    6.403392
  C     -6.783903   -7.096621   10.591650
  O     -7.576018   -8.155001   10.136895
  H     -7.577256   -8.115780    9.180449
  H     -6.211171   -7.343095   11.536931
  H     -5.974185   -6.841315    9.844080
  H     -7.378611   -6.180968   10.689863

 Multiplicity           Mult            ....    1
 Number of Electrons    NEL             ....   18
 Basis Dimension        Dim             ....  172

ORBITAL ENERGIES
----------------

  NO   OCC          E(Eh)            E(eV)
   0   2.0000     -19.232186      -523.3344
   1   2.0000     -10.320537      -280.8361
   2   2.0000      -1.143959       -31.1287
   3   2.0000      -0.789065       -21.4716
   4   2.0000      -0.614964       -16.7340
   5   2.0000      -0.544929       -14.8283
   6   2.0000      -0.524709       -14.2781
   7   2.0000      -0.428590       -11.6625
   8   2.0000      -0.374437       -10.1889
   9   0.0000       0.071201         1.9375
  10   0.0000       0.127659         3.4738
  11   0.0000       0.155358         4.2275
  12   0.0000       0.168313         4.5800
  13   0.0000       0.191360         5.2072

MULLIKEN ATOMIC CHARGES
-----------------------
   0 C :   -0.001676
   1 O :   -0.002386
   2 H :    0.000076
   3 H :   -0.000124
   4 H :   -0.001886
   5 H :    0.000325
   6 C :   -0.170843
   7 O :   -0.458855
   8 H :    0.314847
   9 H :    0.117800
  10 H :    0.097844
  11 H :    0.104875
Sum of atomic charges:    0.0000000

LOEWDIN ATOMIC CHARGES
----------------------
   0 C :   -0.005503
   1 O :   -0.021961
   2 H :   -0.001009
   3 H :   -0.000109
   4 H :   -0.001617
   5 H :   -0.000064
   6 C :   -0.407115
   7 O :   -0.051756
   8 H :    0.182092
   9 H :    0.112993
  10 H :    0.099794
  11 H :    0.094255

  Mayer bond orders larger than 0.1
B(  6-C ,  7-O ) :   0.9986 B(  6-C ,  9-H ) :   0.9698 B(  6-C , 10-H ) :   0.9840
B(  6-C , 11-H ) :   0.9705 B(  7-O ,  8-H ) :   0.9046

Dispersion correction           -0.000243186
FINAL SINGLE POINT ENERGY      -115.733520777894

DIPOLE MOMENT
-------------
                                X             Y             Z
Electronic contribution:     -1.15821      -1.47601      -0.37867
Nuclear contribution   :      1.47378       1.89773      -0.06540
                        -----------------------------------------
Total Dipole Moment    :      0.31557       0.42172      -0.44407
                        -----------------------------------------
Magnitude (a.u.)       :      0.68894
Magnitude (Debye)      :      1.75114

Rotational constants in cm-1:     4.170312     0.838609     0.809620
Rotational constants in MHz : 125022.809445 25140.856718 24271.787915

                             ****ORCA TERMINATED NORMALLY****
TOTAL RUN TIME: 0 days 0 hours 0 minutes 59 seconds 255 msec
