                         Program Version 4.1.2  - RELEASE  -
|  1> #Run DFT-D3 single point of the dimer
|  2> ! wB97X-D3 def2-TZVP TIGHTSCF CHELPG PMODEL PAL8
|  3>
|  4> %base "11-64_DFT_AB"
|  5>
|  6> %scf
|  7> MaxIter 1000
|  8> end
|  9>
| 10> * xyz 0 1
| 11>   C                      0.029205             -3.305085            5.575801
| 12>   O                      -1.152025            -2.596991            5.492510
| 13>   H                      -0.980307            -2.042697            4.669758
| 14>   H                      0.889800             -2.641096            5.935441
| 15>   H                      -0.058726            -4.169142            6.203153
| 16>   H                      0.260555             -3.587206            4.550461
| 17>   C                      0.226157             0.355047             4.442395
| 18>   O                      -0.489259            -0.346541            3.477993
| 19>   H                      -0.732001            0.204374             2.709771
| 20>   H                      -0.178238            1.314846             4.774806
| 21>   H                      0.258493             -0.262745            5.341375
| 22>   H                      1.201285             0.667165             4.062171
| 23> *
| 24>
| 25> #Run DFT-D3 single point of the molecule with dimer basis set
| 26> $new_job
| 27> %base "11-64_DFT_A"
| 28> ! wB97X-D3 def2-TZVP TIGHTSCF CHELPG PMODEL
| 29>
| 30> %scf
| 31> MaxIter 1000
| 32> end
| 33>
| 34> * xyz 0 1
| 35>   C                      0.029205             -3.305085            5.575801
| 36>   O                      -1.152025            -2.596991            5.492510
| 37>   H                      -0.980307            -2.042697            4.669758
| 38>   H                      0.889800             -2.641096            5.935441
| 39>   H                      -0.058726            -4.169142            6.203153
| 40>   H                      0.260555             -3.587206            4.550461
| 41>   C                    : 0.226157             0.355047             4.442395
| 42>   O                    : -0.489259            -0.346541            3.477993
| 43>   H                    : -0.732001            0.204374             2.709771
| 44>   H                    : -0.178238            1.314846             4.774806
| 45>   H                    : 0.258493             -0.262745            5.341375
| 46>   H                    : 1.201285             0.667165             4.062171
| 47> *
| 48>
| 49> #Run DFT-D3 single point of the particle with dimer basis set
| 50> $new_job
| 51> %base "11-64_DFT_B"
| 52> ! wB97X-D3 def2-TZVP TIGHTSCF CHELPG PMODEL
| 53>
| 54> %scf
| 55> MaxIter 1000
| 56> end
| 57>
| 58> * xyz 0 1
| 59>   C                    : 0.029205             -3.305085            5.575801
| 60>   O                    : -1.152025            -2.596991            5.492510
| 61>   H                    : -0.980307            -2.042697            4.669758
| 62>   H                    : 0.889800             -2.641096            5.935441
| 63>   H                    : -0.058726            -4.169142            6.203153
| 64>   H                    : 0.260555             -3.587206            4.550461
| 65>   C                      0.226157             0.355047             4.442395
| 66>   O                      -0.489259            -0.346541            3.477993
| 67>   H                      -0.732001            0.204374             2.709771
| 68>   H                      -0.178238            1.314846             4.774806
| 69>   H                      0.258493             -0.262745            5.341375
| 70>   H                      1.201285             0.667165             4.062171
| 71> *
| 72>
| 73>                          ****END OF INPUT****
 Total Charge           Charge          ....    0
 Multiplicity           Mult            ....    1
 Number of Electrons    NEL             ....   36
Dispersion correction           -0.002013434
FINAL SINGLE POINT ENERGY      -231.470443547534
Dispersion correction           -0.000203093
FINAL SINGLE POINT ENERGY      -115.728442240883

CARTESIAN COORDINATES (ANGSTROEM)
---------------------------------
  C      0.029205   -3.305085    5.575801
  O     -1.152025   -2.596991    5.492510
  H     -0.980307   -2.042697    4.669758
  H      0.889800   -2.641096    5.935441
  H     -0.058726   -4.169142    6.203153
  H      0.260555   -3.587206    4.550461
  C      0.226157    0.355047    4.442395
  O     -0.489259   -0.346541    3.477993
  H     -0.732001    0.204374    2.709771
  H     -0.178238    1.314846    4.774806
  H      0.258493   -0.262745    5.341375
  H      1.201285    0.667165    4.062171

 Multiplicity           Mult            ....    1
 Number of Electrons    NEL             ....   18
 Basis Dimension        Dim             ....  172

ORBITAL ENERGIES
----------------

  NO   OCC          E(Eh)            E(eV)
   0   2.0000     -19.232015      -523.3297
   1   2.0000     -10.310722      -280.5690
   2   2.0000      -1.138511       -30.9805
   3   2.0000      -0.796837       -21.6830
   4   2.0000      -0.621057       -16.8998
   5   2.0000      -0.543520       -14.7899
   6   2.0000      -0.521344       -14.1865
   7   2.0000      -0.432072       -11.7573
   8   2.0000      -0.370028       -10.0690
   9   0.0000       0.098291         2.6746
  10   0.0000       0.121979         3.3192
  11   0.0000       0.155632         4.2349
  12   0.0000       0.186727         5.0811
  13   0.0000       0.200663         5.4603

MULLIKEN ATOMIC CHARGES
-----------------------
   0 C :    0.002695
   1 O :   -0.000357
   2 H :   -0.006025
   3 H :   -0.000595
   4 H :    0.000072
   5 H :   -0.001789
   6 C :   -0.137477
   7 O :   -0.470237
   8 H :    0.312823
   9 H :    0.091503
  10 H :    0.118435
  11 H :    0.090951
Sum of atomic charges:    0.0000000

LOEWDIN ATOMIC CHARGES
----------------------
   0 C :   -0.003957
   1 O :   -0.002645
   2 H :   -0.024592
   3 H :   -0.002153
   4 H :   -0.000016
   5 H :   -0.000520
   6 C :   -0.397292
   7 O :   -0.044417
   8 H :    0.177747
   9 H :    0.091112
  10 H :    0.113937
  11 H :    0.092796

  Mayer bond orders larger than 0.1
B(  6-C ,  7-O ) :   1.0016 B(  6-C ,  9-H ) :   0.9706 B(  6-C , 10-H ) :   0.9767
B(  6-C , 11-H ) :   0.9795 B(  7-O ,  8-H ) :   0.8917

Dispersion correction           -0.000250449
FINAL SINGLE POINT ENERGY      -115.733748613241

DIPOLE MOMENT
-------------
                                X             Y             Z
Electronic contribution:     -0.93613      -1.07889      -1.19805
Nuclear contribution   :      1.04418       1.72208       1.07744
                        -----------------------------------------
Total Dipole Moment    :      0.10805       0.64319      -0.12061
                        -----------------------------------------
Magnitude (a.u.)       :      0.66326
Magnitude (Debye)      :      1.68587

Rotational constants in cm-1:     4.400668     0.847396     0.808869
Rotational constants in MHz : 131928.697784 25404.288225 24249.283653

                             ****ORCA TERMINATED NORMALLY****
TOTAL RUN TIME: 0 days 0 hours 1 minutes 11 seconds 356 msec
