                         Program Version 4.1.2  - RELEASE  -
|  1> #Run DFT-D3 single point of the dimer
|  2> ! wB97X-D3 def2-TZVP TIGHTSCF CHELPG PMODEL PAL8
|  3>
|  4> %base "19-26_DFT_AB"
|  5>
|  6> %scf
|  7> MaxIter 1000
|  8> end
|  9>
| 10> * xyz 0 1
| 11>   C                      -9.778594            2.584819             -7.098236
| 12>   O                      -10.503116           3.623638             -6.480022
| 13>   H                      -10.501269           4.334988             -7.158476
| 14>   H                      -9.911806            2.435577             -8.131833
| 15>   H                      -8.678102            2.671316             -7.052734
| 16>   H                      -9.924804            1.624095             -6.681747
| 17>   C                      -9.867993            1.502784             -0.871283
| 18>   O                      -10.416707           1.943120             -2.032187
| 19>   H                      -11.303717           1.658828             -2.102691
| 20>   H                      -8.905948            2.041819             -0.683001
| 21>   H                      -10.578086           1.669338             -0.109362
| 22>   H                      -9.589611            0.430503             -0.931537
| 23> *
| 24>
| 25> #Run DFT-D3 single point of the molecule with dimer basis set
| 26> $new_job
| 27> %base "19-26_DFT_A"
| 28> ! wB97X-D3 def2-TZVP TIGHTSCF CHELPG PMODEL
| 29>
| 30> %scf
| 31> MaxIter 1000
| 32> end
| 33>
| 34> * xyz 0 1
| 35>   C                      -9.778594            2.584819             -7.098236
| 36>   O                      -10.503116           3.623638             -6.480022
| 37>   H                      -10.501269           4.334988             -7.158476
| 38>   H                      -9.911806            2.435577             -8.131833
| 39>   H                      -8.678102            2.671316             -7.052734
| 40>   H                      -9.924804            1.624095             -6.681747
| 41>   C                    : -9.867993            1.502784             -0.871283
| 42>   O                    : -10.416707           1.943120             -2.032187
| 43>   H                    : -11.303717           1.658828             -2.102691
| 44>   H                    : -8.905948            2.041819             -0.683001
| 45>   H                    : -10.578086           1.669338             -0.109362
| 46>   H                    : -9.589611            0.430503             -0.931537
| 47> *
| 48>
| 49> #Run DFT-D3 single point of the particle with dimer basis set
| 50> $new_job
| 51> %base "19-26_DFT_B"
| 52> ! wB97X-D3 def2-TZVP TIGHTSCF CHELPG PMODEL
| 53>
| 54> %scf
| 55> MaxIter 1000
| 56> end
| 57>
| 58> * xyz 0 1
| 59>   C                    : -9.778594            2.584819             -7.098236
| 60>   O                    : -10.503116           3.623638             -6.480022
| 61>   H                    : -10.501269           4.334988             -7.158476
| 62>   H                    : -9.911806            2.435577             -8.131833
| 63>   H                    : -8.678102            2.671316             -7.052734
| 64>   H                    : -9.924804            1.624095             -6.681747
| 65>   C                      -9.867993            1.502784             -0.871283
| 66>   O                      -10.416707           1.943120             -2.032187
| 67>   H                      -11.303717           1.658828             -2.102691
| 68>   H                      -8.905948            2.041819             -0.683001
| 69>   H                      -10.578086           1.669338             -0.109362
| 70>   H                      -9.589611            0.430503             -0.931537
| 71> *
| 72>
| 73>                          ****END OF INPUT****
 Total Charge           Charge          ....    0
 Multiplicity           Mult            ....    1
 Number of Electrons    NEL             ....   36
Dispersion correction           -0.000607832
FINAL SINGLE POINT ENERGY      -231.459188189396
Dispersion correction           -0.000251189
FINAL SINGLE POINT ENERGY      -115.728492370312

CARTESIAN COORDINATES (ANGSTROEM)
---------------------------------
  C     -9.778594    2.584819   -7.098236
  O    -10.503116    3.623638   -6.480022
  H    -10.501269    4.334988   -7.158476
  H     -9.911806    2.435577   -8.131833
  H     -8.678102    2.671316   -7.052734
  H     -9.924804    1.624095   -6.681747
  C     -9.867993    1.502784   -0.871283
  O    -10.416707    1.943120   -2.032187
  H    -11.303717    1.658828   -2.102691
  H     -8.905948    2.041819   -0.683001
  H    -10.578086    1.669338   -0.109362
  H     -9.589611    0.430503   -0.931537

 Multiplicity           Mult            ....    1
 Number of Electrons    NEL             ....   18
 Basis Dimension        Dim             ....  172

ORBITAL ENERGIES
----------------

  NO   OCC          E(Eh)            E(eV)
   0   2.0000     -19.223906      -523.1091
   1   2.0000     -10.307424      -280.4793
   2   2.0000      -1.157851       -31.5067
   3   2.0000      -0.795535       -21.6476
   4   2.0000      -0.624184       -16.9849
   5   2.0000      -0.554468       -15.0878
   6   2.0000      -0.533259       -14.5107
   7   2.0000      -0.426063       -11.5938
   8   2.0000      -0.368625       -10.0308
   9   0.0000       0.092174         2.5082
  10   0.0000       0.117971         3.2102
  11   0.0000       0.159963         4.3528
  12   0.0000       0.170301         4.6341
  13   0.0000       0.202803         5.5185

MULLIKEN ATOMIC CHARGES
-----------------------
   0 C :   -0.000179
   1 O :    0.000039
   2 H :    0.000003
   3 H :   -0.000021
   4 H :    0.000017
   5 H :   -0.000189
   6 C :   -0.139725
   7 O :   -0.464695
   8 H :    0.312168
   9 H :    0.109036
  10 H :    0.097700
  11 H :    0.085846
Sum of atomic charges:    0.0000000

LOEWDIN ATOMIC CHARGES
----------------------
   0 C :   -0.000128
   1 O :   -0.000020
   2 H :   -0.000001
   3 H :   -0.000008
   4 H :   -0.000001
   5 H :   -0.000071
   6 C :   -0.422184
   7 O :   -0.025980
   8 H :    0.155685
   9 H :    0.113315
  10 H :    0.086111
  11 H :    0.093280

  Mayer bond orders larger than 0.1
B(  6-C ,  7-O ) :   1.0024 B(  6-C ,  9-H ) :   0.9715 B(  6-C , 10-H ) :   0.9902
B(  6-C , 11-H ) :   0.9749 B(  7-O ,  8-H ) :   0.9016

Dispersion correction           -0.000208941
FINAL SINGLE POINT ENERGY      -115.731242638773

DIPOLE MOMENT
-------------
                                X             Y             Z
Electronic contribution:     -0.67058       0.66234      -1.49646
Nuclear contribution   :      0.28200      -0.99449       1.88680
                        -----------------------------------------
Total Dipole Moment    :     -0.38858      -0.33215       0.39034
                        -----------------------------------------
Magnitude (a.u.)       :      0.64318
Magnitude (Debye)      :      1.63484

Rotational constants in cm-1:     4.322600     0.893849     0.860196
Rotational constants in MHz : 129588.278118 26796.904009 25788.040266

                             ****ORCA TERMINATED NORMALLY****
TOTAL RUN TIME: 0 days 0 hours 0 minutes 51 seconds 12 msec
