                         Program Version 4.1.2  - RELEASE  -
|  1> #Run DFT-D3 single point of the dimer
|  2> ! wB97X-D3 def2-TZVP TIGHTSCF CHELPG PMODEL PAL8
|  3>
|  4> %base "15-137_DFT_AB"
|  5>
|  6> %scf
|  7> MaxIter 1000
|  8> end
|  9>
| 10> * xyz 0 1
| 11>   C                      0.539348             -7.166168            0.517284
| 12>   O                      0.719637             -6.836601            -0.852378
| 13>   H                      -0.086676            -6.402254            -1.195676
| 14>   H                      1.415332             -7.554984            1.038854
| 15>   H                      0.234247             -6.288057            1.056190
| 16>   H                      -0.304731            -7.862906            0.678743
| 17>   C                      0.239107             -9.725760            3.563550
| 18>   O                      -0.325960            -9.806708            2.226705
| 19>   H                      0.314450             -10.098638           1.586949
| 20>   H                      1.249586             -9.222974            3.675815
| 21>   H                      -0.403865            -9.285869            4.365776
| 22>   H                      0.587013             -10.629534           3.927197
| 23> *
| 24>
| 25> #Run DFT-D3 single point of the molecule with dimer basis set
| 26> $new_job
| 27> %base "15-137_DFT_A"
| 28> ! wB97X-D3 def2-TZVP TIGHTSCF CHELPG PMODEL
| 29>
| 30> %scf
| 31> MaxIter 1000
| 32> end
| 33>
| 34> * xyz 0 1
| 35>   C                      0.539348             -7.166168            0.517284
| 36>   O                      0.719637             -6.836601            -0.852378
| 37>   H                      -0.086676            -6.402254            -1.195676
| 38>   H                      1.415332             -7.554984            1.038854
| 39>   H                      0.234247             -6.288057            1.056190
| 40>   H                      -0.304731            -7.862906            0.678743
| 41>   C                    : 0.239107             -9.725760            3.563550
| 42>   O                    : -0.325960            -9.806708            2.226705
| 43>   H                    : 0.314450             -10.098638           1.586949
| 44>   H                    : 1.249586             -9.222974            3.675815
| 45>   H                    : -0.403865            -9.285869            4.365776
| 46>   H                    : 0.587013             -10.629534           3.927197
| 47> *
| 48>
| 49> #Run DFT-D3 single point of the particle with dimer basis set
| 50> $new_job
| 51> %base "15-137_DFT_B"
| 52> ! wB97X-D3 def2-TZVP TIGHTSCF CHELPG PMODEL
| 53>
| 54> %scf
| 55> MaxIter 1000
| 56> end
| 57>
| 58> * xyz 0 1
| 59>   C                    : 0.539348             -7.166168            0.517284
| 60>   O                    : 0.719637             -6.836601            -0.852378
| 61>   H                    : -0.086676            -6.402254            -1.195676
| 62>   H                    : 1.415332             -7.554984            1.038854
| 63>   H                    : 0.234247             -6.288057            1.056190
| 64>   H                    : -0.304731            -7.862906            0.678743
| 65>   C                      0.239107             -9.725760            3.563550
| 66>   O                      -0.325960            -9.806708            2.226705
| 67>   H                      0.314450             -10.098638           1.586949
| 68>   H                      1.249586             -9.222974            3.675815
| 69>   H                      -0.403865            -9.285869            4.365776
| 70>   H                      0.587013             -10.629534           3.927197
| 71> *
| 72>
| 73>                          ****END OF INPUT****
 Total Charge           Charge          ....    0
 Multiplicity           Mult            ....    1
 Number of Electrons    NEL             ....   36
Dispersion correction           -0.001824377
FINAL SINGLE POINT ENERGY      -231.456236552838
Dispersion correction           -0.000245592
FINAL SINGLE POINT ENERGY      -115.732998287971

CARTESIAN COORDINATES (ANGSTROEM)
---------------------------------
  C      0.539348   -7.166168    0.517284
  O      0.719637   -6.836601   -0.852378
  H     -0.086676   -6.402254   -1.195676
  H      1.415332   -7.554984    1.038854
  H      0.234247   -6.288057    1.056190
  H     -0.304731   -7.862906    0.678743
  C      0.239107   -9.725760    3.563550
  O     -0.325960   -9.806708    2.226705
  H      0.314450  -10.098638    1.586949
  H      1.249586   -9.222974    3.675815
  H     -0.403865   -9.285869    4.365776
  H      0.587013  -10.629534    3.927197

 Multiplicity           Mult            ....    1
 Number of Electrons    NEL             ....   18
 Basis Dimension        Dim             ....  172

ORBITAL ENERGIES
----------------

  NO   OCC          E(Eh)            E(eV)
   0   2.0000     -19.236117      -523.4413
   1   2.0000     -10.319032      -280.7951
   2   2.0000      -1.127642       -30.6847
   3   2.0000      -0.806033       -21.9333
   4   2.0000      -0.618393       -16.8273
   5   2.0000      -0.530042       -14.4232
   6   2.0000      -0.516636       -14.0584
   7   2.0000      -0.440171       -11.9777
   8   2.0000      -0.373870       -10.1735
   9   0.0000       0.088735         2.4146
  10   0.0000       0.126422         3.4401
  11   0.0000       0.140709         3.8289
  12   0.0000       0.176984         4.8160
  13   0.0000       0.188514         5.1297

MULLIKEN ATOMIC CHARGES
-----------------------
   0 C :   -0.003887
   1 O :    0.000032
   2 H :   -0.000024
   3 H :   -0.002170
   4 H :   -0.001639
   5 H :   -0.005387
   6 C :   -0.179145
   7 O :   -0.471973
   8 H :    0.318960
   9 H :    0.098582
  10 H :    0.133493
  11 H :    0.113157
Sum of atomic charges:   -0.0000000

LOEWDIN ATOMIC CHARGES
----------------------
   0 C :   -0.011937
   1 O :   -0.000042
   2 H :   -0.000012
   3 H :   -0.001995
   4 H :   -0.000290
   5 H :   -0.013227
   6 C :   -0.366987
   7 O :   -0.072995
   8 H :    0.163586
   9 H :    0.103992
  10 H :    0.117557
  11 H :    0.082349

  Mayer bond orders larger than 0.1
B(  6-C ,  7-O ) :   0.9911 B(  6-C ,  9-H ) :   0.9708 B(  6-C , 10-H ) :   0.9731
B(  6-C , 11-H ) :   0.9730 B(  7-O ,  8-H ) :   0.8947

Dispersion correction           -0.000295480
FINAL SINGLE POINT ENERGY      -115.721975676611

DIPOLE MOMENT
-------------
                                X             Y             Z
Electronic contribution:     -1.03477      -0.08509      -1.74655
Nuclear contribution   :      1.70277      -0.12267       1.92255
                        -----------------------------------------
Total Dipole Moment    :      0.66800      -0.20776       0.17600
                        -----------------------------------------
Magnitude (a.u.)       :      0.72136
Magnitude (Debye)      :      1.83356

Rotational constants in cm-1:     4.640668     0.777199     0.737521
Rotational constants in MHz : 139123.727006 23299.831142 22110.329014

                             ****ORCA TERMINATED NORMALLY****
TOTAL RUN TIME: 0 days 0 hours 0 minutes 59 seconds 881 msec
