                         Program Version 4.1.2  - RELEASE  -
|  1> #Run DFT-D3 single point of the dimer
|  2> ! wB97X-D3 def2-TZVP TIGHTSCF CHELPG PMODEL PAL8
|  3>
|  4> %base "4-61_DFT_AB"
|  5>
|  6> %scf
|  7> MaxIter 1000
|  8> end
|  9>
| 10> * xyz 0 1
| 11>   C                      -10.731025           2.823541             -1.194444
| 12>   O                      -10.503371           3.750135             -0.081358
| 13>   H                      -9.717192            3.611297             0.489731
| 14>   H                      -10.037854           3.038673             -2.059465
| 15>   H                      -10.587128           1.762189             -0.946121
| 16>   H                      -11.729911           2.863897             -1.670803
| 17>   C                      -8.472294            3.276618             2.963026
| 18>   O                      -8.874615            4.466576             2.332064
| 19>   H                      -9.666525            4.905344             2.803990
| 20>   H                      -7.813810            2.746300             2.298224
| 21>   H                      -7.828834            3.420674             3.829183
| 22>   H                      -9.259429            2.586746             3.223176
| 23> *
| 24>
| 25> #Run DFT-D3 single point of the molecule with dimer basis set
| 26> $new_job
| 27> %base "4-61_DFT_A"
| 28> ! wB97X-D3 def2-TZVP TIGHTSCF CHELPG PMODEL
| 29>
| 30> %scf
| 31> MaxIter 1000
| 32> end
| 33>
| 34> * xyz 0 1
| 35>   C                      -10.731025           2.823541             -1.194444
| 36>   O                      -10.503371           3.750135             -0.081358
| 37>   H                      -9.717192            3.611297             0.489731
| 38>   H                      -10.037854           3.038673             -2.059465
| 39>   H                      -10.587128           1.762189             -0.946121
| 40>   H                      -11.729911           2.863897             -1.670803
| 41>   C                    : -8.472294            3.276618             2.963026
| 42>   O                    : -8.874615            4.466576             2.332064
| 43>   H                    : -9.666525            4.905344             2.803990
| 44>   H                    : -7.813810            2.746300             2.298224
| 45>   H                    : -7.828834            3.420674             3.829183
| 46>   H                    : -9.259429            2.586746             3.223176
| 47> *
| 48>
| 49> #Run DFT-D3 single point of the particle with dimer basis set
| 50> $new_job
| 51> %base "4-61_DFT_B"
| 52> ! wB97X-D3 def2-TZVP TIGHTSCF CHELPG PMODEL
| 53>
| 54> %scf
| 55> MaxIter 1000
| 56> end
| 57>
| 58> * xyz 0 1
| 59>   C                    : -10.731025           2.823541             -1.194444
| 60>   O                    : -10.503371           3.750135             -0.081358
| 61>   H                    : -9.717192            3.611297             0.489731
| 62>   H                    : -10.037854           3.038673             -2.059465
| 63>   H                    : -10.587128           1.762189             -0.946121
| 64>   H                    : -11.729911           2.863897             -1.670803
| 65>   C                      -8.472294            3.276618             2.963026
| 66>   O                      -8.874615            4.466576             2.332064
| 67>   H                      -9.666525            4.905344             2.803990
| 68>   H                      -7.813810            2.746300             2.298224
| 69>   H                      -7.828834            3.420674             3.829183
| 70>   H                      -9.259429            2.586746             3.223176
| 71> *
| 72>
| 73>                          ****END OF INPUT****
 Total Charge           Charge          ....    0
 Multiplicity           Mult            ....    1
 Number of Electrons    NEL             ....   36
Dispersion correction           -0.001637739
FINAL SINGLE POINT ENERGY      -231.464563238917
Dispersion correction           -0.000319201
FINAL SINGLE POINT ENERGY      -115.726651387532

CARTESIAN COORDINATES (ANGSTROEM)
---------------------------------
  C    -10.731025    2.823541   -1.194444
  O    -10.503371    3.750135   -0.081358
  H     -9.717192    3.611297    0.489731
  H    -10.037854    3.038673   -2.059465
  H    -10.587128    1.762189   -0.946121
  H    -11.729911    2.863897   -1.670803
  C     -8.472294    3.276618    2.963026
  O     -8.874615    4.466576    2.332064
  H     -9.666525    4.905344    2.803990
  H     -7.813810    2.746300    2.298224
  H     -7.828834    3.420674    3.829183
  H     -9.259429    2.586746    3.223176

 Multiplicity           Mult            ....    1
 Number of Electrons    NEL             ....   18
 Basis Dimension        Dim             ....  172

ORBITAL ENERGIES
----------------

  NO   OCC          E(Eh)            E(eV)
   0   2.0000     -19.236847      -523.4612
   1   2.0000     -10.307050      -280.4691
   2   2.0000      -1.126447       -30.6522
   3   2.0000      -0.797126       -21.6909
   4   2.0000      -0.608470       -16.5573
   5   2.0000      -0.541282       -14.7290
   6   2.0000      -0.526586       -14.3291
   7   2.0000      -0.428056       -11.6480
   8   2.0000      -0.373233       -10.1562
   9   0.0000       0.091397         2.4871
  10   0.0000       0.113553         3.0899
  11   0.0000       0.148602         4.0437
  12   0.0000       0.189866         5.1665
  13   0.0000       0.201542         5.4842

MULLIKEN ATOMIC CHARGES
-----------------------
   0 C :   -0.000152
   1 O :   -0.002564
   2 H :   -0.005092
   3 H :    0.000024
   4 H :    0.000038
   5 H :    0.000014
   6 C :   -0.163565
   7 O :   -0.480731
   8 H :    0.320435
   9 H :    0.120935
  10 H :    0.103265
  11 H :    0.107395
Sum of atomic charges:   -0.0000000

LOEWDIN ATOMIC CHARGES
----------------------
   0 C :   -0.000301
   1 O :   -0.006325
   2 H :   -0.024032
   3 H :   -0.000007
   4 H :   -0.000007
   5 H :   -0.000007
   6 C :   -0.396529
   7 O :   -0.070868
   8 H :    0.202933
   9 H :    0.107203
  10 H :    0.094990
  11 H :    0.092951

  Mayer bond orders larger than 0.1
B(  6-C ,  7-O ) :   0.9941 B(  6-C ,  9-H ) :   0.9791 B(  6-C , 10-H ) :   0.9705
B(  6-C , 11-H ) :   0.9754 B(  7-O ,  8-H ) :   0.8850

Dispersion correction           -0.000267608
FINAL SINGLE POINT ENERGY      -115.731827121577

DIPOLE MOMENT
-------------
                                X             Y             Z
Electronic contribution:     -0.51638       1.55675      -0.88441
Nuclear contribution   :      0.19399      -1.76797       1.42553
                        -----------------------------------------
Total Dipole Moment    :     -0.32240      -0.21122       0.54112
                        -----------------------------------------
Magnitude (a.u.)       :      0.66435
Magnitude (Debye)      :      1.68865

Rotational constants in cm-1:     4.445931     0.824176     0.794900
Rotational constants in MHz : 133285.653449 24708.176005 23830.498525

                             ****ORCA TERMINATED NORMALLY****
TOTAL RUN TIME: 0 days 0 hours 1 minutes 37 seconds 271 msec
