                         Program Version 4.1.2  - RELEASE  -
|  1> #Run DFT-D3 single point of the dimer
|  2> ! wB97X-D3 def2-TZVP TIGHTSCF CHELPG PMODEL PAL8
|  3>
|  4> %base "14-16_DFT_AB"
|  5>
|  6> %scf
|  7> MaxIter 1000
|  8> end
|  9>
| 10> * xyz 0 1
| 11>   C                      -9.672709            4.006744             2.552932
| 12>   O                      -10.300829           4.988320             3.368327
| 13>   H                      -10.582800           4.429678             4.110281
| 14>   H                      -10.532027           3.583830             1.937451
| 15>   H                      -9.091793            4.425824             1.762786
| 16>   H                      -9.184682            3.240365             3.147805
| 17>   C                      -7.231096            0.734802             6.355933
| 18>   O                      -7.747945            -0.137764            5.435867
| 19>   H                      -7.369196            -1.030215            5.518210
| 20>   H                      -6.828257            0.153118             7.179129
| 21>   H                      -6.361936            1.306457             6.030149
| 22>   H                      -7.932546            1.299147             6.803414
| 23> *
| 24>
| 25> #Run DFT-D3 single point of the molecule with dimer basis set
| 26> $new_job
| 27> %base "14-16_DFT_A"
| 28> ! wB97X-D3 def2-TZVP TIGHTSCF CHELPG PMODEL
| 29>
| 30> %scf
| 31> MaxIter 1000
| 32> end
| 33>
| 34> * xyz 0 1
| 35>   C                      -9.672709            4.006744             2.552932
| 36>   O                      -10.300829           4.988320             3.368327
| 37>   H                      -10.582800           4.429678             4.110281
| 38>   H                      -10.532027           3.583830             1.937451
| 39>   H                      -9.091793            4.425824             1.762786
| 40>   H                      -9.184682            3.240365             3.147805
| 41>   C                    : -7.231096            0.734802             6.355933
| 42>   O                    : -7.747945            -0.137764            5.435867
| 43>   H                    : -7.369196            -1.030215            5.518210
| 44>   H                    : -6.828257            0.153118             7.179129
| 45>   H                    : -6.361936            1.306457             6.030149
| 46>   H                    : -7.932546            1.299147             6.803414
| 47> *
| 48>
| 49> #Run DFT-D3 single point of the particle with dimer basis set
| 50> $new_job
| 51> %base "14-16_DFT_B"
| 52> ! wB97X-D3 def2-TZVP TIGHTSCF CHELPG PMODEL
| 53>
| 54> %scf
| 55> MaxIter 1000
| 56> end
| 57>
| 58> * xyz 0 1
| 59>   C                    : -9.672709            4.006744             2.552932
| 60>   O                    : -10.300829           4.988320             3.368327
| 61>   H                    : -10.582800           4.429678             4.110281
| 62>   H                    : -10.532027           3.583830             1.937451
| 63>   H                    : -9.091793            4.425824             1.762786
| 64>   H                    : -9.184682            3.240365             3.147805
| 65>   C                      -7.231096            0.734802             6.355933
| 66>   O                      -7.747945            -0.137764            5.435867
| 67>   H                      -7.369196            -1.030215            5.518210
| 68>   H                      -6.828257            0.153118             7.179129
| 69>   H                      -6.361936            1.306457             6.030149
| 70>   H                      -7.932546            1.299147             6.803414
| 71> *
| 72>
| 73>                          ****END OF INPUT****
 Total Charge           Charge          ....    0
 Multiplicity           Mult            ....    1
 Number of Electrons    NEL             ....   36
Dispersion correction           -0.000631791
FINAL SINGLE POINT ENERGY      -231.453289946241
Dispersion correction           -0.000215645
FINAL SINGLE POINT ENERGY      -115.727263288258

CARTESIAN COORDINATES (ANGSTROEM)
---------------------------------
  C     -9.672709    4.006744    2.552932
  O    -10.300829    4.988320    3.368327
  H    -10.582800    4.429678    4.110281
  H    -10.532027    3.583830    1.937451
  H     -9.091793    4.425824    1.762786
  H     -9.184682    3.240365    3.147805
  C     -7.231096    0.734802    6.355933
  O     -7.747945   -0.137764    5.435867
  H     -7.369196   -1.030215    5.518210
  H     -6.828257    0.153118    7.179129
  H     -6.361936    1.306457    6.030149
  H     -7.932546    1.299147    6.803414

 Multiplicity           Mult            ....    1
 Number of Electrons    NEL             ....   18
 Basis Dimension        Dim             ....  172

ORBITAL ENERGIES
----------------

  NO   OCC          E(Eh)            E(eV)
   0   2.0000     -19.227966      -523.2195
   1   2.0000     -10.297800      -280.2174
   2   2.0000      -1.144709       -31.1491
   3   2.0000      -0.803627       -21.8678
   4   2.0000      -0.622198       -16.9309
   5   2.0000      -0.556822       -15.1519
   6   2.0000      -0.533896       -14.5281
   7   2.0000      -0.419979       -11.4282
   8   2.0000      -0.372841       -10.1455
   9   0.0000       0.092662         2.5215
  10   0.0000       0.111777         3.0416
  11   0.0000       0.157166         4.2767
  12   0.0000       0.171456         4.6655
  13   0.0000       0.193166         5.2563

MULLIKEN ATOMIC CHARGES
-----------------------
   0 C :    0.000121
   1 O :    0.000001
   2 H :   -0.000003
   3 H :   -0.000005
   4 H :   -0.000003
   5 H :   -0.000374
   6 C :   -0.149533
   7 O :   -0.482737
   8 H :    0.324924
   9 H :    0.092366
  10 H :    0.094385
  11 H :    0.120858
Sum of atomic charges:   -0.0000000

LOEWDIN ATOMIC CHARGES
----------------------
   0 C :   -0.000022
   1 O :   -0.000001
   2 H :   -0.000003
   3 H :   -0.000000
   4 H :   -0.000000
   5 H :   -0.000131
   6 C :   -0.406290
   7 O :   -0.050991
   8 H :    0.181541
   9 H :    0.096992
  10 H :    0.095392
  11 H :    0.083513

  Mayer bond orders larger than 0.1
B(  6-C ,  7-O ) :   1.0089 B(  6-C ,  9-H ) :   0.9968 B(  6-C , 10-H ) :   0.9722
B(  6-C , 11-H ) :   0.9747 B(  7-O ,  8-H ) :   0.8912

Dispersion correction           -0.000224980
FINAL SINGLE POINT ENERGY      -115.725251616604

DIPOLE MOMENT
-------------
                                X             Y             Z
Electronic contribution:     -0.88152      -0.90742      -1.35676
Nuclear contribution   :      1.31909       0.63617       1.80503
                        -----------------------------------------
Total Dipole Moment    :      0.43757      -0.27124       0.44827
                        -----------------------------------------
Magnitude (a.u.)       :      0.68263
Magnitude (Debye)      :      1.73511

Rotational constants in cm-1:     4.620095     0.868972     0.844992
Rotational constants in MHz : 138506.961448 26051.115249 25332.221964

                             ****ORCA TERMINATED NORMALLY****
TOTAL RUN TIME: 0 days 0 hours 1 minutes 2 seconds 832 msec
