                         Program Version 4.1.2  - RELEASE  -
|  1> #Run DFT-D3 single point of the dimer
|  2> ! wB97X-D3 def2-TZVP TIGHTSCF CHELPG PMODEL PAL8
|  3>
|  4> %base "15-21_DFT_AB"
|  5>
|  6> %scf
|  7> MaxIter 1000
|  8> end
|  9>
| 10> * xyz 0 1
| 11>   C                      4.420336             -3.631376            1.742753
| 12>   O                      3.162538             -4.207617            1.389367
| 13>   H                      2.908502             -4.657569            2.203867
| 14>   H                      4.810058             -2.966194            0.971924
| 15>   H                      4.419981             -3.156620            2.638260
| 16>   H                      5.257324             -4.385752            1.882703
| 17>   C                      3.467180             1.393242             0.592832
| 18>   O                      3.199770             2.200727             -0.571443
| 19>   H                      2.595145             1.775491             -1.163679
| 20>   H                      3.979197             0.438904             0.292025
| 21>   H                      4.181762             1.851568             1.262663
| 22>   H                      2.615667             1.283709             1.299601
| 23> *
| 24>
| 25> #Run DFT-D3 single point of the molecule with dimer basis set
| 26> $new_job
| 27> %base "15-21_DFT_A"
| 28> ! wB97X-D3 def2-TZVP TIGHTSCF CHELPG PMODEL
| 29>
| 30> %scf
| 31> MaxIter 1000
| 32> end
| 33>
| 34> * xyz 0 1
| 35>   C                      4.420336             -3.631376            1.742753
| 36>   O                      3.162538             -4.207617            1.389367
| 37>   H                      2.908502             -4.657569            2.203867
| 38>   H                      4.810058             -2.966194            0.971924
| 39>   H                      4.419981             -3.156620            2.638260
| 40>   H                      5.257324             -4.385752            1.882703
| 41>   C                    : 3.467180             1.393242             0.592832
| 42>   O                    : 3.199770             2.200727             -0.571443
| 43>   H                    : 2.595145             1.775491             -1.163679
| 44>   H                    : 3.979197             0.438904             0.292025
| 45>   H                    : 4.181762             1.851568             1.262663
| 46>   H                    : 2.615667             1.283709             1.299601
| 47> *
| 48>
| 49> #Run DFT-D3 single point of the particle with dimer basis set
| 50> $new_job
| 51> %base "15-21_DFT_B"
| 52> ! wB97X-D3 def2-TZVP TIGHTSCF CHELPG PMODEL
| 53>
| 54> %scf
| 55> MaxIter 1000
| 56> end
| 57>
| 58> * xyz 0 1
| 59>   C                    : 4.420336             -3.631376            1.742753
| 60>   O                    : 3.162538             -4.207617            1.389367
| 61>   H                    : 2.908502             -4.657569            2.203867
| 62>   H                    : 4.810058             -2.966194            0.971924
| 63>   H                    : 4.419981             -3.156620            2.638260
| 64>   H                    : 5.257324             -4.385752            1.882703
| 65>   C                      3.467180             1.393242             0.592832
| 66>   O                      3.199770             2.200727             -0.571443
| 67>   H                      2.595145             1.775491             -1.163679
| 68>   H                      3.979197             0.438904             0.292025
| 69>   H                      4.181762             1.851568             1.262663
| 70>   H                      2.615667             1.283709             1.299601
| 71> *
| 72>
| 73>                          ****END OF INPUT****
 Total Charge           Charge          ....    0
 Multiplicity           Mult            ....    1
 Number of Electrons    NEL             ....   36
Dispersion correction           -0.000768018
FINAL SINGLE POINT ENERGY      -231.459361086880
Dispersion correction           -0.000239924
FINAL SINGLE POINT ENERGY      -115.728307871201

CARTESIAN COORDINATES (ANGSTROEM)
---------------------------------
  C      4.420336   -3.631376    1.742753
  O      3.162538   -4.207617    1.389367
  H      2.908502   -4.657569    2.203867
  H      4.810058   -2.966194    0.971924
  H      4.419981   -3.156620    2.638260
  H      5.257324   -4.385752    1.882703
  C      3.467180    1.393242    0.592832
  O      3.199770    2.200727   -0.571443
  H      2.595145    1.775491   -1.163679
  H      3.979197    0.438904    0.292025
  H      4.181762    1.851568    1.262663
  H      2.615667    1.283709    1.299601

 Multiplicity           Mult            ....    1
 Number of Electrons    NEL             ....   18
 Basis Dimension        Dim             ....  172

ORBITAL ENERGIES
----------------

  NO   OCC          E(Eh)            E(eV)
   0   2.0000     -19.229527      -523.2620
   1   2.0000     -10.320286      -280.8293
   2   2.0000      -1.128278       -30.7020
   3   2.0000      -0.799782       -21.7632
   4   2.0000      -0.604083       -16.4379
   5   2.0000      -0.543725       -14.7955
   6   2.0000      -0.522989       -14.2313
   7   2.0000      -0.422479       -11.4963
   8   2.0000      -0.378227       -10.2921
   9   0.0000       0.082230         2.2376
  10   0.0000       0.119050         3.2395
  11   0.0000       0.140395         3.8203
  12   0.0000       0.165329         4.4988
  13   0.0000       0.183851         5.0028

MULLIKEN ATOMIC CHARGES
-----------------------
   0 C :    0.000096
   1 O :    0.000006
   2 H :    0.000001
   3 H :   -0.000403
   4 H :   -0.000008
   5 H :   -0.000015
   6 C :   -0.167243
   7 O :   -0.483568
   8 H :    0.315472
   9 H :    0.106440
  10 H :    0.123857
  11 H :    0.105365
Sum of atomic charges:   -0.0000000

LOEWDIN ATOMIC CHARGES
----------------------
   0 C :   -0.000189
   1 O :   -0.000002
   2 H :   -0.000000
   3 H :   -0.000294
   4 H :   -0.000012
   5 H :   -0.000002
   6 C :   -0.374958
   7 O :   -0.091129
   8 H :    0.157374
   9 H :    0.103322
  10 H :    0.106061
  11 H :    0.099829

  Mayer bond orders larger than 0.1
B(  6-C ,  7-O ) :   0.9988 B(  6-C ,  9-H ) :   0.9787 B(  6-C , 10-H ) :   0.9718
B(  6-C , 11-H ) :   0.9700 B(  7-O ,  8-H ) :   0.8994

Dispersion correction           -0.000284390
FINAL SINGLE POINT ENERGY      -115.730670863696

DIPOLE MOMENT
-------------
                                X             Y             Z
Electronic contribution:     -0.34581       1.10472      -1.49164
Nuclear contribution   :      0.09176      -1.69009       1.61502
                        -----------------------------------------
Total Dipole Moment    :     -0.25405      -0.58537       0.12338
                        -----------------------------------------
Magnitude (a.u.)       :      0.64994
Magnitude (Debye)      :      1.65203

Rotational constants in cm-1:     4.393838     0.782472     0.772406
Rotational constants in MHz : 131723.962876 23457.917703 23156.152176

                             ****ORCA TERMINATED NORMALLY****
TOTAL RUN TIME: 0 days 0 hours 0 minutes 55 seconds 279 msec
