                         Program Version 4.1.2  - RELEASE  -
|  1> #Run DFT-D3 single point of the dimer
|  2> ! wB97X-D3 def2-TZVP TIGHTSCF CHELPG PMODEL PAL8
|  3>
|  4> %base "16-161_DFT_AB"
|  5>
|  6> %scf
|  7> MaxIter 1000
|  8> end
|  9>
| 10> * xyz 0 1
| 11>   C                      0.580645             0.836161             0.247344
| 12>   O                      1.005558             0.186530             -0.967895
| 13>   H                      0.387211             -0.525010            -1.153475
| 14>   H                      0.264405             0.089236             0.943966
| 15>   H                      1.336191             1.459964             0.762796
| 16>   H                      -0.256012            1.497963             0.130937
| 17>   C                      0.745206             -3.975291            -0.579764
| 18>   O                      0.307130             -2.700104            -0.591971
| 19>   H                      0.261849             -2.321639            0.278129
| 20>   H                      1.456053             -4.077456            0.239534
| 21>   H                      -0.000700            -4.631247            -0.176744
| 22>   H                      1.118313             -4.411004            -1.534896
| 23> *
| 24>
| 25> #Run DFT-D3 single point of the molecule with dimer basis set
| 26> $new_job
| 27> %base "16-161_DFT_A"
| 28> ! wB97X-D3 def2-TZVP TIGHTSCF CHELPG PMODEL
| 29>
| 30> %scf
| 31> MaxIter 1000
| 32> end
| 33>
| 34> * xyz 0 1
| 35>   C                      0.580645             0.836161             0.247344
| 36>   O                      1.005558             0.186530             -0.967895
| 37>   H                      0.387211             -0.525010            -1.153475
| 38>   H                      0.264405             0.089236             0.943966
| 39>   H                      1.336191             1.459964             0.762796
| 40>   H                      -0.256012            1.497963             0.130937
| 41>   C                    : 0.745206             -3.975291            -0.579764
| 42>   O                    : 0.307130             -2.700104            -0.591971
| 43>   H                    : 0.261849             -2.321639            0.278129
| 44>   H                    : 1.456053             -4.077456            0.239534
| 45>   H                    : -0.000700            -4.631247            -0.176744
| 46>   H                    : 1.118313             -4.411004            -1.534896
| 47> *
| 48>
| 49> #Run DFT-D3 single point of the particle with dimer basis set
| 50> $new_job
| 51> %base "16-161_DFT_B"
| 52> ! wB97X-D3 def2-TZVP TIGHTSCF CHELPG PMODEL
| 53>
| 54> %scf
| 55> MaxIter 1000
| 56> end
| 57>
| 58> * xyz 0 1
| 59>   C                    : 0.580645             0.836161             0.247344
| 60>   O                    : 1.005558             0.186530             -0.967895
| 61>   H                    : 0.387211             -0.525010            -1.153475
| 62>   H                    : 0.264405             0.089236             0.943966
| 63>   H                    : 1.336191             1.459964             0.762796
| 64>   H                    : -0.256012            1.497963             0.130937
| 65>   C                      0.745206             -3.975291            -0.579764
| 66>   O                      0.307130             -2.700104            -0.591971
| 67>   H                      0.261849             -2.321639            0.278129
| 68>   H                      1.456053             -4.077456            0.239534
| 69>   H                      -0.000700            -4.631247            -0.176744
| 70>   H                      1.118313             -4.411004            -1.534896
| 71> *
| 72>
| 73>                          ****END OF INPUT****
 Total Charge           Charge          ....    0
 Multiplicity           Mult            ....    1
 Number of Electrons    NEL             ....   36
Dispersion correction           -0.001597614
FINAL SINGLE POINT ENERGY      -231.460814998349
Dispersion correction           -0.000254976
FINAL SINGLE POINT ENERGY      -115.732494220118

CARTESIAN COORDINATES (ANGSTROEM)
---------------------------------
  C      0.580645    0.836161    0.247344
  O      1.005558    0.186530   -0.967895
  H      0.387211   -0.525010   -1.153475
  H      0.264405    0.089236    0.943966
  H      1.336191    1.459964    0.762796
  H     -0.256012    1.497963    0.130937
  C      0.745206   -3.975291   -0.579764
  O      0.307130   -2.700104   -0.591971
  H      0.261849   -2.321639    0.278129
  H      1.456053   -4.077456    0.239534
  H     -0.000700   -4.631247   -0.176744
  H      1.118313   -4.411004   -1.534896

 Multiplicity           Mult            ....    1
 Number of Electrons    NEL             ....   18
 Basis Dimension        Dim             ....  172

ORBITAL ENERGIES
----------------

  NO   OCC          E(Eh)            E(eV)
   0   2.0000     -19.227635      -523.2105
   1   2.0000     -10.308180      -280.4998
   2   2.0000      -1.158190       -31.5160
   3   2.0000      -0.797830       -21.7101
   4   2.0000      -0.632970       -17.2240
   5   2.0000      -0.545948       -14.8560
   6   2.0000      -0.538923       -14.6648
   7   2.0000      -0.427919       -11.6443
   8   2.0000      -0.362207        -9.8561
   9   0.0000       0.085177         2.3178
  10   0.0000       0.126183         3.4336
  11   0.0000       0.157711         4.2915
  12   0.0000       0.181753         4.9458
  13   0.0000       0.202023         5.4973

MULLIKEN ATOMIC CHARGES
-----------------------
   0 C :   -0.002092
   1 O :   -0.001065
   2 H :   -0.007375
   3 H :   -0.000007
   4 H :    0.000200
   5 H :   -0.000102
   6 C :   -0.150468
   7 O :   -0.460884
   8 H :    0.323393
   9 H :    0.087882
  10 H :    0.090892
  11 H :    0.119625
Sum of atomic charges:    0.0000000

LOEWDIN ATOMIC CHARGES
----------------------
   0 C :   -0.002757
   1 O :   -0.005194
   2 H :   -0.020458
   3 H :   -0.001447
   4 H :   -0.000009
   5 H :   -0.000038
   6 C :   -0.434105
   7 O :   -0.004373
   8 H :    0.173839
   9 H :    0.093181
  10 H :    0.088366
  11 H :    0.112995

  Mayer bond orders larger than 0.1
B(  6-C ,  7-O ) :   0.9980 B(  6-C ,  9-H ) :   0.9934 B(  6-C , 10-H ) :   0.9764
B(  6-C , 11-H ) :   0.9690 B(  7-O ,  8-H ) :   0.8881

Dispersion correction           -0.000210894
FINAL SINGLE POINT ENERGY      -115.725364214701

DIPOLE MOMENT
-------------
                                X             Y             Z
Electronic contribution:     -0.57090       1.76491      -0.34782
Nuclear contribution   :      0.69851      -2.00308       0.94496
                        -----------------------------------------
Total Dipole Moment    :      0.12761      -0.23817       0.59714
                        -----------------------------------------
Magnitude (a.u.)       :      0.65543
Magnitude (Debye)      :      1.66596

Rotational constants in cm-1:     4.484570     0.898157     0.846940
Rotational constants in MHz : 134444.012927 26926.060408 25390.611120

                             ****ORCA TERMINATED NORMALLY****
TOTAL RUN TIME: 0 days 0 hours 1 minutes 2 seconds 685 msec
