                         Program Version 4.1.2  - RELEASE  -
|  1> #Run DFT-D3 single point of the dimer
|  2> ! wB97X-D3 def2-TZVP TIGHTSCF CHELPG PMODEL PAL8
|  3>
|  4> %base "2-157_DFT_AB"
|  5>
|  6> %scf
|  7> MaxIter 1000
|  8> end
|  9>
| 10> * xyz 0 1
| 11>   C                      1.254855             -3.502723            -4.882211
| 12>   O                      0.769337             -3.116388            -6.096251
| 13>   H                      1.398327             -2.419543            -6.356148
| 14>   H                      1.332779             -4.581020            -4.796774
| 15>   H                      2.314396             -3.121156            -4.747694
| 16>   H                      0.714537             -3.056710            -3.998052
| 17>   C                      4.859800             -5.892297            -4.253619
| 18>   O                      4.321151             -4.666534            -4.741819
| 19>   H                      4.981520             -3.996794            -4.816819
| 20>   H                      5.316835             -5.818093            -3.271815
| 21>   H                      4.069458             -6.661182            -4.133229
| 22>   H                      5.564534             -6.266359            -4.983089
| 23> *
| 24>
| 25> #Run DFT-D3 single point of the molecule with dimer basis set
| 26> $new_job
| 27> %base "2-157_DFT_A"
| 28> ! wB97X-D3 def2-TZVP TIGHTSCF CHELPG PMODEL
| 29>
| 30> %scf
| 31> MaxIter 1000
| 32> end
| 33>
| 34> * xyz 0 1
| 35>   C                      1.254855             -3.502723            -4.882211
| 36>   O                      0.769337             -3.116388            -6.096251
| 37>   H                      1.398327             -2.419543            -6.356148
| 38>   H                      1.332779             -4.581020            -4.796774
| 39>   H                      2.314396             -3.121156            -4.747694
| 40>   H                      0.714537             -3.056710            -3.998052
| 41>   C                    : 4.859800             -5.892297            -4.253619
| 42>   O                    : 4.321151             -4.666534            -4.741819
| 43>   H                    : 4.981520             -3.996794            -4.816819
| 44>   H                    : 5.316835             -5.818093            -3.271815
| 45>   H                    : 4.069458             -6.661182            -4.133229
| 46>   H                    : 5.564534             -6.266359            -4.983089
| 47> *
| 48>
| 49> #Run DFT-D3 single point of the particle with dimer basis set
| 50> $new_job
| 51> %base "2-157_DFT_B"
| 52> ! wB97X-D3 def2-TZVP TIGHTSCF CHELPG PMODEL
| 53>
| 54> %scf
| 55> MaxIter 1000
| 56> end
| 57>
| 58> * xyz 0 1
| 59>   C                    : 1.254855             -3.502723            -4.882211
| 60>   O                    : 0.769337             -3.116388            -6.096251
| 61>   H                    : 1.398327             -2.419543            -6.356148
| 62>   H                    : 1.332779             -4.581020            -4.796774
| 63>   H                    : 2.314396             -3.121156            -4.747694
| 64>   H                    : 0.714537             -3.056710            -3.998052
| 65>   C                      4.859800             -5.892297            -4.253619
| 66>   O                      4.321151             -4.666534            -4.741819
| 67>   H                      4.981520             -3.996794            -4.816819
| 68>   H                      5.316835             -5.818093            -3.271815
| 69>   H                      4.069458             -6.661182            -4.133229
| 70>   H                      5.564534             -6.266359            -4.983089
| 71> *
| 72>
| 73>                          ****END OF INPUT****
 Total Charge           Charge          ....    0
 Multiplicity           Mult            ....    1
 Number of Electrons    NEL             ....   36
Dispersion correction           -0.001565903
FINAL SINGLE POINT ENERGY      -231.465234185746
Dispersion correction           -0.000226810
FINAL SINGLE POINT ENERGY      -115.729361930049

CARTESIAN COORDINATES (ANGSTROEM)
---------------------------------
  C      1.254855   -3.502723   -4.882211
  O      0.769337   -3.116388   -6.096251
  H      1.398327   -2.419543   -6.356148
  H      1.332779   -4.581020   -4.796774
  H      2.314396   -3.121156   -4.747694
  H      0.714537   -3.056710   -3.998052
  C      4.859800   -5.892297   -4.253619
  O      4.321151   -4.666534   -4.741819
  H      4.981520   -3.996794   -4.816819
  H      5.316835   -5.818093   -3.271815
  H      4.069458   -6.661182   -4.133229
  H      5.564534   -6.266359   -4.983089

 Multiplicity           Mult            ....    1
 Number of Electrons    NEL             ....   18
 Basis Dimension        Dim             ....  172

ORBITAL ENERGIES
----------------

  NO   OCC          E(Eh)            E(eV)
   0   2.0000     -19.227523      -523.2075
   1   2.0000     -10.313928      -280.6562
   2   2.0000      -1.133519       -30.8446
   3   2.0000      -0.800062       -21.7708
   4   2.0000      -0.610417       -16.6103
   5   2.0000      -0.546681       -14.8759
   6   2.0000      -0.525549       -14.3009
   7   2.0000      -0.427576       -11.6349
   8   2.0000      -0.375678       -10.2227
   9   0.0000       0.100546         2.7360
  10   0.0000       0.127213         3.4616
  11   0.0000       0.151519         4.1230
  12   0.0000       0.180040         4.8991
  13   0.0000       0.197157         5.3649

MULLIKEN ATOMIC CHARGES
-----------------------
   0 C :    0.008489
   1 O :   -0.000365
   2 H :   -0.000182
   3 H :   -0.003991
   4 H :   -0.011810
   5 H :   -0.000482
   6 C :   -0.159857
   7 O :   -0.475436
   8 H :    0.312823
   9 H :    0.104531
  10 H :    0.118670
  11 H :    0.107611
Sum of atomic charges:   -0.0000000

LOEWDIN ATOMIC CHARGES
----------------------
   0 C :   -0.010971
   1 O :   -0.000033
   2 H :   -0.000071
   3 H :   -0.002208
   4 H :   -0.011183
   5 H :   -0.000096
   6 C :   -0.372498
   7 O :   -0.059538
   8 H :    0.156187
   9 H :    0.093214
  10 H :    0.112692
  11 H :    0.094505

  Mayer bond orders larger than 0.1
B(  6-C ,  7-O ) :   0.9912 B(  6-C ,  9-H ) :   0.9711 B(  6-C , 10-H ) :   0.9735
B(  6-C , 11-H ) :   0.9792 B(  7-O ,  8-H ) :   0.8982

Dispersion correction           -0.000251369
FINAL SINGLE POINT ENERGY      -115.735390180863

DIPOLE MOMENT
-------------
                                X             Y             Z
Electronic contribution:     -0.74856       1.52049      -0.59751
Nuclear contribution   :      1.40953      -1.61007       0.75504
                        -----------------------------------------
Total Dipole Moment    :      0.66097      -0.08958       0.15752
                        -----------------------------------------
Magnitude (a.u.)       :      0.68536
Magnitude (Debye)      :      1.74206

Rotational constants in cm-1:     4.418474     0.812684     0.789561
Rotational constants in MHz : 132462.518504 24363.645264 23670.454667

                             ****ORCA TERMINATED NORMALLY****
TOTAL RUN TIME: 0 days 0 hours 6 minutes 24 seconds 444 msec
