                         Program Version 4.1.2  - RELEASE  -
|  1> #Run DFT-D3 single point of the dimer
|  2> ! wB97X-D3 def2-TZVP TIGHTSCF CHELPG PMODEL PAL8
|  3>
|  4> %base "11-75_DFT_AB"
|  5>
|  6> %scf
|  7> MaxIter 1000
|  8> end
|  9>
| 10> * xyz 0 1
| 11>   C                      8.208089             3.975349             -1.861267
| 12>   O                      7.813825             2.619600             -2.292651
| 13>   H                      7.000944             2.319256             -1.900115
| 14>   H                      8.304451             4.108650             -0.728916
| 15>   H                      9.262322             4.143959             -2.354098
| 16>   H                      7.514508             4.812777             -2.164203
| 17>   C                      10.772383            0.858536             -3.839267
| 18>   O                      10.144216            1.061492             -2.595977
| 19>   H                      9.190354             1.162496             -2.722293
| 20>   H                      10.490129            1.727984             -4.536279
| 21>   H                      11.875388            0.787049             -3.795854
| 22>   H                      10.378328            -0.013718            -4.334733
| 23> *
| 24>
| 25> #Run DFT-D3 single point of the molecule with dimer basis set
| 26> $new_job
| 27> %base "11-75_DFT_A"
| 28> ! wB97X-D3 def2-TZVP TIGHTSCF CHELPG PMODEL
| 29>
| 30> %scf
| 31> MaxIter 1000
| 32> end
| 33>
| 34> * xyz 0 1
| 35>   C                      8.208089             3.975349             -1.861267
| 36>   O                      7.813825             2.619600             -2.292651
| 37>   H                      7.000944             2.319256             -1.900115
| 38>   H                      8.304451             4.108650             -0.728916
| 39>   H                      9.262322             4.143959             -2.354098
| 40>   H                      7.514508             4.812777             -2.164203
| 41>   C                    : 10.772383            0.858536             -3.839267
| 42>   O                    : 10.144216            1.061492             -2.595977
| 43>   H                    : 9.190354             1.162496             -2.722293
| 44>   H                    : 10.490129            1.727984             -4.536279
| 45>   H                    : 11.875388            0.787049             -3.795854
| 46>   H                    : 10.378328            -0.013718            -4.334733
| 47> *
| 48>
| 49> #Run DFT-D3 single point of the particle with dimer basis set
| 50> $new_job
| 51> %base "11-75_DFT_B"
| 52> ! wB97X-D3 def2-TZVP TIGHTSCF CHELPG PMODEL
| 53>
| 54> %scf
| 55> MaxIter 1000
| 56> end
| 57>
| 58> * xyz 0 1
| 59>   C                    : 8.208089             3.975349             -1.861267
| 60>   O                    : 7.813825             2.619600             -2.292651
| 61>   H                    : 7.000944             2.319256             -1.900115
| 62>   H                    : 8.304451             4.108650             -0.728916
| 63>   H                    : 9.262322             4.143959             -2.354098
| 64>   H                    : 7.514508             4.812777             -2.164203
| 65>   C                      10.772383            0.858536             -3.839267
| 66>   O                      10.144216            1.061492             -2.595977
| 67>   H                      9.190354             1.162496             -2.722293
| 68>   H                      10.490129            1.727984             -4.536279
| 69>   H                      11.875388            0.787049             -3.795854
| 70>   H                      10.378328            -0.013718            -4.334733
| 71> *
| 72>
| 73>                          ****END OF INPUT****
 Total Charge           Charge          ....    0
 Multiplicity           Mult            ....    1
 Number of Electrons    NEL             ....   36
Dispersion correction           -0.001791550
FINAL SINGLE POINT ENERGY      -231.466292293671
Dispersion correction           -0.000325897
FINAL SINGLE POINT ENERGY      -115.726718732494

CARTESIAN COORDINATES (ANGSTROEM)
---------------------------------
  C      8.208089    3.975349   -1.861267
  O      7.813825    2.619600   -2.292651
  H      7.000944    2.319256   -1.900115
  H      8.304451    4.108650   -0.728916
  H      9.262322    4.143959   -2.354098
  H      7.514508    4.812777   -2.164203
  C     10.772383    0.858536   -3.839267
  O     10.144216    1.061492   -2.595977
  H      9.190354    1.162496   -2.722293
  H     10.490129    1.727984   -4.536279
  H     11.875388    0.787049   -3.795854
  H     10.378328   -0.013718   -4.334733

 Multiplicity           Mult            ....    1
 Number of Electrons    NEL             ....   18
 Basis Dimension        Dim             ....  172

ORBITAL ENERGIES
----------------

  NO   OCC          E(Eh)            E(eV)
   0   2.0000     -19.231613      -523.3188
   1   2.0000     -10.319411      -280.8055
   2   2.0000      -1.136839       -30.9350
   3   2.0000      -0.792387       -21.5619
   4   2.0000      -0.612613       -16.6701
   5   2.0000      -0.536135       -14.5890
   6   2.0000      -0.533259       -14.5107
   7   2.0000      -0.431778       -11.7493
   8   2.0000      -0.369727       -10.0608
   9   0.0000       0.076939         2.0936
  10   0.0000       0.128678         3.5015
  11   0.0000       0.144228         3.9247
  12   0.0000       0.172192         4.6856
  13   0.0000       0.190939         5.1957

MULLIKEN ATOMIC CHARGES
-----------------------
   0 C :   -0.002210
   1 O :   -0.003725
   2 H :   -0.000465
   3 H :    0.000127
   4 H :   -0.002786
   5 H :   -0.000165
   6 C :   -0.174456
   7 O :   -0.466845
   8 H :    0.318296
   9 H :    0.096429
  10 H :    0.127014
  11 H :    0.108786
Sum of atomic charges:   -0.0000000

LOEWDIN ATOMIC CHARGES
----------------------
   0 C :   -0.005616
   1 O :   -0.016791
   2 H :   -0.001131
   3 H :   -0.000113
   4 H :   -0.002158
   5 H :   -0.000100
   6 C :   -0.394199
   7 O :   -0.064128
   8 H :    0.181275
   9 H :    0.102102
  10 H :    0.111251
  11 H :    0.089607

  Mayer bond orders larger than 0.1
B(  6-C ,  7-O ) :   0.9957 B(  6-C ,  9-H ) :   0.9780 B(  6-C , 10-H ) :   0.9680
B(  6-C , 11-H ) :   0.9783 B(  7-O ,  8-H ) :   0.8949

Dispersion correction           -0.000240063
FINAL SINGLE POINT ENERGY      -115.733393909162

DIPOLE MOMENT
-------------
                                X             Y             Z
Electronic contribution:     -0.56709       0.14253       1.77771
Nuclear contribution   :      0.22542      -0.19054      -2.34674
                        -----------------------------------------
Total Dipole Moment    :     -0.34168      -0.04802      -0.56904
                        -----------------------------------------
Magnitude (a.u.)       :      0.66547
Magnitude (Debye)      :      1.69149

Rotational constants in cm-1:     4.228567     0.831823     0.797014
Rotational constants in MHz : 126769.252906 24937.420335 23893.885004

                             ****ORCA TERMINATED NORMALLY****
TOTAL RUN TIME: 0 days 0 hours 1 minutes 12 seconds 653 msec
