                         Program Version 4.1.2  - RELEASE  -
|  1> #Run DFT-D3 single point of the dimer
|  2> ! wB97X-D3 def2-TZVP TIGHTSCF CHELPG PMODEL PAL8
|  3>
|  4> %base "8-71_DFT_AB"
|  5>
|  6> %scf
|  7> MaxIter 1000
|  8> end
|  9>
| 10> * xyz 0 1
| 11>   C                      3.247449             0.489047             6.955197
| 12>   O                      3.339960             1.502602             5.982111
| 13>   H                      2.459960             1.640455             5.585835
| 14>   H                      2.534463             0.868375             7.717436
| 15>   H                      2.934831             -0.454493            6.529917
| 16>   H                      4.259433             0.461948             7.314150
| 17>   C                      6.544032             -0.473077            3.712911
| 18>   O                      7.906508             -0.325117            4.182643
| 19>   H                      8.557743             -0.777407            3.591954
| 20>   H                      6.299232             0.232570             2.974493
| 21>   H                      6.490442             -1.469732            3.134085
| 22>   H                      5.800592             -0.470221            4.596880
| 23> *
| 24>
| 25> #Run DFT-D3 single point of the molecule with dimer basis set
| 26> $new_job
| 27> %base "8-71_DFT_A"
| 28> ! wB97X-D3 def2-TZVP TIGHTSCF CHELPG PMODEL
| 29>
| 30> %scf
| 31> MaxIter 1000
| 32> end
| 33>
| 34> * xyz 0 1
| 35>   C                      3.247449             0.489047             6.955197
| 36>   O                      3.339960             1.502602             5.982111
| 37>   H                      2.459960             1.640455             5.585835
| 38>   H                      2.534463             0.868375             7.717436
| 39>   H                      2.934831             -0.454493            6.529917
| 40>   H                      4.259433             0.461948             7.314150
| 41>   C                    : 6.544032             -0.473077            3.712911
| 42>   O                    : 7.906508             -0.325117            4.182643
| 43>   H                    : 8.557743             -0.777407            3.591954
| 44>   H                    : 6.299232             0.232570             2.974493
| 45>   H                    : 6.490442             -1.469732            3.134085
| 46>   H                    : 5.800592             -0.470221            4.596880
| 47> *
| 48>
| 49> #Run DFT-D3 single point of the particle with dimer basis set
| 50> $new_job
| 51> %base "8-71_DFT_B"
| 52> ! wB97X-D3 def2-TZVP TIGHTSCF CHELPG PMODEL
| 53>
| 54> %scf
| 55> MaxIter 1000
| 56> end
| 57>
| 58> * xyz 0 1
| 59>   C                    : 3.247449             0.489047             6.955197
| 60>   O                    : 3.339960             1.502602             5.982111
| 61>   H                    : 2.459960             1.640455             5.585835
| 62>   H                    : 2.534463             0.868375             7.717436
| 63>   H                    : 2.934831             -0.454493            6.529917
| 64>   H                    : 4.259433             0.461948             7.314150
| 65>   C                      6.544032             -0.473077            3.712911
| 66>   O                      7.906508             -0.325117            4.182643
| 67>   H                      8.557743             -0.777407            3.591954
| 68>   H                      6.299232             0.232570             2.974493
| 69>   H                      6.490442             -1.469732            3.134085
| 70>   H                      5.800592             -0.470221            4.596880
| 71> *
| 72>
| 73>                          ****END OF INPUT****
 Total Charge           Charge          ....    0
 Multiplicity           Mult            ....    1
 Number of Electrons    NEL             ....   36
Dispersion correction           -0.001048544
FINAL SINGLE POINT ENERGY      -231.460599821912
Dispersion correction           -0.000215506
FINAL SINGLE POINT ENERGY      -115.733623287625

CARTESIAN COORDINATES (ANGSTROEM)
---------------------------------
  C      3.247449    0.489047    6.955197
  O      3.339960    1.502602    5.982111
  H      2.459960    1.640455    5.585835
  H      2.534463    0.868375    7.717436
  H      2.934831   -0.454493    6.529917
  H      4.259433    0.461948    7.314150
  C      6.544032   -0.473077    3.712911
  O      7.906508   -0.325117    4.182643
  H      8.557743   -0.777407    3.591954
  H      6.299232    0.232570    2.974493
  H      6.490442   -1.469732    3.134085
  H      5.800592   -0.470221    4.596880

 Multiplicity           Mult            ....    1
 Number of Electrons    NEL             ....   18
 Basis Dimension        Dim             ....  172

ORBITAL ENERGIES
----------------

  NO   OCC          E(Eh)            E(eV)
   0   2.0000     -19.229399      -523.2585
   1   2.0000     -10.325339      -280.9668
   2   2.0000      -1.117237       -30.4016
   3   2.0000      -0.790640       -21.5144
   4   2.0000      -0.602226       -16.3874
   5   2.0000      -0.535040       -14.5592
   6   2.0000      -0.520261       -14.1570
   7   2.0000      -0.425123       -11.5682
   8   2.0000      -0.371971       -10.1219
   9   0.0000       0.083486         2.2718
  10   0.0000       0.108792         2.9604
  11   0.0000       0.149684         4.0731
  12   0.0000       0.163496         4.4490
  13   0.0000       0.184765         5.0277

MULLIKEN ATOMIC CHARGES
-----------------------
   0 C :    0.000131
   1 O :   -0.000051
   2 H :   -0.000022
   3 H :    0.000010
   4 H :   -0.000244
   5 H :    0.000081
   6 C :   -0.172440
   7 O :   -0.492694
   8 H :    0.320387
   9 H :    0.119655
  10 H :    0.098724
  11 H :    0.126463
Sum of atomic charges:   -0.0000000

LOEWDIN ATOMIC CHARGES
----------------------
   0 C :   -0.001173
   1 O :   -0.000142
   2 H :   -0.000019
   3 H :   -0.000012
   4 H :   -0.000175
   5 H :   -0.000267
   6 C :   -0.366742
   7 O :   -0.122631
   8 H :    0.181436
   9 H :    0.084186
  10 H :    0.105250
  11 H :    0.120288

  Mayer bond orders larger than 0.1
B(  6-C ,  7-O ) :   0.9955 B(  6-C ,  9-H ) :   0.9657 B(  6-C , 10-H ) :   0.9865
B(  6-C , 11-H ) :   0.9675 B(  7-O ,  8-H ) :   0.8909

Dispersion correction           -0.000268377
FINAL SINGLE POINT ENERGY      -115.726320565970

DIPOLE MOMENT
-------------
                                X             Y             Z
Electronic contribution:      1.59399       0.41750       0.73858
Nuclear contribution   :     -1.74628      -0.76178      -1.33097
                        -----------------------------------------
Total Dipole Moment    :     -0.15229      -0.34427      -0.59239
                        -----------------------------------------
Magnitude (a.u.)       :      0.70189
Magnitude (Debye)      :      1.78405

Rotational constants in cm-1:     4.099889     0.796338     0.757071
Rotational constants in MHz : 122911.566924 23873.617885 22696.410702

                             ****ORCA TERMINATED NORMALLY****
TOTAL RUN TIME: 0 days 0 hours 0 minutes 43 seconds 493 msec
