                         Program Version 4.1.2  - RELEASE  -
|  1> #Run DFT-D3 single point of the dimer
|  2> ! wB97X-D3 def2-TZVP TIGHTSCF  CHELPG PAL8
|  3>
|  4> %base "2_charges"
|  5>
|  6> %scf
|  7> MaxIter 1000
|  8> end
|  9> %output
| 10>   Print[ P_Mayer ] 1
| 11>   Print[ P_NatPop ] 1
| 12>   Print[ P_Hirshfeld ] 1
| 13>   Print[ P_Mulliken ] 1
| 14>   Print [ P_Loewdin ] 1
| 15> end
| 16>
| 17> * xyz 0 1
| 18>   C                      3.643258             -1.721147            -11.488572
| 19>   O                      3.142358             -2.957691            -11.222408
| 20>   H                      2.911983             -2.963826            -10.301646
| 21>   H                      4.392220             -1.459379            -10.798810
| 22>   H                      4.251516             -1.778195            -12.429559
| 23>   H                      2.901589             -0.967879            -11.648010
| 24> *
| 25>
| 26>                          ****END OF INPUT****

CARTESIAN COORDINATES (ANGSTROEM)
---------------------------------
  C      3.643258   -1.721147  -11.488572
  O      3.142358   -2.957691  -11.222408
  H      2.911983   -2.963826  -10.301646
  H      4.392220   -1.459379  -10.798810
  H      4.251516   -1.778195  -12.429559
  H      2.901589   -0.967879  -11.648010

 Total Charge           Charge          ....    0
 Multiplicity           Mult            ....    1
 Number of Electrons    NEL             ....   18
 Basis Dimension        Dim             ....   86

ORBITAL ENERGIES
----------------

  NO   OCC          E(Eh)            E(eV)
   0   2.0000     -19.228858      -523.2438
   1   2.0000     -10.302355      -280.3413
   2   2.0000      -1.156822       -31.4787
   3   2.0000      -0.796907       -21.6850
   4   2.0000      -0.621656       -16.9161
   5   2.0000      -0.561920       -15.2906
   6   2.0000      -0.529465       -14.4075
   7   2.0000      -0.422328       -11.4921
   8   2.0000      -0.376428       -10.2431
   9   0.0000       0.118457         3.2234
  10   0.0000       0.159296         4.3347
  11   0.0000       0.202132         5.5003
  12   0.0000       0.211669         5.7598
  13   0.0000       0.229583         6.2473

MULLIKEN ATOMIC CHARGES
-----------------------
   0 C :   -0.156641
   1 O :   -0.458913
   2 H :    0.313922
   3 H :    0.102764
   4 H :    0.102786
   5 H :    0.096081
Sum of atomic charges:    0.0000000

LOEWDIN ATOMIC CHARGES
----------------------
   0 C :   -0.426689
   1 O :   -0.030373
   2 H :    0.167717
   3 H :    0.086959
   4 H :    0.114310
   5 H :    0.088076

  Mayer bond orders larger than 0.1
B(  0-C ,  1-O ) :   1.0122 B(  0-C ,  3-H ) :   0.9854 B(  0-C ,  4-H ) :   0.9746
B(  0-C ,  5-H ) :   0.9743 B(  1-O ,  2-H ) :   0.9011

Dispersion correction           -0.000212109
FINAL SINGLE POINT ENERGY      -115.730725723479

DIPOLE MOMENT
-------------
                                X             Y             Z
Electronic contribution:     -0.77638      -1.63220       0.36056
Nuclear contribution   :      0.84001       2.07450       0.13951
                        -----------------------------------------
Total Dipole Moment    :      0.06364       0.44230       0.50007
                        -----------------------------------------
Magnitude (a.u.)       :      0.67064
Magnitude (Debye)      :      1.70462

Rotational constants in cm-1:     4.428128     0.884032     0.860479
Rotational constants in MHz : 132751.943237 26502.616309 25796.523328

                             ****ORCA TERMINATED NORMALLY****
TOTAL RUN TIME: 0 days 0 hours 0 minutes 42 seconds 157 msec
