                         Program Version 4.1.2  - RELEASE  -
|  1> #Run DFT-D3 single point of the dimer
|  2> ! wB97X-D3 def2-TZVP TIGHTSCF CHELPG PMODEL PAL8
|  3>
|  4> %base "7-2_DFT_AB"
|  5>
|  6> %scf
|  7> MaxIter 1000
|  8> end
|  9>
| 10> * xyz 0 1
| 11>   C                      0.107441             2.741054             -3.055841
| 12>   O                      0.093632             2.479985             -1.676650
| 13>   H                      -0.116713            3.352322             -1.369150
| 14>   H                      0.781831             3.560905             -3.329535
| 15>   H                      0.429337             1.873700             -3.602147
| 16>   H                      -0.921354            2.900499             -3.482296
| 17>   C                      -0.791871            0.813297             -8.061991
| 18>   O                      0.599258             1.023185             -8.096228
| 19>   H                      0.860506             1.887036             -7.719944
| 20>   H                      -1.410076            1.673867             -8.405220
| 21>   H                      -1.066712            -0.003070            -8.757313
| 22>   H                      -1.275459            0.581455             -7.114919
| 23> *
| 24>
| 25> #Run DFT-D3 single point of the molecule with dimer basis set
| 26> $new_job
| 27> %base "7-2_DFT_A"
| 28> ! wB97X-D3 def2-TZVP TIGHTSCF CHELPG PMODEL
| 29>
| 30> %scf
| 31> MaxIter 1000
| 32> end
| 33>
| 34> * xyz 0 1
| 35>   C                      0.107441             2.741054             -3.055841
| 36>   O                      0.093632             2.479985             -1.676650
| 37>   H                      -0.116713            3.352322             -1.369150
| 38>   H                      0.781831             3.560905             -3.329535
| 39>   H                      0.429337             1.873700             -3.602147
| 40>   H                      -0.921354            2.900499             -3.482296
| 41>   C                    : -0.791871            0.813297             -8.061991
| 42>   O                    : 0.599258             1.023185             -8.096228
| 43>   H                    : 0.860506             1.887036             -7.719944
| 44>   H                    : -1.410076            1.673867             -8.405220
| 45>   H                    : -1.066712            -0.003070            -8.757313
| 46>   H                    : -1.275459            0.581455             -7.114919
| 47> *
| 48>
| 49> #Run DFT-D3 single point of the particle with dimer basis set
| 50> $new_job
| 51> %base "7-2_DFT_B"
| 52> ! wB97X-D3 def2-TZVP TIGHTSCF CHELPG PMODEL
| 53>
| 54> %scf
| 55> MaxIter 1000
| 56> end
| 57>
| 58> * xyz 0 1
| 59>   C                    : 0.107441             2.741054             -3.055841
| 60>   O                    : 0.093632             2.479985             -1.676650
| 61>   H                    : -0.116713            3.352322             -1.369150
| 62>   H                    : 0.781831             3.560905             -3.329535
| 63>   H                    : 0.429337             1.873700             -3.602147
| 64>   H                    : -0.921354            2.900499             -3.482296
| 65>   C                      -0.791871            0.813297             -8.061991
| 66>   O                      0.599258             1.023185             -8.096228
| 67>   H                      0.860506             1.887036             -7.719944
| 68>   H                      -1.410076            1.673867             -8.405220
| 69>   H                      -1.066712            -0.003070            -8.757313
| 70>   H                      -1.275459            0.581455             -7.114919
| 71> *
| 72>
| 73>                          ****END OF INPUT****
 Total Charge           Charge          ....    0
 Multiplicity           Mult            ....    1
 Number of Electrons    NEL             ....   36
Dispersion correction           -0.000740548
FINAL SINGLE POINT ENERGY      -231.465377471441
Dispersion correction           -0.000223019
FINAL SINGLE POINT ENERGY      -115.732550866732

CARTESIAN COORDINATES (ANGSTROEM)
---------------------------------
  C      0.107441    2.741054   -3.055841
  O      0.093632    2.479985   -1.676650
  H     -0.116713    3.352322   -1.369150
  H      0.781831    3.560905   -3.329535
  H      0.429337    1.873700   -3.602147
  H     -0.921354    2.900499   -3.482296
  C     -0.791871    0.813297   -8.061991
  O      0.599258    1.023185   -8.096228
  H      0.860506    1.887036   -7.719944
  H     -1.410076    1.673867   -8.405220
  H     -1.066712   -0.003070   -8.757313
  H     -1.275459    0.581455   -7.114919

 Multiplicity           Mult            ....    1
 Number of Electrons    NEL             ....   18
 Basis Dimension        Dim             ....  172

ORBITAL ENERGIES
----------------

  NO   OCC          E(Eh)            E(eV)
   0   2.0000     -19.236203      -523.4437
   1   2.0000     -10.315536      -280.7000
   2   2.0000      -1.134337       -30.8669
   3   2.0000      -0.796765       -21.6811
   4   2.0000      -0.618459       -16.8291
   5   2.0000      -0.531262       -14.4564
   6   2.0000      -0.525714       -14.3054
   7   2.0000      -0.429863       -11.6972
   8   2.0000      -0.374450       -10.1893
   9   0.0000       0.080085         2.1792
  10   0.0000       0.113314         3.0834
  11   0.0000       0.146142         3.9767
  12   0.0000       0.167781         4.5656
  13   0.0000       0.192337         5.2338

MULLIKEN ATOMIC CHARGES
-----------------------
   0 C :    0.000007
   1 O :    0.000005
   2 H :    0.000001
   3 H :   -0.000006
   4 H :   -0.000179
   5 H :   -0.000005
   6 C :   -0.164893
   7 O :   -0.478498
   8 H :    0.321210
   9 H :    0.099549
  10 H :    0.121796
  11 H :    0.101013
Sum of atomic charges:   -0.0000000

LOEWDIN ATOMIC CHARGES
----------------------
   0 C :   -0.000064
   1 O :   -0.000002
   2 H :   -0.000001
   3 H :   -0.000002
   4 H :   -0.000079
   5 H :   -0.000018
   6 C :   -0.403658
   7 O :   -0.075733
   8 H :    0.180175
   9 H :    0.096793
  10 H :    0.112115
  11 H :    0.090474

  Mayer bond orders larger than 0.1
B(  6-C ,  7-O ) :   1.0073 B(  6-C ,  9-H ) :   0.9768 B(  6-C , 10-H ) :   0.9751
B(  6-C , 11-H ) :   0.9664 B(  7-O ,  8-H ) :   0.8899

Dispersion correction           -0.000281572
FINAL SINGLE POINT ENERGY      -115.732813551354

DIPOLE MOMENT
-------------
                                X             Y             Z
Electronic contribution:      1.98871       0.14614      -0.02257
Nuclear contribution   :     -2.37035       0.33457       0.26928
                        -----------------------------------------
Total Dipole Moment    :     -0.38164       0.48071       0.24671
                        -----------------------------------------
Magnitude (a.u.)       :      0.66151
Magnitude (Debye)      :      1.68142

Rotational constants in cm-1:     4.474026     0.815346     0.783286
Rotational constants in MHz : 134127.917081 24443.455170 23482.308656

                             ****ORCA TERMINATED NORMALLY****
TOTAL RUN TIME: 0 days 0 hours 0 minutes 58 seconds 675 msec
