                         Program Version 4.1.2  - RELEASE  -
|  1> #Run DFT-D3 single point of the dimer
|  2> ! wB97X-D3 def2-TZVP TIGHTSCF CHELPG PMODEL PAL8
|  3>
|  4> %base "12-195_DFT_AB"
|  5>
|  6> %scf
|  7> MaxIter 1000
|  8> end
|  9>
| 10> * xyz 0 1
| 11>   C                      5.018682             3.647154             2.266529
| 12>   O                      4.344760             3.389571             1.100863
| 13>   H                      3.404297             3.200617             1.319677
| 14>   H                      5.043372             2.728457             2.908457
| 15>   H                      6.070344             3.937796             2.139085
| 16>   H                      4.514807             4.440137             2.832299
| 17>   C                      6.548716             3.582981             -1.459141
| 18>   O                      6.030611             4.675191             -0.691960
| 19>   H                      5.401583             4.328642             -0.100118
| 20>   H                      5.678680             3.056206             -1.977759
| 21>   H                      7.278851             3.904338             -2.254749
| 22>   H                      7.220410             2.875857             -1.003596
| 23> *
| 24>
| 25> #Run DFT-D3 single point of the molecule with dimer basis set
| 26> $new_job
| 27> %base "12-195_DFT_A"
| 28> ! wB97X-D3 def2-TZVP TIGHTSCF CHELPG PMODEL
| 29>
| 30> %scf
| 31> MaxIter 1000
| 32> end
| 33>
| 34> * xyz 0 1
| 35>   C                      5.018682             3.647154             2.266529
| 36>   O                      4.344760             3.389571             1.100863
| 37>   H                      3.404297             3.200617             1.319677
| 38>   H                      5.043372             2.728457             2.908457
| 39>   H                      6.070344             3.937796             2.139085
| 40>   H                      4.514807             4.440137             2.832299
| 41>   C                    : 6.548716             3.582981             -1.459141
| 42>   O                    : 6.030611             4.675191             -0.691960
| 43>   H                    : 5.401583             4.328642             -0.100118
| 44>   H                    : 5.678680             3.056206             -1.977759
| 45>   H                    : 7.278851             3.904338             -2.254749
| 46>   H                    : 7.220410             2.875857             -1.003596
| 47> *
| 48>
| 49> #Run DFT-D3 single point of the particle with dimer basis set
| 50> $new_job
| 51> %base "12-195_DFT_B"
| 52> ! wB97X-D3 def2-TZVP TIGHTSCF CHELPG PMODEL
| 53>
| 54> %scf
| 55> MaxIter 1000
| 56> end
| 57>
| 58> * xyz 0 1
| 59>   C                    : 5.018682             3.647154             2.266529
| 60>   O                    : 4.344760             3.389571             1.100863
| 61>   H                    : 3.404297             3.200617             1.319677
| 62>   H                    : 5.043372             2.728457             2.908457
| 63>   H                    : 6.070344             3.937796             2.139085
| 64>   H                    : 4.514807             4.440137             2.832299
| 65>   C                      6.548716             3.582981             -1.459141
| 66>   O                      6.030611             4.675191             -0.691960
| 67>   H                      5.401583             4.328642             -0.100118
| 68>   H                      5.678680             3.056206             -1.977759
| 69>   H                      7.278851             3.904338             -2.254749
| 70>   H                      7.220410             2.875857             -1.003596
| 71> *
| 72>
| 73>                          ****END OF INPUT****
 Total Charge           Charge          ....    0
 Multiplicity           Mult            ....    1
 Number of Electrons    NEL             ....   36
Dispersion correction           -0.001937113
FINAL SINGLE POINT ENERGY      -231.468849913632
Dispersion correction           -0.000223990
FINAL SINGLE POINT ENERGY      -115.733864374187

CARTESIAN COORDINATES (ANGSTROEM)
---------------------------------
  C      5.018682    3.647154    2.266529
  O      4.344760    3.389571    1.100863
  H      3.404297    3.200617    1.319677
  H      5.043372    2.728457    2.908457
  H      6.070344    3.937796    2.139085
  H      4.514807    4.440137    2.832299
  C      6.548716    3.582981   -1.459141
  O      6.030611    4.675191   -0.691960
  H      5.401583    4.328642   -0.100118
  H      5.678680    3.056206   -1.977759
  H      7.278851    3.904338   -2.254749
  H      7.220410    2.875857   -1.003596

 Multiplicity           Mult            ....    1
 Number of Electrons    NEL             ....   18
 Basis Dimension        Dim             ....  172

ORBITAL ENERGIES
----------------

  NO   OCC          E(Eh)            E(eV)
   0   2.0000     -19.234325      -523.3926
   1   2.0000     -10.322651      -280.8936
   2   2.0000      -1.140503       -31.0347
   3   2.0000      -0.798428       -21.7263
   4   2.0000      -0.612315       -16.6619
   5   2.0000      -0.547761       -14.9053
   6   2.0000      -0.517781       -14.0895
   7   2.0000      -0.429414       -11.6849
   8   2.0000      -0.379709       -10.3324
   9   0.0000       0.072720         1.9788
  10   0.0000       0.134024         3.6470
  11   0.0000       0.150508         4.0955
  12   0.0000       0.162749         4.4286
  13   0.0000       0.188934         5.1412

MULLIKEN ATOMIC CHARGES
-----------------------
   0 C :   -0.002147
   1 O :   -0.006418
   2 H :   -0.000455
   3 H :   -0.000180
   4 H :   -0.006021
   5 H :    0.000258
   6 C :   -0.188815
   7 O :   -0.454781
   8 H :    0.316403
   9 H :    0.107124
  10 H :    0.122568
  11 H :    0.112465
Sum of atomic charges:   -0.0000000

LOEWDIN ATOMIC CHARGES
----------------------
   0 C :   -0.011441
   1 O :   -0.022814
   2 H :   -0.000930
   3 H :   -0.000142
   4 H :   -0.004358
   5 H :   -0.000204
   6 C :   -0.387318
   7 O :   -0.049311
   8 H :    0.161601
   9 H :    0.106564
  10 H :    0.116550
  11 H :    0.091803

  Mayer bond orders larger than 0.1
B(  6-C ,  7-O ) :   0.9983 B(  6-C ,  9-H ) :   0.9845 B(  6-C , 10-H ) :   0.9744
B(  6-C , 11-H ) :   0.9604 B(  7-O ,  8-H ) :   0.9091

Dispersion correction           -0.000275033
FINAL SINGLE POINT ENERGY      -115.727819969047

DIPOLE MOMENT
-------------
                                X             Y             Z
Electronic contribution:     -0.61855       1.52543       1.08197
Nuclear contribution   :      0.46261      -2.17525      -1.02174
                        -----------------------------------------
Total Dipole Moment    :     -0.15594      -0.64983       0.06024
                        -----------------------------------------
Magnitude (a.u.)       :      0.67099
Magnitude (Debye)      :      1.70551

Rotational constants in cm-1:     4.388366     0.798957     0.772176
Rotational constants in MHz : 131559.892164 23952.128325 23149.264781

                             ****ORCA TERMINATED NORMALLY****
TOTAL RUN TIME: 0 days 0 hours 1 minutes 7 seconds 364 msec
