                         Program Version 4.1.2  - RELEASE  -
|  1> #Run DFT-D3 single point of the dimer
|  2> ! wB97X-D3 def2-TZVP TIGHTSCF CHELPG PMODEL PAL8
|  3>
|  4> %base "17-132_DFT_AB"
|  5>
|  6> %scf
|  7> MaxIter 1000
|  8> end
|  9>
| 10> * xyz 0 1
| 11>   C                      7.325339             5.251497             0.133177
| 12>   O                      6.504811             4.108082             0.081789
| 13>   H                      5.631289             4.365463             -0.281375
| 14>   H                      8.367817             5.088402             0.117534
| 15>   H                      7.009722             5.937494             -0.695289
| 16>   H                      6.979847             5.774637             1.076056
| 17>   C                      6.432539             1.573066             2.084114
| 18>   O                      6.031638             2.885209             2.530038
| 19>   H                      5.766672             3.462999             1.764961
| 20>   H                      7.336730             1.598345             1.367785
| 21>   H                      6.681411             0.854883             2.840152
| 22>   H                      5.621836             1.199433             1.360271
| 23> *
| 24>
| 25> #Run DFT-D3 single point of the molecule with dimer basis set
| 26> $new_job
| 27> %base "17-132_DFT_A"
| 28> ! wB97X-D3 def2-TZVP TIGHTSCF CHELPG PMODEL
| 29>
| 30> %scf
| 31> MaxIter 1000
| 32> end
| 33>
| 34> * xyz 0 1
| 35>   C                      7.325339             5.251497             0.133177
| 36>   O                      6.504811             4.108082             0.081789
| 37>   H                      5.631289             4.365463             -0.281375
| 38>   H                      8.367817             5.088402             0.117534
| 39>   H                      7.009722             5.937494             -0.695289
| 40>   H                      6.979847             5.774637             1.076056
| 41>   C                    : 6.432539             1.573066             2.084114
| 42>   O                    : 6.031638             2.885209             2.530038
| 43>   H                    : 5.766672             3.462999             1.764961
| 44>   H                    : 7.336730             1.598345             1.367785
| 45>   H                    : 6.681411             0.854883             2.840152
| 46>   H                    : 5.621836             1.199433             1.360271
| 47> *
| 48>
| 49> #Run DFT-D3 single point of the particle with dimer basis set
| 50> $new_job
| 51> %base "17-132_DFT_B"
| 52> ! wB97X-D3 def2-TZVP TIGHTSCF CHELPG PMODEL
| 53>
| 54> %scf
| 55> MaxIter 1000
| 56> end
| 57>
| 58> * xyz 0 1
| 59>   C                    : 7.325339             5.251497             0.133177
| 60>   O                    : 6.504811             4.108082             0.081789
| 61>   H                    : 5.631289             4.365463             -0.281375
| 62>   H                    : 8.367817             5.088402             0.117534
| 63>   H                    : 7.009722             5.937494             -0.695289
| 64>   H                    : 6.979847             5.774637             1.076056
| 65>   C                      6.432539             1.573066             2.084114
| 66>   O                      6.031638             2.885209             2.530038
| 67>   H                      5.766672             3.462999             1.764961
| 68>   H                      7.336730             1.598345             1.367785
| 69>   H                      6.681411             0.854883             2.840152
| 70>   H                      5.621836             1.199433             1.360271
| 71> *
| 72>
| 73>                          ****END OF INPUT****
 Total Charge           Charge          ....    0
 Multiplicity           Mult            ....    1
 Number of Electrons    NEL             ....   36
Dispersion correction           -0.001987424
FINAL SINGLE POINT ENERGY      -231.459544739538
Dispersion correction           -0.000221473
FINAL SINGLE POINT ENERGY      -115.728881996616

CARTESIAN COORDINATES (ANGSTROEM)
---------------------------------
  C      7.325339    5.251497    0.133177
  O      6.504811    4.108082    0.081789
  H      5.631289    4.365463   -0.281375
  H      8.367817    5.088402    0.117534
  H      7.009722    5.937494   -0.695289
  H      6.979847    5.774637    1.076056
  C      6.432539    1.573066    2.084114
  O      6.031638    2.885209    2.530038
  H      5.766672    3.462999    1.764961
  H      7.336730    1.598345    1.367785
  H      6.681411    0.854883    2.840152
  H      5.621836    1.199433    1.360271

 Multiplicity           Mult            ....    1
 Number of Electrons    NEL             ....   18
 Basis Dimension        Dim             ....  172

ORBITAL ENERGIES
----------------

  NO   OCC          E(Eh)            E(eV)
   0   2.0000     -19.235989      -523.4379
   1   2.0000     -10.327558      -281.0271
   2   2.0000      -1.121537       -30.5186
   3   2.0000      -0.790799       -21.5187
   4   2.0000      -0.603298       -16.4166
   5   2.0000      -0.540182       -14.6991
   6   2.0000      -0.517177       -14.0731
   7   2.0000      -0.433208       -11.7882
   8   2.0000      -0.367869       -10.0102
   9   0.0000       0.069315         1.8862
  10   0.0000       0.129232         3.5166
  11   0.0000       0.142161         3.8684
  12   0.0000       0.167509         4.5581
  13   0.0000       0.186907         5.0860

MULLIKEN ATOMIC CHARGES
-----------------------
   0 C :   -0.004532
   1 O :   -0.005299
   2 H :   -0.001035
   3 H :    0.000409
   4 H :   -0.000097
   5 H :   -0.000897
   6 C :   -0.194334
   7 O :   -0.475355
   8 H :    0.327247
   9 H :    0.101216
  10 H :    0.142798
  11 H :    0.109880
Sum of atomic charges:    0.0000000

LOEWDIN ATOMIC CHARGES
----------------------
   0 C :   -0.005925
   1 O :   -0.022232
   2 H :   -0.003009
   3 H :   -0.000126
   4 H :   -0.000111
   5 H :   -0.001281
   6 C :   -0.377570
   7 O :   -0.099258
   8 H :    0.198684
   9 H :    0.102108
  10 H :    0.102901
  11 H :    0.105819

  Mayer bond orders larger than 0.1
B(  6-C ,  7-O ) :   0.9942 B(  6-C ,  9-H ) :   0.9686 B(  6-C , 10-H ) :   0.9664
B(  6-C , 11-H ) :   0.9831 B(  7-O ,  8-H ) :   0.8880

Dispersion correction           -0.000276061
FINAL SINGLE POINT ENERGY      -115.726264273670

DIPOLE MOMENT
-------------
                                X             Y             Z
Electronic contribution:     -0.48601       1.58937       1.01697
Nuclear contribution   :      0.48307      -1.77404      -1.65461
                        -----------------------------------------
Total Dipole Moment    :     -0.00294      -0.18467      -0.63764
                        -----------------------------------------
Magnitude (a.u.)       :      0.66385
Magnitude (Debye)      :      1.68737

Rotational constants in cm-1:     4.157764     0.790890     0.756297
Rotational constants in MHz : 124646.641926 23710.277611 22673.209357

                             ****ORCA TERMINATED NORMALLY****
TOTAL RUN TIME: 0 days 0 hours 1 minutes 14 seconds 159 msec
