                         Program Version 4.1.2  - RELEASE  -
|  1> #Run DFT-D3 single point of the dimer
|  2> ! wB97X-D3 def2-TZVP TIGHTSCF CHELPG PMODEL PAL8
|  3>
|  4> %base "16-81_DFT_AB"
|  5>
|  6> %scf
|  7> MaxIter 1000
|  8> end
|  9>
| 10> * xyz 0 1
| 11>   C                      1.485028             2.866668             11.191932
| 12>   O                      1.771618             3.996363             10.331948
| 13>   H                      2.698560             4.135901             10.339584
| 14>   H                      1.582231             2.996211             12.246738
| 15>   H                      0.440987             2.521089             11.096234
| 16>   H                      2.100099             1.998036             10.935745
| 17>   C                      1.445543             6.271822             7.864828
| 18>   O                      0.619448             5.105705             7.883585
| 19>   H                      1.042122             4.627553             8.589441
| 20>   H                      1.205711             6.888363             8.726111
| 21>   H                      2.581618             6.086424             7.823544
| 22>   H                      1.035779             6.923905             7.011461
| 23> *
| 24>
| 25> #Run DFT-D3 single point of the molecule with dimer basis set
| 26> $new_job
| 27> %base "16-81_DFT_A"
| 28> ! wB97X-D3 def2-TZVP TIGHTSCF CHELPG PMODEL
| 29>
| 30> %scf
| 31> MaxIter 1000
| 32> end
| 33>
| 34> * xyz 0 1
| 35>   C                      1.485028             2.866668             11.191932
| 36>   O                      1.771618             3.996363             10.331948
| 37>   H                      2.698560             4.135901             10.339584
| 38>   H                      1.582231             2.996211             12.246738
| 39>   H                      0.440987             2.521089             11.096234
| 40>   H                      2.100099             1.998036             10.935745
| 41>   C                    : 1.445543             6.271822             7.864828
| 42>   O                    : 0.619448             5.105705             7.883585
| 43>   H                    : 1.042122             4.627553             8.589441
| 44>   H                    : 1.205711             6.888363             8.726111
| 45>   H                    : 2.581618             6.086424             7.823544
| 46>   H                    : 1.035779             6.923905             7.011461
| 47> *
| 48>
| 49> #Run DFT-D3 single point of the particle with dimer basis set
| 50> $new_job
| 51> %base "16-81_DFT_B"
| 52> ! wB97X-D3 def2-TZVP TIGHTSCF CHELPG PMODEL
| 53>
| 54> %scf
| 55> MaxIter 1000
| 56> end
| 57>
| 58> * xyz 0 1
| 59>   C                    : 1.485028             2.866668             11.191932
| 60>   O                    : 1.771618             3.996363             10.331948
| 61>   H                    : 2.698560             4.135901             10.339584
| 62>   H                    : 1.582231             2.996211             12.246738
| 63>   H                    : 0.440987             2.521089             11.096234
| 64>   H                    : 2.100099             1.998036             10.935745
| 65>   C                      1.445543             6.271822             7.864828
| 66>   O                      0.619448             5.105705             7.883585
| 67>   H                      1.042122             4.627553             8.589441
| 68>   H                      1.205711             6.888363             8.726111
| 69>   H                      2.581618             6.086424             7.823544
| 70>   H                      1.035779             6.923905             7.011461
| 71> *
| 72>
| 73>                          ****END OF INPUT****
 Total Charge           Charge          ....    0
 Multiplicity           Mult            ....    1
 Number of Electrons    NEL             ....   36
Dispersion correction           -0.001717350
FINAL SINGLE POINT ENERGY      -231.468598102679
Dispersion correction           -0.000271295
FINAL SINGLE POINT ENERGY      -115.732729040327

CARTESIAN COORDINATES (ANGSTROEM)
---------------------------------
  C      1.485028    2.866668   11.191932
  O      1.771618    3.996363   10.331948
  H      2.698560    4.135901   10.339584
  H      1.582231    2.996211   12.246738
  H      0.440987    2.521089   11.096234
  H      2.100099    1.998036   10.935745
  C      1.445543    6.271822    7.864828
  O      0.619448    5.105705    7.883585
  H      1.042122    4.627553    8.589441
  H      1.205711    6.888363    8.726111
  H      2.581618    6.086424    7.823544
  H      1.035779    6.923905    7.011461

 Multiplicity           Mult            ....    1
 Number of Electrons    NEL             ....   18
 Basis Dimension        Dim             ....  172

ORBITAL ENERGIES
----------------

  NO   OCC          E(Eh)            E(eV)
   0   2.0000     -19.234472      -523.3966
   1   2.0000     -10.325159      -280.9619
   2   2.0000      -1.141190       -31.0534
   3   2.0000      -0.785763       -21.3817
   4   2.0000      -0.607840       -16.5402
   5   2.0000      -0.540758       -14.7148
   6   2.0000      -0.515213       -14.0197
   7   2.0000      -0.442661       -12.0454
   8   2.0000      -0.375525       -10.2186
   9   0.0000       0.069050         1.8789
  10   0.0000       0.121915         3.3175
  11   0.0000       0.151311         4.1174
  12   0.0000       0.171679         4.6716
  13   0.0000       0.186688         5.0800

MULLIKEN ATOMIC CHARGES
-----------------------
   0 C :   -0.001473
   1 O :   -0.003848
   2 H :   -0.000080
   3 H :    0.000025
   4 H :   -0.000098
   5 H :    0.000027
   6 C :   -0.203912
   7 O :   -0.451418
   8 H :    0.310236
   9 H :    0.115836
  10 H :    0.111568
  11 H :    0.123135
Sum of atomic charges:   -0.0000000

LOEWDIN ATOMIC CHARGES
----------------------
   0 C :   -0.001912
   1 O :   -0.017564
   2 H :   -0.001550
   3 H :   -0.000041
   4 H :   -0.000143
   5 H :   -0.000039
   6 C :   -0.397532
   7 O :   -0.072279
   8 H :    0.171018
   9 H :    0.093183
  10 H :    0.106334
  11 H :    0.120524

  Mayer bond orders larger than 0.1
B(  6-C ,  7-O ) :   0.9919 B(  6-C ,  9-H ) :   0.9736 B(  6-C , 10-H ) :   0.9648
B(  6-C , 11-H ) :   0.9747 B(  7-O ,  8-H ) :   0.9145

Dispersion correction           -0.000241858
FINAL SINGLE POINT ENERGY      -115.728377864960

DIPOLE MOMENT
-------------
                                X             Y             Z
Electronic contribution:     -1.06452      -1.55270      -0.09228
Nuclear contribution   :      1.60988       1.71655       0.53158
                        -----------------------------------------
Total Dipole Moment    :      0.54536       0.16384       0.43929
                        -----------------------------------------
Magnitude (a.u.)       :      0.71920
Magnitude (Debye)      :      1.82805

Rotational constants in cm-1:     4.009011     0.827013     0.786506
Rotational constants in MHz : 120187.134026 24793.225504 23578.849549

                             ****ORCA TERMINATED NORMALLY****
TOTAL RUN TIME: 0 days 0 hours 1 minutes 1 seconds 739 msec
