                         Program Version 4.1.2  - RELEASE  -
|  1> #Run DFT-D3 single point of the dimer
|  2> ! wB97X-D3 def2-TZVP TIGHTSCF CHELPG PMODEL PAL8
|  3>
|  4> %base "22-123_DFT_AB"
|  5>
|  6> %scf
|  7> MaxIter 1000
|  8> end
|  9>
| 10> * xyz 0 1
| 11>   C                      4.528630             2.039462             -5.128029
| 12>   O                      4.867166             0.760606             -4.647254
| 13>   H                      4.537975             0.701861             -3.774986
| 14>   H                      3.432986             2.102369             -5.175460
| 15>   H                      4.983056             2.835476             -4.470874
| 16>   H                      5.000534             2.221187             -6.109668
| 17>   C                      8.253150             -0.381026            -4.914637
| 18>   O                      7.649367             0.751168             -5.503528
| 19>   H                      6.670793             0.918869             -5.362021
| 20>   H                      8.018873             -0.360801            -3.759233
| 21>   H                      7.836253             -1.266290            -5.414413
| 22>   H                      9.330935             -0.575877            -5.152643
| 23> *
| 24>
| 25> #Run DFT-D3 single point of the molecule with dimer basis set
| 26> $new_job
| 27> %base "22-123_DFT_A"
| 28> ! wB97X-D3 def2-TZVP TIGHTSCF CHELPG PMODEL
| 29>
| 30> %scf
| 31> MaxIter 1000
| 32> end
| 33>
| 34> * xyz 0 1
| 35>   C                      4.528630             2.039462             -5.128029
| 36>   O                      4.867166             0.760606             -4.647254
| 37>   H                      4.537975             0.701861             -3.774986
| 38>   H                      3.432986             2.102369             -5.175460
| 39>   H                      4.983056             2.835476             -4.470874
| 40>   H                      5.000534             2.221187             -6.109668
| 41>   C                    : 8.253150             -0.381026            -4.914637
| 42>   O                    : 7.649367             0.751168             -5.503528
| 43>   H                    : 6.670793             0.918869             -5.362021
| 44>   H                    : 8.018873             -0.360801            -3.759233
| 45>   H                    : 7.836253             -1.266290            -5.414413
| 46>   H                    : 9.330935             -0.575877            -5.152643
| 47> *
| 48>
| 49> #Run DFT-D3 single point of the particle with dimer basis set
| 50> $new_job
| 51> %base "22-123_DFT_B"
| 52> ! wB97X-D3 def2-TZVP TIGHTSCF CHELPG PMODEL
| 53>
| 54> %scf
| 55> MaxIter 1000
| 56> end
| 57>
| 58> * xyz 0 1
| 59>   C                    : 4.528630             2.039462             -5.128029
| 60>   O                    : 4.867166             0.760606             -4.647254
| 61>   H                    : 4.537975             0.701861             -3.774986
| 62>   H                    : 3.432986             2.102369             -5.175460
| 63>   H                    : 4.983056             2.835476             -4.470874
| 64>   H                    : 5.000534             2.221187             -6.109668
| 65>   C                      8.253150             -0.381026            -4.914637
| 66>   O                      7.649367             0.751168             -5.503528
| 67>   H                      6.670793             0.918869             -5.362021
| 68>   H                      8.018873             -0.360801            -3.759233
| 69>   H                      7.836253             -1.266290            -5.414413
| 70>   H                      9.330935             -0.575877            -5.152643
| 71> *
| 72>
| 73>                          ****END OF INPUT****
 Total Charge           Charge          ....    0
 Multiplicity           Mult            ....    1
 Number of Electrons    NEL             ....   36
Dispersion correction           -0.001817205
FINAL SINGLE POINT ENERGY      -231.460661585892
Dispersion correction           -0.000226650
FINAL SINGLE POINT ENERGY      -115.734741866590

CARTESIAN COORDINATES (ANGSTROEM)
---------------------------------
  C      4.528630    2.039462   -5.128029
  O      4.867166    0.760606   -4.647254
  H      4.537975    0.701861   -3.774986
  H      3.432986    2.102369   -5.175460
  H      4.983056    2.835476   -4.470874
  H      5.000534    2.221187   -6.109668
  C      8.253150   -0.381026   -4.914637
  O      7.649367    0.751168   -5.503528
  H      6.670793    0.918869   -5.362021
  H      8.018873   -0.360801   -3.759233
  H      7.836253   -1.266290   -5.414413
  H      9.330935   -0.575877   -5.152643

 Multiplicity           Mult            ....    1
 Number of Electrons    NEL             ....   18
 Basis Dimension        Dim             ....  172

ORBITAL ENERGIES
----------------

  NO   OCC          E(Eh)            E(eV)
   0   2.0000     -19.228564      -523.2358
   1   2.0000     -10.327297      -281.0200
   2   2.0000      -1.122319       -30.5399
   3   2.0000      -0.789454       -21.4821
   4   2.0000      -0.602381       -16.3916
   5   2.0000      -0.543805       -14.7977
   6   2.0000      -0.523895       -14.2559
   7   2.0000      -0.408954       -11.1282
   8   2.0000      -0.367163        -9.9910
   9   0.0000       0.067337         1.8323
  10   0.0000       0.129866         3.5338
  11   0.0000       0.147603         4.0165
  12   0.0000       0.165197         4.4952
  13   0.0000       0.185137         5.0378

MULLIKEN ATOMIC CHARGES
-----------------------
   0 C :   -0.000501
   1 O :   -0.005785
   2 H :   -0.000363
   3 H :    0.000286
   4 H :   -0.000090
   5 H :   -0.000960
   6 C :   -0.153942
   7 O :   -0.498886
   8 H :    0.328384
   9 H :    0.101717
  10 H :    0.101654
  11 H :    0.128485
Sum of atomic charges:    0.0000000

LOEWDIN ATOMIC CHARGES
----------------------
   0 C :   -0.011716
   1 O :   -0.019005
   2 H :   -0.001134
   3 H :   -0.000168
   4 H :   -0.000738
   5 H :   -0.002174
   6 C :   -0.400864
   7 O :   -0.093470
   8 H :    0.208789
   9 H :    0.109861
  10 H :    0.095137
  11 H :    0.115482

  Mayer bond orders larger than 0.1
B(  6-C ,  7-O ) :   0.9776 B(  6-C ,  9-H ) :   0.9753 B(  6-C , 10-H ) :   0.9819
B(  6-C , 11-H ) :   0.9621 B(  7-O ,  8-H ) :   0.8838

Dispersion correction           -0.000279751
FINAL SINGLE POINT ENERGY      -115.719612715721

DIPOLE MOMENT
-------------
                                X             Y             Z
Electronic contribution:     -0.55173       1.53859      -0.78714
Nuclear contribution   :      0.17957      -1.91637       1.07469
                        -----------------------------------------
Total Dipole Moment    :     -0.37216      -0.37779       0.28755
                        -----------------------------------------
Magnitude (a.u.)       :      0.60325
Magnitude (Debye)      :      1.53334

Rotational constants in cm-1:     4.176346     0.808247     0.780773
Rotational constants in MHz : 125203.699346 24230.649119 23406.990191

                             ****ORCA TERMINATED NORMALLY****
TOTAL RUN TIME: 0 days 0 hours 1 minutes 8 seconds 221 msec
