                         Program Version 4.1.2  - RELEASE  -
|  1> #Run DFT-D3 single point of the dimer
|  2> ! wB97X-D3 def2-TZVP TIGHTSCF CHELPG PMODEL PAL8
|  3>
|  4> %base "11-168_DFT_AB"
|  5>
|  6> %scf
|  7> MaxIter 1000
|  8> end
|  9>
| 10> * xyz 0 1
| 11>   C                      9.424755             0.654069             9.694235
| 12>   O                      8.271776             0.103474             10.244217
| 13>   H                      8.504588             -0.187848            11.115742
| 14>   H                      9.540438             1.695390             9.804504
| 15>   H                      10.326911            0.252118             10.081967
| 16>   H                      9.487880             0.460406             8.646347
| 17>   C                      8.334044             -2.800744            8.258865
| 18>   O                      8.343442             -2.679756            9.679812
| 19>   H                      8.080518             -1.796854            10.035325
| 20>   H                      7.591973             -2.092943            7.806772
| 21>   H                      9.292589             -2.628121            7.805009
| 22>   H                      8.133133             -3.810071            7.890170
| 23> *
| 24>
| 25> #Run DFT-D3 single point of the molecule with dimer basis set
| 26> $new_job
| 27> %base "11-168_DFT_A"
| 28> ! wB97X-D3 def2-TZVP TIGHTSCF CHELPG PMODEL
| 29>
| 30> %scf
| 31> MaxIter 1000
| 32> end
| 33>
| 34> * xyz 0 1
| 35>   C                      9.424755             0.654069             9.694235
| 36>   O                      8.271776             0.103474             10.244217
| 37>   H                      8.504588             -0.187848            11.115742
| 38>   H                      9.540438             1.695390             9.804504
| 39>   H                      10.326911            0.252118             10.081967
| 40>   H                      9.487880             0.460406             8.646347
| 41>   C                    : 8.334044             -2.800744            8.258865
| 42>   O                    : 8.343442             -2.679756            9.679812
| 43>   H                    : 8.080518             -1.796854            10.035325
| 44>   H                    : 7.591973             -2.092943            7.806772
| 45>   H                    : 9.292589             -2.628121            7.805009
| 46>   H                    : 8.133133             -3.810071            7.890170
| 47> *
| 48>
| 49> #Run DFT-D3 single point of the particle with dimer basis set
| 50> $new_job
| 51> %base "11-168_DFT_B"
| 52> ! wB97X-D3 def2-TZVP TIGHTSCF CHELPG PMODEL
| 53>
| 54> %scf
| 55> MaxIter 1000
| 56> end
| 57>
| 58> * xyz 0 1
| 59>   C                    : 9.424755             0.654069             9.694235
| 60>   O                    : 8.271776             0.103474             10.244217
| 61>   H                    : 8.504588             -0.187848            11.115742
| 62>   H                    : 9.540438             1.695390             9.804504
| 63>   H                    : 10.326911            0.252118             10.081967
| 64>   H                    : 9.487880             0.460406             8.646347
| 65>   C                      8.334044             -2.800744            8.258865
| 66>   O                      8.343442             -2.679756            9.679812
| 67>   H                      8.080518             -1.796854            10.035325
| 68>   H                      7.591973             -2.092943            7.806772
| 69>   H                      9.292589             -2.628121            7.805009
| 70>   H                      8.133133             -3.810071            7.890170
| 71> *
| 72>
| 73>                          ****END OF INPUT****
 Total Charge           Charge          ....    0
 Multiplicity           Mult            ....    1
 Number of Electrons    NEL             ....   36
Dispersion correction           -0.002128805
FINAL SINGLE POINT ENERGY      -231.469063594452
Dispersion correction           -0.000230832
FINAL SINGLE POINT ENERGY      -115.732580817663

CARTESIAN COORDINATES (ANGSTROEM)
---------------------------------
  C      9.424755    0.654069    9.694235
  O      8.271776    0.103474   10.244217
  H      8.504588   -0.187848   11.115742
  H      9.540438    1.695390    9.804504
  H     10.326911    0.252118   10.081967
  H      9.487880    0.460406    8.646347
  C      8.334044   -2.800744    8.258865
  O      8.343442   -2.679756    9.679812
  H      8.080518   -1.796854   10.035325
  H      7.591973   -2.092943    7.806772
  H      9.292589   -2.628121    7.805009
  H      8.133133   -3.810071    7.890170

 Multiplicity           Mult            ....    1
 Number of Electrons    NEL             ....   18
 Basis Dimension        Dim             ....  172

ORBITAL ENERGIES
----------------

  NO   OCC          E(Eh)            E(eV)
   0   2.0000     -19.232167      -523.3339
   1   2.0000     -10.316273      -280.7201
   2   2.0000      -1.123422       -30.5699
   3   2.0000      -0.798729       -21.7345
   4   2.0000      -0.607534       -16.5318
   5   2.0000      -0.540624       -14.7111
   6   2.0000      -0.526424       -14.3247
   7   2.0000      -0.423509       -11.5243
   8   2.0000      -0.372217       -10.1285
   9   0.0000       0.072429         1.9709
  10   0.0000       0.132859         3.6153
  11   0.0000       0.137469         3.7407
  12   0.0000       0.182417         4.9638
  13   0.0000       0.189003         5.1430

MULLIKEN ATOMIC CHARGES
-----------------------
   0 C :   -0.005896
   1 O :   -0.006233
   2 H :   -0.000801
   3 H :   -0.000382
   4 H :   -0.000055
   5 H :    0.000826
   6 C :   -0.161112
   7 O :   -0.488821
   8 H :    0.329567
   9 H :    0.104569
  10 H :    0.107870
  11 H :    0.120469
Sum of atomic charges:   -0.0000000

LOEWDIN ATOMIC CHARGES
----------------------
   0 C :   -0.007593
   1 O :   -0.021379
   2 H :   -0.005203
   3 H :   -0.000192
   4 H :   -0.000689
   5 H :   -0.000705
   6 C :   -0.377465
   7 O :   -0.084840
   8 H :    0.196736
   9 H :    0.102985
  10 H :    0.091991
  11 H :    0.106354

  Mayer bond orders larger than 0.1
B(  6-C ,  7-O ) :   0.9933 B(  6-C ,  9-H ) :   0.9840 B(  6-C , 10-H ) :   0.9746
B(  6-C , 11-H ) :   0.9739 B(  7-O ,  8-H ) :   0.8858

Dispersion correction           -0.000276173
FINAL SINGLE POINT ENERGY      -115.730777639738

DIPOLE MOMENT
-------------
                                X             Y             Z
Electronic contribution:      0.04301       0.00850       1.86763
Nuclear contribution   :     -0.21259       0.49138      -2.24070
                        -----------------------------------------
Total Dipole Moment    :     -0.16957       0.49988      -0.37307
                        -----------------------------------------
Magnitude (a.u.)       :      0.64639
Magnitude (Debye)      :      1.64299

Rotational constants in cm-1:     4.451779     0.803992     0.769414
Rotational constants in MHz : 133460.971893 24103.069973 23066.442921

                             ****ORCA TERMINATED NORMALLY****
TOTAL RUN TIME: 0 days 0 hours 1 minutes 11 seconds 616 msec
