                         Program Version 4.1.2  - RELEASE  -
|  1> #Run DFT-D3 single point of the dimer
|  2> ! wB97X-D3 def2-TZVP TIGHTSCF CHELPG PMODEL PAL8
|  3>
|  4> %base "15-70_DFT_AB"
|  5>
|  6> %scf
|  7> MaxIter 1000
|  8> end
|  9>
| 10> * xyz 0 1
| 11>   C                      0.395747             0.499302             3.166637
| 12>   O                      -0.741435            1.109411             2.820772
| 13>   H                      -1.443136            0.800324             3.428644
| 14>   H                      0.572906             0.753819             4.234277
| 15>   H                      0.320529             -0.597235            3.056164
| 16>   H                      1.203881             0.845296             2.442496
| 17>   C                      5.256442             3.173701             4.330914
| 18>   O                      5.647779             3.333847             5.672779
| 19>   H                      4.899699             3.045901             6.165063
| 20>   H                      5.243303             4.136426             3.826357
| 21>   H                      5.965825             2.565790             3.787552
| 22>   H                      4.380051             2.629932             4.138270
| 23> *
| 24>
| 25> #Run DFT-D3 single point of the molecule with dimer basis set
| 26> $new_job
| 27> %base "15-70_DFT_A"
| 28> ! wB97X-D3 def2-TZVP TIGHTSCF CHELPG PMODEL
| 29>
| 30> %scf
| 31> MaxIter 1000
| 32> end
| 33>
| 34> * xyz 0 1
| 35>   C                      0.395747             0.499302             3.166637
| 36>   O                      -0.741435            1.109411             2.820772
| 37>   H                      -1.443136            0.800324             3.428644
| 38>   H                      0.572906             0.753819             4.234277
| 39>   H                      0.320529             -0.597235            3.056164
| 40>   H                      1.203881             0.845296             2.442496
| 41>   C                    : 5.256442             3.173701             4.330914
| 42>   O                    : 5.647779             3.333847             5.672779
| 43>   H                    : 4.899699             3.045901             6.165063
| 44>   H                    : 5.243303             4.136426             3.826357
| 45>   H                    : 5.965825             2.565790             3.787552
| 46>   H                    : 4.380051             2.629932             4.138270
| 47> *
| 48>
| 49> #Run DFT-D3 single point of the particle with dimer basis set
| 50> $new_job
| 51> %base "15-70_DFT_B"
| 52> ! wB97X-D3 def2-TZVP TIGHTSCF CHELPG PMODEL
| 53>
| 54> %scf
| 55> MaxIter 1000
| 56> end
| 57>
| 58> * xyz 0 1
| 59>   C                    : 0.395747             0.499302             3.166637
| 60>   O                    : -0.741435            1.109411             2.820772
| 61>   H                    : -1.443136            0.800324             3.428644
| 62>   H                    : 0.572906             0.753819             4.234277
| 63>   H                    : 0.320529             -0.597235            3.056164
| 64>   H                    : 1.203881             0.845296             2.442496
| 65>   C                      5.256442             3.173701             4.330914
| 66>   O                      5.647779             3.333847             5.672779
| 67>   H                      4.899699             3.045901             6.165063
| 68>   H                      5.243303             4.136426             3.826357
| 69>   H                      5.965825             2.565790             3.787552
| 70>   H                      4.380051             2.629932             4.138270
| 71> *
| 72>
| 73>                          ****END OF INPUT****
 Total Charge           Charge          ....    0
 Multiplicity           Mult            ....    1
 Number of Electrons    NEL             ....   36
Dispersion correction           -0.000596354
FINAL SINGLE POINT ENERGY      -231.458907076128
Dispersion correction           -0.000199292
FINAL SINGLE POINT ENERGY      -115.728132522503

CARTESIAN COORDINATES (ANGSTROEM)
---------------------------------
  C      0.395747    0.499302    3.166637
  O     -0.741435    1.109411    2.820772
  H     -1.443136    0.800324    3.428644
  H      0.572906    0.753819    4.234277
  H      0.320529   -0.597235    3.056164
  H      1.203881    0.845296    2.442496
  C      5.256442    3.173701    4.330914
  O      5.647779    3.333847    5.672779
  H      4.899699    3.045901    6.165063
  H      5.243303    4.136426    3.826357
  H      5.965825    2.565790    3.787552
  H      4.380051    2.629932    4.138270

 Multiplicity           Mult            ....    1
 Number of Electrons    NEL             ....   18
 Basis Dimension        Dim             ....  172

ORBITAL ENERGIES
----------------

  NO   OCC          E(Eh)            E(eV)
   0   2.0000     -19.230573      -523.2905
   1   2.0000     -10.304283      -280.3938
   2   2.0000      -1.145106       -31.1599
   3   2.0000      -0.802489       -21.8368
   4   2.0000      -0.621124       -16.9016
   5   2.0000      -0.541788       -14.7428
   6   2.0000      -0.525711       -14.3053
   7   2.0000      -0.442672       -12.0457
   8   2.0000      -0.373721       -10.1695
   9   0.0000       0.079770         2.1706
  10   0.0000       0.117157         3.1880
  11   0.0000       0.146066         3.9747
  12   0.0000       0.168168         4.5761
  13   0.0000       0.187265         5.0957

MULLIKEN ATOMIC CHARGES
-----------------------
   0 C :   -0.000001
   1 O :    0.000000
   2 H :    0.000000
   3 H :   -0.000015
   4 H :   -0.000003
   5 H :   -0.000043
   6 C :   -0.177808
   7 O :   -0.458829
   8 H :    0.312705
   9 H :    0.107799
  10 H :    0.103846
  11 H :    0.112352
Sum of atomic charges:   -0.0000000

LOEWDIN ATOMIC CHARGES
----------------------
   0 C :   -0.000071
   1 O :   -0.000001
   2 H :   -0.000000
   3 H :   -0.000018
   4 H :   -0.000000
   5 H :   -0.000057
   6 C :   -0.389724
   7 O :   -0.058626
   8 H :    0.160118
   9 H :    0.099949
  10 H :    0.099583
  11 H :    0.088848

  Mayer bond orders larger than 0.1
B(  6-C ,  7-O ) :   1.0151 B(  6-C ,  9-H ) :   0.9811 B(  6-C , 10-H ) :   0.9765
B(  6-C , 11-H ) :   0.9796 B(  7-O ,  8-H ) :   0.9070

Dispersion correction           -0.000239453
FINAL SINGLE POINT ENERGY      -115.730612326315

DIPOLE MOMENT
-------------
                                X             Y             Z
Electronic contribution:      0.52226       0.27863       1.81271
Nuclear contribution   :     -1.17045      -0.55852      -2.01788
                        -----------------------------------------
Total Dipole Moment    :     -0.64819      -0.27989      -0.20517
                        -----------------------------------------
Magnitude (a.u.)       :      0.73524
Magnitude (Debye)      :      1.86884

Rotational constants in cm-1:     4.544483     0.838167     0.810774
Rotational constants in MHz : 136240.182552 25127.614164 24306.390096

                             ****ORCA TERMINATED NORMALLY****
TOTAL RUN TIME: 0 days 0 hours 0 minutes 57 seconds 501 msec
