                         Program Version 4.1.2  - RELEASE  -
|  1> #Run DFT-D3 single point of the dimer
|  2> ! wB97X-D3 def2-TZVP TIGHTSCF CHELPG PMODEL PAL8
|  3>
|  4> %base "17-106_DFT_AB"
|  5>
|  6> %scf
|  7> MaxIter 1000
|  8> end
|  9>
| 10> * xyz 0 1
| 11>   C                      -3.510231            -1.086601            -3.537600
| 12>   O                      -4.343705            -1.752611            -4.437602
| 13>   H                      -5.224240            -1.403687            -4.477860
| 14>   H                      -4.049414            -0.835512            -2.615135
| 15>   H                      -2.571821            -1.682410            -3.278911
| 16>   H                      -3.190376            -0.068218            -3.952758
| 17>   C                      -0.129809            -3.981997            -1.892115
| 18>   O                      0.402196             -3.215885            -0.827790
| 19>   H                      0.200411             -3.568113            0.056737
| 20>   H                      -0.677656            -3.346531            -2.575738
| 21>   H                      0.677087             -4.486422            -2.377197
| 22>   H                      -0.876734            -4.661249            -1.505775
| 23> *
| 24>
| 25> #Run DFT-D3 single point of the molecule with dimer basis set
| 26> $new_job
| 27> %base "17-106_DFT_A"
| 28> ! wB97X-D3 def2-TZVP TIGHTSCF CHELPG PMODEL
| 29>
| 30> %scf
| 31> MaxIter 1000
| 32> end
| 33>
| 34> * xyz 0 1
| 35>   C                      -3.510231            -1.086601            -3.537600
| 36>   O                      -4.343705            -1.752611            -4.437602
| 37>   H                      -5.224240            -1.403687            -4.477860
| 38>   H                      -4.049414            -0.835512            -2.615135
| 39>   H                      -2.571821            -1.682410            -3.278911
| 40>   H                      -3.190376            -0.068218            -3.952758
| 41>   C                    : -0.129809            -3.981997            -1.892115
| 42>   O                    : 0.402196             -3.215885            -0.827790
| 43>   H                    : 0.200411             -3.568113            0.056737
| 44>   H                    : -0.677656            -3.346531            -2.575738
| 45>   H                    : 0.677087             -4.486422            -2.377197
| 46>   H                    : -0.876734            -4.661249            -1.505775
| 47> *
| 48>
| 49> #Run DFT-D3 single point of the particle with dimer basis set
| 50> $new_job
| 51> %base "17-106_DFT_B"
| 52> ! wB97X-D3 def2-TZVP TIGHTSCF CHELPG PMODEL
| 53>
| 54> %scf
| 55> MaxIter 1000
| 56> end
| 57>
| 58> * xyz 0 1
| 59>   C                    : -3.510231            -1.086601            -3.537600
| 60>   O                    : -4.343705            -1.752611            -4.437602
| 61>   H                    : -5.224240            -1.403687            -4.477860
| 62>   H                    : -4.049414            -0.835512            -2.615135
| 63>   H                    : -2.571821            -1.682410            -3.278911
| 64>   H                    : -3.190376            -0.068218            -3.952758
| 65>   C                      -0.129809            -3.981997            -1.892115
| 66>   O                      0.402196             -3.215885            -0.827790
| 67>   H                      0.200411             -3.568113            0.056737
| 68>   H                      -0.677656            -3.346531            -2.575738
| 69>   H                      0.677087             -4.486422            -2.377197
| 70>   H                      -0.876734            -4.661249            -1.505775
| 71> *
| 72>
| 73>                          ****END OF INPUT****
 Total Charge           Charge          ....    0
 Multiplicity           Mult            ....    1
 Number of Electrons    NEL             ....   36
Dispersion correction           -0.000971197
FINAL SINGLE POINT ENERGY      -231.466053221729
Dispersion correction           -0.000257141
FINAL SINGLE POINT ENERGY      -115.732105353897

CARTESIAN COORDINATES (ANGSTROEM)
---------------------------------
  C     -3.510231   -1.086601   -3.537600
  O     -4.343705   -1.752611   -4.437602
  H     -5.224240   -1.403687   -4.477860
  H     -4.049414   -0.835512   -2.615135
  H     -2.571821   -1.682410   -3.278911
  H     -3.190376   -0.068218   -3.952758
  C     -0.129809   -3.981997   -1.892115
  O      0.402196   -3.215885   -0.827790
  H      0.200411   -3.568113    0.056737
  H     -0.677656   -3.346531   -2.575738
  H      0.677087   -4.486422   -2.377197
  H     -0.876734   -4.661249   -1.505775

 Multiplicity           Mult            ....    1
 Number of Electrons    NEL             ....   18
 Basis Dimension        Dim             ....  172

ORBITAL ENERGIES
----------------

  NO   OCC          E(Eh)            E(eV)
   0   2.0000     -19.223951      -523.1103
   1   2.0000     -10.307633      -280.4850
   2   2.0000      -1.126946       -30.6657
   3   2.0000      -0.798893       -21.7390
   4   2.0000      -0.608631       -16.5617
   5   2.0000      -0.549310       -14.9475
   6   2.0000      -0.527371       -14.3505
   7   2.0000      -0.421846       -11.4790
   8   2.0000      -0.371813       -10.1175
   9   0.0000       0.087393         2.3781
  10   0.0000       0.113875         3.0987
  11   0.0000       0.150081         4.0839
  12   0.0000       0.170083         4.6282
  13   0.0000       0.192553         5.2396

MULLIKEN ATOMIC CHARGES
-----------------------
   0 C :   -0.002550
   1 O :    0.000083
   2 H :    0.000002
   3 H :    0.000043
   4 H :    0.004719
   5 H :    0.000060
   6 C :   -0.147207
   7 O :   -0.499232
   8 H :    0.320671
   9 H :    0.106090
  10 H :    0.113140
  11 H :    0.104181
Sum of atomic charges:   -0.0000000

LOEWDIN ATOMIC CHARGES
----------------------
   0 C :   -0.000524
   1 O :   -0.000007
   2 H :   -0.000000
   3 H :   -0.000003
   4 H :   -0.002148
   5 H :   -0.000001
   6 C :   -0.371079
   7 O :   -0.092270
   8 H :    0.173800
   9 H :    0.101184
  10 H :    0.094964
  11 H :    0.096086

  Mayer bond orders larger than 0.1
B(  6-C ,  7-O ) :   1.0039 B(  6-C ,  9-H ) :   0.9693 B(  6-C , 10-H ) :   0.9829
B(  6-C , 11-H ) :   0.9887 B(  7-O ,  8-H ) :   0.8931

Dispersion correction           -0.000242906
FINAL SINGLE POINT ENERGY      -115.733350044813

DIPOLE MOMENT
-------------
                                X             Y             Z
Electronic contribution:      0.74358       0.98189       1.17751
Nuclear contribution   :     -1.12214      -1.53995      -1.03031
                        -----------------------------------------
Total Dipole Moment    :     -0.37856      -0.55806       0.14721
                        -----------------------------------------
Magnitude (a.u.)       :      0.69022
Magnitude (Debye)      :      1.75441

Rotational constants in cm-1:     4.393897     0.828663     0.805327
Rotational constants in MHz : 131725.719965 24842.682413 24143.092144

                             ****ORCA TERMINATED NORMALLY****
TOTAL RUN TIME: 0 days 0 hours 0 minutes 58 seconds 265 msec
