                         Program Version 4.1.2  - RELEASE  -
|  1> #Run DFT-D3 single point of the dimer
|  2> ! wB97X-D3 def2-TZVP TIGHTSCF CHELPG PMODEL PAL8
|  3>
|  4> %base "1-20_DFT_AB"
|  5>
|  6> %scf
|  7> MaxIter 1000
|  8> end
|  9>
| 10> * xyz 0 1
| 11>   C                      -2.881200            5.269052             1.066537
| 12>   O                      -2.445104            4.075524             0.341486
| 13>   H                      -2.756895            4.205874             -0.534556
| 14>   H                      -3.832270            5.165989             1.402556
| 15>   H                      -2.191036            5.618454             1.900053
| 16>   H                      -2.957396            6.094008             0.292697
| 17>   C                      -4.728299            5.566947             3.681288
| 18>   O                      -3.589925            5.869790             4.411110
| 19>   H                      -3.218320            6.670380             4.094765
| 20>   H                      -5.260163            6.458923             3.442964
| 21>   H                      -4.550372            5.150121             2.696832
| 22>   H                      -5.420831            4.930192             4.198414
| 23> *
| 24>
| 25> #Run DFT-D3 single point of the molecule with dimer basis set
| 26> $new_job
| 27> %base "1-20_DFT_A"
| 28> ! wB97X-D3 def2-TZVP TIGHTSCF CHELPG PMODEL
| 29>
| 30> %scf
| 31> MaxIter 1000
| 32> end
| 33>
| 34> * xyz 0 1
| 35>   C                      -2.881200            5.269052             1.066537
| 36>   O                      -2.445104            4.075524             0.341486
| 37>   H                      -2.756895            4.205874             -0.534556
| 38>   H                      -3.832270            5.165989             1.402556
| 39>   H                      -2.191036            5.618454             1.900053
| 40>   H                      -2.957396            6.094008             0.292697
| 41>   C                    : -4.728299            5.566947             3.681288
| 42>   O                    : -3.589925            5.869790             4.411110
| 43>   H                    : -3.218320            6.670380             4.094765
| 44>   H                    : -5.260163            6.458923             3.442964
| 45>   H                    : -4.550372            5.150121             2.696832
| 46>   H                    : -5.420831            4.930192             4.198414
| 47> *
| 48>
| 49> #Run DFT-D3 single point of the particle with dimer basis set
| 50> $new_job
| 51> %base "1-20_DFT_B"
| 52> ! wB97X-D3 def2-TZVP TIGHTSCF CHELPG PMODEL
| 53>
| 54> %scf
| 55> MaxIter 1000
| 56> end
| 57>
| 58> * xyz 0 1
| 59>   C                    : -2.881200            5.269052             1.066537
| 60>   O                    : -2.445104            4.075524             0.341486
| 61>   H                    : -2.756895            4.205874             -0.534556
| 62>   H                    : -3.832270            5.165989             1.402556
| 63>   H                    : -2.191036            5.618454             1.900053
| 64>   H                    : -2.957396            6.094008             0.292697
| 65>   C                      -4.728299            5.566947             3.681288
| 66>   O                      -3.589925            5.869790             4.411110
| 67>   H                      -3.218320            6.670380             4.094765
| 68>   H                      -5.260163            6.458923             3.442964
| 69>   H                      -4.550372            5.150121             2.696832
| 70>   H                      -5.420831            4.930192             4.198414
| 71> *
| 72>
| 73>                          ****END OF INPUT****
 Total Charge           Charge          ....    0
 Multiplicity           Mult            ....    1
 Number of Electrons    NEL             ....   36
Dispersion correction           -0.002027814
FINAL SINGLE POINT ENERGY      -231.448169818825
Dispersion correction           -0.000244874
FINAL SINGLE POINT ENERGY      -115.724646759973

CARTESIAN COORDINATES (ANGSTROEM)
---------------------------------
  C     -2.881200    5.269052    1.066537
  O     -2.445104    4.075524    0.341486
  H     -2.756895    4.205874   -0.534556
  H     -3.832270    5.165989    1.402556
  H     -2.191036    5.618454    1.900053
  H     -2.957396    6.094008    0.292697
  C     -4.728299    5.566947    3.681288
  O     -3.589925    5.869790    4.411110
  H     -3.218320    6.670380    4.094765
  H     -5.260163    6.458923    3.442964
  H     -4.550372    5.150121    2.696832
  H     -5.420831    4.930192    4.198414

 Multiplicity           Mult            ....    1
 Number of Electrons    NEL             ....   18
 Basis Dimension        Dim             ....  172

ORBITAL ENERGIES
----------------

  NO   OCC          E(Eh)            E(eV)
   0   2.0000     -19.229468      -523.2604
   1   2.0000     -10.304836      -280.4088
   2   2.0000      -1.149518       -31.2800
   3   2.0000      -0.803465       -21.8634
   4   2.0000      -0.625717       -17.0266
   5   2.0000      -0.541451       -14.7336
   6   2.0000      -0.537474       -14.6254
   7   2.0000      -0.433798       -11.8043
   8   2.0000      -0.372768       -10.1435
   9   0.0000       0.085894         2.3373
  10   0.0000       0.124527         3.3885
  11   0.0000       0.157513         4.2862
  12   0.0000       0.182053         4.9539
  13   0.0000       0.189605         5.1594

MULLIKEN ATOMIC CHARGES
-----------------------
   0 C :    0.008493
   1 O :   -0.000196
   2 H :   -0.000018
   3 H :   -0.000145
   4 H :   -0.006844
   5 H :    0.000505
   6 C :   -0.152116
   7 O :   -0.466723
   8 H :    0.315823
   9 H :    0.105392
  10 H :    0.073449
  11 H :    0.122380
Sum of atomic charges:   -0.0000000

LOEWDIN ATOMIC CHARGES
----------------------
   0 C :   -0.022760
   1 O :   -0.000051
   2 H :   -0.000021
   3 H :   -0.033337
   4 H :   -0.004735
   5 H :   -0.000206
   6 C :   -0.379604
   7 O :   -0.035634
   8 H :    0.158951
   9 H :    0.092938
  10 H :    0.119978
  11 H :    0.104480

  Mayer bond orders larger than 0.1
B(  6-C ,  7-O ) :   1.0069 B(  6-C ,  9-H ) :   1.0000 B(  6-C , 10-H ) :   0.9784
B(  6-C , 11-H ) :   0.9736 B(  7-O ,  8-H ) :   0.9005

Dispersion correction           -0.000227838
FINAL SINGLE POINT ENERGY      -115.733140059114

DIPOLE MOMENT
-------------
                                X             Y             Z
Electronic contribution:      1.52616       0.22236       1.12279
Nuclear contribution   :     -1.74471       0.20676      -1.60160
                        -----------------------------------------
Total Dipole Moment    :     -0.21855       0.42912      -0.47881
                        -----------------------------------------
Magnitude (a.u.)       :      0.67909
Magnitude (Debye)      :      1.72612

Rotational constants in cm-1:     4.604390     0.855746     0.822442
Rotational constants in MHz : 138036.125935 25654.617290 24656.181712

                             ****ORCA TERMINATED NORMALLY****
TOTAL RUN TIME: 0 days 0 hours 4 minutes 47 seconds 26 msec
