                         Program Version 4.1.2  - RELEASE  -
|  1> #Run DFT-D3 single point of the dimer
|  2> ! wB97X-D3 def2-TZVP TIGHTSCF CHELPG PMODEL PAL8
|  3>
|  4> %base "16-178_DFT_AB"
|  5>
|  6> %scf
|  7> MaxIter 1000
|  8> end
|  9>
| 10> * xyz 0 1
| 11>   C                      -5.616573            1.488614             -10.703043
| 12>   O                      -5.556274            0.457298             -9.763606
| 13>   H                      -6.374246            0.536284             -9.227588
| 14>   H                      -5.787094            2.431074             -10.183057
| 15>   H                      -4.744052            1.605157             -11.282023
| 16>   H                      -6.466317            1.427160             -11.365703
| 17>   C                      -9.001202            1.534218             -9.086386
| 18>   O                      -8.237007            0.389339             -8.984651
| 19>   H                      -8.766669            -0.353936            -8.614974
| 20>   H                      -8.439734            2.460926             -9.564089
| 21>   H                      -9.925047            1.419708             -9.565036
| 22>   H                      -9.223013            1.902989             -8.083310
| 23> *
| 24>
| 25> #Run DFT-D3 single point of the molecule with dimer basis set
| 26> $new_job
| 27> %base "16-178_DFT_A"
| 28> ! wB97X-D3 def2-TZVP TIGHTSCF CHELPG PMODEL
| 29>
| 30> %scf
| 31> MaxIter 1000
| 32> end
| 33>
| 34> * xyz 0 1
| 35>   C                      -5.616573            1.488614             -10.703043
| 36>   O                      -5.556274            0.457298             -9.763606
| 37>   H                      -6.374246            0.536284             -9.227588
| 38>   H                      -5.787094            2.431074             -10.183057
| 39>   H                      -4.744052            1.605157             -11.282023
| 40>   H                      -6.466317            1.427160             -11.365703
| 41>   C                    : -9.001202            1.534218             -9.086386
| 42>   O                    : -8.237007            0.389339             -8.984651
| 43>   H                    : -8.766669            -0.353936            -8.614974
| 44>   H                    : -8.439734            2.460926             -9.564089
| 45>   H                    : -9.925047            1.419708             -9.565036
| 46>   H                    : -9.223013            1.902989             -8.083310
| 47> *
| 48>
| 49> #Run DFT-D3 single point of the particle with dimer basis set
| 50> $new_job
| 51> %base "16-178_DFT_B"
| 52> ! wB97X-D3 def2-TZVP TIGHTSCF CHELPG PMODEL
| 53>
| 54> %scf
| 55> MaxIter 1000
| 56> end
| 57>
| 58> * xyz 0 1
| 59>   C                    : -5.616573            1.488614             -10.703043
| 60>   O                    : -5.556274            0.457298             -9.763606
| 61>   H                    : -6.374246            0.536284             -9.227588
| 62>   H                    : -5.787094            2.431074             -10.183057
| 63>   H                    : -4.744052            1.605157             -11.282023
| 64>   H                    : -6.466317            1.427160             -11.365703
| 65>   C                      -9.001202            1.534218             -9.086386
| 66>   O                      -8.237007            0.389339             -8.984651
| 67>   H                      -8.766669            -0.353936            -8.614974
| 68>   H                      -8.439734            2.460926             -9.564089
| 69>   H                      -9.925047            1.419708             -9.565036
| 70>   H                      -9.223013            1.902989             -8.083310
| 71> *
| 72>
| 73>                          ****END OF INPUT****
 Total Charge           Charge          ....    0
 Multiplicity           Mult            ....    1
 Number of Electrons    NEL             ....   36
Dispersion correction           -0.002135809
FINAL SINGLE POINT ENERGY      -231.467848672172
Dispersion correction           -0.000218258
FINAL SINGLE POINT ENERGY      -115.733273118907

CARTESIAN COORDINATES (ANGSTROEM)
---------------------------------
  C     -5.616573    1.488614  -10.703043
  O     -5.556274    0.457298   -9.763606
  H     -6.374246    0.536284   -9.227588
  H     -5.787094    2.431074  -10.183057
  H     -4.744052    1.605157  -11.282023
  H     -6.466317    1.427160  -11.365703
  C     -9.001202    1.534218   -9.086386
  O     -8.237007    0.389339   -8.984651
  H     -8.766669   -0.353936   -8.614974
  H     -8.439734    2.460926   -9.564089
  H     -9.925047    1.419708   -9.565036
  H     -9.223013    1.902989   -8.083310

 Multiplicity           Mult            ....    1
 Number of Electrons    NEL             ....   18
 Basis Dimension        Dim             ....  172

ORBITAL ENERGIES
----------------

  NO   OCC          E(Eh)            E(eV)
   0   2.0000     -19.233783      -523.3778
   1   2.0000     -10.313990      -280.6579
   2   2.0000      -1.142412       -31.0866
   3   2.0000      -0.791895       -21.5486
   4   2.0000      -0.620202       -16.8765
   5   2.0000      -0.546109       -14.8604
   6   2.0000      -0.524732       -14.2787
   7   2.0000      -0.424765       -11.5584
   8   2.0000      -0.370452       -10.0805
   9   0.0000       0.097929         2.6648
  10   0.0000       0.123440         3.3590
  11   0.0000       0.149268         4.0618
  12   0.0000       0.192085         5.2269
  13   0.0000       0.201849         5.4926

MULLIKEN ATOMIC CHARGES
-----------------------
   0 C :    0.003691
   1 O :    0.001590
   2 H :   -0.011350
   3 H :   -0.000975
   4 H :    0.000011
   5 H :   -0.001772
   6 C :   -0.152648
   7 O :   -0.469640
   8 H :    0.318498
   9 H :    0.111864
  10 H :    0.106725
  11 H :    0.094005
Sum of atomic charges:   -0.0000000

LOEWDIN ATOMIC CHARGES
----------------------
   0 C :   -0.006383
   1 O :   -0.006902
   2 H :   -0.045818
   3 H :   -0.001367
   4 H :   -0.000035
   5 H :   -0.001410
   6 C :   -0.412009
   7 O :   -0.015295
   8 H :    0.187742
   9 H :    0.126995
  10 H :    0.082858
  11 H :    0.091624

  Mayer bond orders larger than 0.1
B(  6-C ,  7-O ) :   0.9861 B(  6-C ,  9-H ) :   0.9717 B(  6-C , 10-H ) :   0.9701
B(  6-C , 11-H ) :   0.9844 B(  7-O ,  8-H ) :   0.8858

Dispersion correction           -0.000241739
FINAL SINGLE POINT ENERGY      -115.727215182646

DIPOLE MOMENT
-------------
                                X             Y             Z
Electronic contribution:      1.05438      -1.60528      -0.02849
Nuclear contribution   :     -1.71287       1.55712       0.23482
                        -----------------------------------------
Total Dipole Moment    :     -0.65849      -0.04816       0.20633
                        -----------------------------------------
Magnitude (a.u.)       :      0.69174
Magnitude (Debye)      :      1.75826

Rotational constants in cm-1:     4.336875     0.851177     0.812087
Rotational constants in MHz : 130016.237624 25517.631839 24345.768894

                             ****ORCA TERMINATED NORMALLY****
TOTAL RUN TIME: 0 days 0 hours 1 minutes 10 seconds 177 msec
