                         Program Version 4.1.2  - RELEASE  -
|  1> #Run DFT-D3 single point of the dimer
|  2> ! wB97X-D3 def2-TZVP TIGHTSCF CHELPG PMODEL PAL8
|  3>
|  4> %base "22-212_DFT_AB"
|  5>
|  6> %scf
|  7> MaxIter 1000
|  8> end
|  9>
| 10> * xyz 0 1
| 11>   C                      -6.562551            -9.594440            -0.983579
| 12>   O                      -7.015849            -9.670442            0.292974
| 13>   H                      -6.502563            -9.019146            0.782750
| 14>   H                      -5.468592            -9.857157            -1.010024
| 15>   H                      -7.115819            -10.191508           -1.692347
| 16>   H                      -6.727303            -8.508277            -1.277775
| 17>   C                      -6.297636            -7.574919            2.797073
| 18>   O                      -5.436312            -7.788280            1.702356
| 19>   H                      -5.218978            -6.945528            1.226079
| 20>   H                      -6.017857            -8.267462            3.586633
| 21>   H                      -6.148262            -6.533509            3.099142
| 22>   H                      -7.355991            -7.711219            2.511567
| 23> *
| 24>
| 25> #Run DFT-D3 single point of the molecule with dimer basis set
| 26> $new_job
| 27> %base "22-212_DFT_A"
| 28> ! wB97X-D3 def2-TZVP TIGHTSCF CHELPG PMODEL
| 29>
| 30> %scf
| 31> MaxIter 1000
| 32> end
| 33>
| 34> * xyz 0 1
| 35>   C                      -6.562551            -9.594440            -0.983579
| 36>   O                      -7.015849            -9.670442            0.292974
| 37>   H                      -6.502563            -9.019146            0.782750
| 38>   H                      -5.468592            -9.857157            -1.010024
| 39>   H                      -7.115819            -10.191508           -1.692347
| 40>   H                      -6.727303            -8.508277            -1.277775
| 41>   C                    : -6.297636            -7.574919            2.797073
| 42>   O                    : -5.436312            -7.788280            1.702356
| 43>   H                    : -5.218978            -6.945528            1.226079
| 44>   H                    : -6.017857            -8.267462            3.586633
| 45>   H                    : -6.148262            -6.533509            3.099142
| 46>   H                    : -7.355991            -7.711219            2.511567
| 47> *
| 48>
| 49> #Run DFT-D3 single point of the particle with dimer basis set
| 50> $new_job
| 51> %base "22-212_DFT_B"
| 52> ! wB97X-D3 def2-TZVP TIGHTSCF CHELPG PMODEL
| 53>
| 54> %scf
| 55> MaxIter 1000
| 56> end
| 57>
| 58> * xyz 0 1
| 59>   C                    : -6.562551            -9.594440            -0.983579
| 60>   O                    : -7.015849            -9.670442            0.292974
| 61>   H                    : -6.502563            -9.019146            0.782750
| 62>   H                    : -5.468592            -9.857157            -1.010024
| 63>   H                    : -7.115819            -10.191508           -1.692347
| 64>   H                    : -6.727303            -8.508277            -1.277775
| 65>   C                      -6.297636            -7.574919            2.797073
| 66>   O                      -5.436312            -7.788280            1.702356
| 67>   H                      -5.218978            -6.945528            1.226079
| 68>   H                      -6.017857            -8.267462            3.586633
| 69>   H                      -6.148262            -6.533509            3.099142
| 70>   H                      -7.355991            -7.711219            2.511567
| 71> *
| 72>
| 73>                          ****END OF INPUT****
 Total Charge           Charge          ....    0
 Multiplicity           Mult            ....    1
 Number of Electrons    NEL             ....   36
Dispersion correction           -0.001907453
FINAL SINGLE POINT ENERGY      -231.472313598394
Dispersion correction           -0.000198710
FINAL SINGLE POINT ENERGY      -115.729387806091

CARTESIAN COORDINATES (ANGSTROEM)
---------------------------------
  C     -6.562551   -9.594440   -0.983579
  O     -7.015849   -9.670442    0.292974
  H     -6.502563   -9.019146    0.782750
  H     -5.468592   -9.857157   -1.010024
  H     -7.115819  -10.191508   -1.692347
  H     -6.727303   -8.508277   -1.277775
  C     -6.297636   -7.574919    2.797073
  O     -5.436312   -7.788280    1.702356
  H     -5.218978   -6.945528    1.226079
  H     -6.017857   -8.267462    3.586633
  H     -6.148262   -6.533509    3.099142
  H     -7.355991   -7.711219    2.511567

 Multiplicity           Mult            ....    1
 Number of Electrons    NEL             ....   18
 Basis Dimension        Dim             ....  172

ORBITAL ENERGIES
----------------

  NO   OCC          E(Eh)            E(eV)
   0   2.0000     -19.228186      -523.2255
   1   2.0000     -10.313392      -280.6417
   2   2.0000      -1.128609       -30.7110
   3   2.0000      -0.791799       -21.5459
   4   2.0000      -0.607432       -16.5291
   5   2.0000      -0.541002       -14.7214
   6   2.0000      -0.533056       -14.5052
   7   2.0000      -0.425045       -11.5661
   8   2.0000      -0.370049       -10.0696
   9   0.0000       0.094186         2.5629
  10   0.0000       0.124514         3.3882
  11   0.0000       0.150483         4.0949
  12   0.0000       0.189695         5.1619
  13   0.0000       0.200483         5.4554

MULLIKEN ATOMIC CHARGES
-----------------------
   0 C :    0.000555
   1 O :   -0.003782
   2 H :    0.007828
   3 H :   -0.001319
   4 H :   -0.000469
   5 H :   -0.003667
   6 C :   -0.149487
   7 O :   -0.495700
   8 H :    0.321077
   9 H :    0.119333
  10 H :    0.100988
  11 H :    0.104643
Sum of atomic charges:    0.0000000

LOEWDIN ATOMIC CHARGES
----------------------
   0 C :   -0.006028
   1 O :   -0.005725
   2 H :   -0.046104
   3 H :   -0.000766
   4 H :   -0.000104
   5 H :   -0.001347
   6 C :   -0.378108
   7 O :   -0.050675
   8 H :    0.186445
   9 H :    0.105722
  10 H :    0.097788
  11 H :    0.098902

  Mayer bond orders larger than 0.1
B(  6-C ,  7-O ) :   0.9825 B(  6-C ,  9-H ) :   0.9732 B(  6-C , 10-H ) :   0.9870
B(  6-C , 11-H ) :   0.9752 B(  7-O ,  8-H ) :   0.8896

Dispersion correction           -0.000238845
FINAL SINGLE POINT ENERGY      -115.733857301746

DIPOLE MOMENT
-------------
                                X             Y             Z
Electronic contribution:      1.05054      -0.44820      -1.26198
Nuclear contribution   :     -1.23915       1.08833       1.41622
                        -----------------------------------------
Total Dipole Moment    :     -0.18861       0.64013       0.15424
                        -----------------------------------------
Magnitude (a.u.)       :      0.68493
Magnitude (Debye)      :      1.74095

Rotational constants in cm-1:     4.193742     0.839004     0.807334
Rotational constants in MHz : 125725.230592 25152.705121 24203.261699

                             ****ORCA TERMINATED NORMALLY****
TOTAL RUN TIME: 0 days 0 hours 1 minutes 8 seconds 164 msec
