                         Program Version 4.1.2  - RELEASE  -
|  1> #Run DFT-D3 single point of the dimer
|  2> ! wB97X-D3 def2-TZVP TIGHTSCF CHELPG PMODEL PAL8
|  3>
|  4> %base "21-6_DFT_AB"
|  5>
|  6> %scf
|  7> MaxIter 1000
|  8> end
|  9>
| 10> * xyz 0 1
| 11>   C                      -6.197209            -10.043977           -7.076087
| 12>   O                      -7.192169            -9.113181            -7.459103
| 13>   H                      -7.983588            -9.380507            -7.088494
| 14>   H                      -6.571320            -11.022002           -7.330227
| 15>   H                      -5.260879            -9.809619            -7.601295
| 16>   H                      -5.787484            -10.013825           -6.086584
| 17>   C                      -8.595847            -6.154089            -5.484625
| 18>   O                      -9.426855            -6.482091            -4.449052
| 19>   H                      -8.852341            -7.088361            -3.970164
| 20>   H                      -7.546045            -5.835245            -5.055620
| 21>   H                      -8.455440            -7.067868            -6.005202
| 22>   H                      -8.996814            -5.380698            -6.153007
| 23> *
| 24>
| 25> #Run DFT-D3 single point of the molecule with dimer basis set
| 26> $new_job
| 27> %base "21-6_DFT_A"
| 28> ! wB97X-D3 def2-TZVP TIGHTSCF CHELPG PMODEL
| 29>
| 30> %scf
| 31> MaxIter 1000
| 32> end
| 33>
| 34> * xyz 0 1
| 35>   C                      -6.197209            -10.043977           -7.076087
| 36>   O                      -7.192169            -9.113181            -7.459103
| 37>   H                      -7.983588            -9.380507            -7.088494
| 38>   H                      -6.571320            -11.022002           -7.330227
| 39>   H                      -5.260879            -9.809619            -7.601295
| 40>   H                      -5.787484            -10.013825           -6.086584
| 41>   C                    : -8.595847            -6.154089            -5.484625
| 42>   O                    : -9.426855            -6.482091            -4.449052
| 43>   H                    : -8.852341            -7.088361            -3.970164
| 44>   H                    : -7.546045            -5.835245            -5.055620
| 45>   H                    : -8.455440            -7.067868            -6.005202
| 46>   H                    : -8.996814            -5.380698            -6.153007
| 47> *
| 48>
| 49> #Run DFT-D3 single point of the particle with dimer basis set
| 50> $new_job
| 51> %base "21-6_DFT_B"
| 52> ! wB97X-D3 def2-TZVP TIGHTSCF CHELPG PMODEL
| 53>
| 54> %scf
| 55> MaxIter 1000
| 56> end
| 57>
| 58> * xyz 0 1
| 59>   C                    : -6.197209            -10.043977           -7.076087
| 60>   O                    : -7.192169            -9.113181            -7.459103
| 61>   H                    : -7.983588            -9.380507            -7.088494
| 62>   H                    : -6.571320            -11.022002           -7.330227
| 63>   H                    : -5.260879            -9.809619            -7.601295
| 64>   H                    : -5.787484            -10.013825           -6.086584
| 65>   C                      -8.595847            -6.154089            -5.484625
| 66>   O                      -9.426855            -6.482091            -4.449052
| 67>   H                      -8.852341            -7.088361            -3.970164
| 68>   H                      -7.546045            -5.835245            -5.055620
| 69>   H                      -8.455440            -7.067868            -6.005202
| 70>   H                      -8.996814            -5.380698            -6.153007
| 71> *
| 72>
| 73>                          ****END OF INPUT****
 Total Charge           Charge          ....    0
 Multiplicity           Mult            ....    1
 Number of Electrons    NEL             ....   36
Dispersion correction           -0.001214084
FINAL SINGLE POINT ENERGY      -231.454369029641
Dispersion correction           -0.000241853
FINAL SINGLE POINT ENERGY      -115.729045821338

CARTESIAN COORDINATES (ANGSTROEM)
---------------------------------
  C     -6.197209  -10.043977   -7.076087
  O     -7.192169   -9.113181   -7.459103
  H     -7.983588   -9.380507   -7.088494
  H     -6.571320  -11.022002   -7.330227
  H     -5.260879   -9.809619   -7.601295
  H     -5.787484  -10.013825   -6.086584
  C     -8.595847   -6.154089   -5.484625
  O     -9.426855   -6.482091   -4.449052
  H     -8.852341   -7.088361   -3.970164
  H     -7.546045   -5.835245   -5.055620
  H     -8.455440   -7.067868   -6.005202
  H     -8.996814   -5.380698   -6.153007

 Multiplicity           Mult            ....    1
 Number of Electrons    NEL             ....   18
 Basis Dimension        Dim             ....  172

ORBITAL ENERGIES
----------------

  NO   OCC          E(Eh)            E(eV)
   0   2.0000     -19.230095      -523.2775
   1   2.0000     -10.315779      -280.7066
   2   2.0000      -1.158359       -31.5206
   3   2.0000      -0.783807       -21.3285
   4   2.0000      -0.617257       -16.7964
   5   2.0000      -0.549466       -14.9517
   6   2.0000      -0.535600       -14.5744
   7   2.0000      -0.436894       -11.8885
   8   2.0000      -0.365792        -9.9537
   9   0.0000       0.079928         2.1749
  10   0.0000       0.113942         3.1005
  11   0.0000       0.154803         4.2124
  12   0.0000       0.165409         4.5010
  13   0.0000       0.190938         5.1957

MULLIKEN ATOMIC CHARGES
-----------------------
   0 C :   -0.000652
   1 O :   -0.000458
   2 H :    0.000557
   3 H :    0.000012
   4 H :    0.000018
   5 H :    0.000002
   6 C :   -0.172148
   7 O :   -0.452203
   8 H :    0.318430
   9 H :    0.083195
  10 H :    0.104505
  11 H :    0.118742
Sum of atomic charges:   -0.0000000

LOEWDIN ATOMIC CHARGES
----------------------
   0 C :   -0.000400
   1 O :   -0.002768
   2 H :   -0.002387
   3 H :   -0.000005
   4 H :   -0.000007
   5 H :   -0.000023
   6 C :   -0.428115
   7 O :   -0.046980
   8 H :    0.181540
   9 H :    0.102517
  10 H :    0.088897
  11 H :    0.107731

  Mayer bond orders larger than 0.1
B(  6-C ,  7-O ) :   0.9869 B(  6-C ,  9-H ) :   0.9813 B(  6-C , 10-H ) :   0.9890
B(  6-C , 11-H ) :   0.9663 B(  7-O ,  8-H ) :   0.8993

Dispersion correction           -0.000189814
FINAL SINGLE POINT ENERGY      -115.724544169374

DIPOLE MOMENT
-------------
                                X             Y             Z
Electronic contribution:     -1.38145      -0.26376       1.22128
Nuclear contribution   :      1.98764      -0.00734      -1.31433
                        -----------------------------------------
Total Dipole Moment    :      0.60619      -0.27110      -0.09305
                        -----------------------------------------
Magnitude (a.u.)       :      0.67053
Magnitude (Debye)      :      1.70436

Rotational constants in cm-1:     4.055220     0.897209     0.852896
Rotational constants in MHz : 121572.422542 26897.645265 25569.189049

                             ****ORCA TERMINATED NORMALLY****
TOTAL RUN TIME: 0 days 0 hours 1 minutes 5 seconds 300 msec
