                         Program Version 4.1.2  - RELEASE  -
|  1> #Run DFT-D3 single point of the dimer
|  2> ! wB97X-D3 def2-TZVP TIGHTSCF CHELPG PMODEL PAL8
|  3>
|  4> %base "13-147_DFT_AB"
|  5>
|  6> %scf
|  7> MaxIter 1000
|  8> end
|  9>
| 10> * xyz 0 1
| 11>   C                      -10.222836           8.222040             -1.314980
| 12>   O                      -9.311791            9.275276             -1.196687
| 13>   H                      -9.311907            9.779786             -2.046331
| 14>   H                      -10.054885           7.518585             -0.468699
| 15>   H                      -11.220995           8.539952             -1.155101
| 16>   H                      -10.093888           7.611349             -2.239045
| 17>   C                      -4.955943            11.055564            -0.906676
| 18>   O                      -5.161071            10.746002            0.501768
| 19>   H                      -6.011560            10.392398            0.558272
| 20>   H                      -4.056468            10.651569            -1.359279
| 21>   H                      -5.868463            10.732974            -1.433788
| 22>   H                      -5.043970            12.151327            -1.097442
| 23> *
| 24>
| 25> #Run DFT-D3 single point of the molecule with dimer basis set
| 26> $new_job
| 27> %base "13-147_DFT_A"
| 28> ! wB97X-D3 def2-TZVP TIGHTSCF CHELPG PMODEL
| 29>
| 30> %scf
| 31> MaxIter 1000
| 32> end
| 33>
| 34> * xyz 0 1
| 35>   C                      -10.222836           8.222040             -1.314980
| 36>   O                      -9.311791            9.275276             -1.196687
| 37>   H                      -9.311907            9.779786             -2.046331
| 38>   H                      -10.054885           7.518585             -0.468699
| 39>   H                      -11.220995           8.539952             -1.155101
| 40>   H                      -10.093888           7.611349             -2.239045
| 41>   C                    : -4.955943            11.055564            -0.906676
| 42>   O                    : -5.161071            10.746002            0.501768
| 43>   H                    : -6.011560            10.392398            0.558272
| 44>   H                    : -4.056468            10.651569            -1.359279
| 45>   H                    : -5.868463            10.732974            -1.433788
| 46>   H                    : -5.043970            12.151327            -1.097442
| 47> *
| 48>
| 49> #Run DFT-D3 single point of the particle with dimer basis set
| 50> $new_job
| 51> %base "13-147_DFT_B"
| 52> ! wB97X-D3 def2-TZVP TIGHTSCF CHELPG PMODEL
| 53>
| 54> %scf
| 55> MaxIter 1000
| 56> end
| 57>
| 58> * xyz 0 1
| 59>   C                    : -10.222836           8.222040             -1.314980
| 60>   O                    : -9.311791            9.275276             -1.196687
| 61>   H                    : -9.311907            9.779786             -2.046331
| 62>   H                    : -10.054885           7.518585             -0.468699
| 63>   H                    : -11.220995           8.539952             -1.155101
| 64>   H                    : -10.093888           7.611349             -2.239045
| 65>   C                      -4.955943            11.055564            -0.906676
| 66>   O                      -5.161071            10.746002            0.501768
| 67>   H                      -6.011560            10.392398            0.558272
| 68>   H                      -4.056468            10.651569            -1.359279
| 69>   H                      -5.868463            10.732974            -1.433788
| 70>   H                      -5.043970            12.151327            -1.097442
| 71> *
| 72>
| 73>                          ****END OF INPUT****
 Total Charge           Charge          ....    0
 Multiplicity           Mult            ....    1
 Number of Electrons    NEL             ....   36
Dispersion correction           -0.000836128
FINAL SINGLE POINT ENERGY      -231.463693344988
Dispersion correction           -0.000244730
FINAL SINGLE POINT ENERGY      -115.733873564100

CARTESIAN COORDINATES (ANGSTROEM)
---------------------------------
  C    -10.222836    8.222040   -1.314980
  O     -9.311791    9.275276   -1.196687
  H     -9.311907    9.779786   -2.046331
  H    -10.054885    7.518585   -0.468699
  H    -11.220995    8.539952   -1.155101
  H    -10.093888    7.611349   -2.239045
  C     -4.955943   11.055564   -0.906676
  O     -5.161071   10.746002    0.501768
  H     -6.011560   10.392398    0.558272
  H     -4.056468   10.651569   -1.359279
  H     -5.868463   10.732974   -1.433788
  H     -5.043970   12.151327   -1.097442

 Multiplicity           Mult            ....    1
 Number of Electrons    NEL             ....   18
 Basis Dimension        Dim             ....  172

ORBITAL ENERGIES
----------------

  NO   OCC          E(Eh)            E(eV)
   0   2.0000     -19.227569      -523.2088
   1   2.0000     -10.320670      -280.8397
   2   2.0000      -1.133746       -30.8508
   3   2.0000      -0.798513       -21.7287
   4   2.0000      -0.609215       -16.5776
   5   2.0000      -0.543107       -14.7787
   6   2.0000      -0.521115       -14.1803
   7   2.0000      -0.434162       -11.8142
   8   2.0000      -0.377263       -10.2659
   9   0.0000       0.075528         2.0552
  10   0.0000       0.111228         3.0267
  11   0.0000       0.148391         4.0379
  12   0.0000       0.164027         4.4634
  13   0.0000       0.191434         5.2092

MULLIKEN ATOMIC CHARGES
-----------------------
   0 C :    0.000003
   1 O :   -0.000004
   2 H :   -0.000076
   3 H :    0.000001
   4 H :   -0.000001
   5 H :   -0.000001
   6 C :   -0.182005
   7 O :   -0.467001
   8 H :    0.308925
   9 H :    0.125529
  10 H :    0.105779
  11 H :    0.108851
Sum of atomic charges:    0.0000000

LOEWDIN ATOMIC CHARGES
----------------------
   0 C :   -0.000010
   1 O :   -0.000104
   2 H :   -0.000164
   3 H :   -0.000000
   4 H :   -0.000000
   5 H :   -0.000000
   6 C :   -0.356921
   7 O :   -0.089501
   8 H :    0.141804
   9 H :    0.100674
  10 H :    0.100489
  11 H :    0.103733

  Mayer bond orders larger than 0.1
B(  6-C ,  7-O ) :   1.0061 B(  6-C ,  9-H ) :   0.9684 B(  6-C , 10-H ) :   0.9918
B(  6-C , 11-H ) :   0.9707 B(  7-O ,  8-H ) :   0.9115

Dispersion correction           -0.000258377
FINAL SINGLE POINT ENERGY      -115.728136300687

DIPOLE MOMENT
-------------
                                X             Y             Z
Electronic contribution:      0.06846      -0.44226       1.82468
Nuclear contribution   :     -0.56524       0.33679      -2.38732
                        -----------------------------------------
Total Dipole Moment    :     -0.49679      -0.10547      -0.56264
                        -----------------------------------------
Magnitude (a.u.)       :      0.75795
Magnitude (Debye)      :      1.92655

Rotational constants in cm-1:     4.331195     0.792043     0.765780
Rotational constants in MHz : 129845.945589 23744.851016 22957.492133

                             ****ORCA TERMINATED NORMALLY****
TOTAL RUN TIME: 0 days 0 hours 0 minutes 55 seconds 995 msec
