                         Program Version 4.1.2  - RELEASE  -
|  1> #Run DFT-D3 single point of the dimer
|  2> ! wB97X-D3 def2-TZVP TIGHTSCF CHELPG PMODEL PAL8
|  3>
|  4> %base "14-117_DFT_AB"
|  5>
|  6> %scf
|  7> MaxIter 1000
|  8> end
|  9>
| 10> * xyz 0 1
| 11>   C                      -3.307224            -8.265760            -8.116430
| 12>   O                      -2.245746            -8.230731            -7.104452
| 13>   H                      -2.675553            -8.615451            -6.387941
| 14>   H                      -3.365377            -9.278434            -8.597574
| 15>   H                      -4.354667            -8.109546            -7.761746
| 16>   H                      -3.089242            -7.494867            -8.978860
| 17>   C                      1.991377             -8.790628            -5.001181
| 18>   O                      1.083438             -9.922957            -4.983898
| 19>   H                      1.557462             -10.720434           -4.807969
| 20>   H                      1.465229             -7.924488            -5.489104
| 21>   H                      2.321714             -8.437069            -4.029758
| 22>   H                      2.848123             -8.985034            -5.668499
| 23> *
| 24>
| 25> #Run DFT-D3 single point of the molecule with dimer basis set
| 26> $new_job
| 27> %base "14-117_DFT_A"
| 28> ! wB97X-D3 def2-TZVP TIGHTSCF CHELPG PMODEL
| 29>
| 30> %scf
| 31> MaxIter 1000
| 32> end
| 33>
| 34> * xyz 0 1
| 35>   C                      -3.307224            -8.265760            -8.116430
| 36>   O                      -2.245746            -8.230731            -7.104452
| 37>   H                      -2.675553            -8.615451            -6.387941
| 38>   H                      -3.365377            -9.278434            -8.597574
| 39>   H                      -4.354667            -8.109546            -7.761746
| 40>   H                      -3.089242            -7.494867            -8.978860
| 41>   C                    : 1.991377             -8.790628            -5.001181
| 42>   O                    : 1.083438             -9.922957            -4.983898
| 43>   H                    : 1.557462             -10.720434           -4.807969
| 44>   H                    : 1.465229             -7.924488            -5.489104
| 45>   H                    : 2.321714             -8.437069            -4.029758
| 46>   H                    : 2.848123             -8.985034            -5.668499
| 47> *
| 48>
| 49> #Run DFT-D3 single point of the particle with dimer basis set
| 50> $new_job
| 51> %base "14-117_DFT_B"
| 52> ! wB97X-D3 def2-TZVP TIGHTSCF CHELPG PMODEL
| 53>
| 54> %scf
| 55> MaxIter 1000
| 56> end
| 57>
| 58> * xyz 0 1
| 59>   C                    : -3.307224            -8.265760            -8.116430
| 60>   O                    : -2.245746            -8.230731            -7.104452
| 61>   H                    : -2.675553            -8.615451            -6.387941
| 62>   H                    : -3.365377            -9.278434            -8.597574
| 63>   H                    : -4.354667            -8.109546            -7.761746
| 64>   H                    : -3.089242            -7.494867            -8.978860
| 65>   C                      1.991377             -8.790628            -5.001181
| 66>   O                      1.083438             -9.922957            -4.983898
| 67>   H                      1.557462             -10.720434           -4.807969
| 68>   H                      1.465229             -7.924488            -5.489104
| 69>   H                      2.321714             -8.437069            -4.029758
| 70>   H                      2.848123             -8.985034            -5.668499
| 71> *
| 72>
| 73>                          ****END OF INPUT****
 Total Charge           Charge          ....    0
 Multiplicity           Mult            ....    1
 Number of Electrons    NEL             ....   36
Dispersion correction           -0.000807054
FINAL SINGLE POINT ENERGY      -231.459629930470
Dispersion correction           -0.000281296
FINAL SINGLE POINT ENERGY      -115.725437014209

CARTESIAN COORDINATES (ANGSTROEM)
---------------------------------
  C     -3.307224   -8.265760   -8.116430
  O     -2.245746   -8.230731   -7.104452
  H     -2.675553   -8.615451   -6.387941
  H     -3.365377   -9.278434   -8.597574
  H     -4.354667   -8.109546   -7.761746
  H     -3.089242   -7.494867   -8.978860
  C      1.991377   -8.790628   -5.001181
  O      1.083438   -9.922957   -4.983898
  H      1.557462  -10.720434   -4.807969
  H      1.465229   -7.924488   -5.489104
  H      2.321714   -8.437069   -4.029758
  H      2.848123   -8.985034   -5.668499

 Multiplicity           Mult            ....    1
 Number of Electrons    NEL             ....   18
 Basis Dimension        Dim             ....  172

ORBITAL ENERGIES
----------------

  NO   OCC          E(Eh)            E(eV)
   0   2.0000     -19.229164      -523.2521
   1   2.0000     -10.320177      -280.8263
   2   2.0000      -1.127031       -30.6681
   3   2.0000      -0.797628       -21.7046
   4   2.0000      -0.605684       -16.4815
   5   2.0000      -0.541677       -14.7398
   6   2.0000      -0.517657       -14.0862
   7   2.0000      -0.429761       -11.6944
   8   2.0000      -0.378500       -10.2995
   9   0.0000       0.092213         2.5093
  10   0.0000       0.117631         3.2009
  11   0.0000       0.149362         4.0644
  12   0.0000       0.168982         4.5982
  13   0.0000       0.193726         5.2716

MULLIKEN ATOMIC CHARGES
-----------------------
   0 C :    0.000005
   1 O :   -0.000088
   2 H :   -0.000304
   3 H :   -0.000003
   4 H :   -0.000000
   5 H :    0.000001
   6 C :   -0.162945
   7 O :   -0.479800
   8 H :    0.311406
   9 H :    0.119896
  10 H :    0.104609
  11 H :    0.107224
Sum of atomic charges:   -0.0000000

LOEWDIN ATOMIC CHARGES
----------------------
   0 C :   -0.000008
   1 O :   -0.000085
   2 H :   -0.000157
   3 H :   -0.000000
   4 H :   -0.000000
   5 H :   -0.000000
   6 C :   -0.362611
   7 O :   -0.096143
   8 H :    0.153723
   9 H :    0.115554
  10 H :    0.091695
  11 H :    0.098033

  Mayer bond orders larger than 0.1
B(  6-C ,  7-O ) :   0.9980 B(  6-C ,  9-H ) :   0.9752 B(  6-C , 10-H ) :   0.9681
B(  6-C , 11-H ) :   0.9783 B(  7-O ,  8-H ) :   0.9029

Dispersion correction           -0.000275136
FINAL SINGLE POINT ENERGY      -115.734176343974

DIPOLE MOMENT
-------------
                                X             Y             Z
Electronic contribution:     -1.18906      -1.40485       0.11787
Nuclear contribution   :      1.88063       1.37196      -0.02456
                        -----------------------------------------
Total Dipole Moment    :      0.69157      -0.03290       0.09331
                        -----------------------------------------
Magnitude (a.u.)       :      0.69862
Magnitude (Debye)      :      1.77574

Rotational constants in cm-1:     4.327113     0.786017     0.764540
Rotational constants in MHz : 129723.572321 23564.194755 22920.338361

                             ****ORCA TERMINATED NORMALLY****
TOTAL RUN TIME: 0 days 0 hours 1 minutes 2 seconds 503 msec
