                         Program Version 4.1.2  - RELEASE  -
|  1> #Run DFT-D3 single point of the dimer
|  2> ! wB97X-D3 def2-TZVP TIGHTSCF CHELPG PMODEL PAL8
|  3>
|  4> %base "18-139_DFT_AB"
|  5>
|  6> %scf
|  7> MaxIter 1000
|  8> end
|  9>
| 10> * xyz 0 1
| 11>   C                      2.523888             4.676657             7.090738
| 12>   O                      2.566897             6.070124             6.773619
| 13>   H                      1.949694             6.599378             7.303895
| 14>   H                      3.367195             4.206097             6.586594
| 15>   H                      2.634672             4.644139             8.164876
| 16>   H                      1.636308             4.135860             6.734283
| 17>   C                      4.100286             2.419518             4.578838
| 18>   O                      4.571700             3.775638             4.629194
| 19>   H                      3.838929             4.233463             4.255375
| 20>   H                      3.081155             2.408276             4.861014
| 21>   H                      4.080533             1.920868             3.605897
| 22>   H                      4.727841             1.750703             5.215968
| 23> *
| 24>
| 25> #Run DFT-D3 single point of the molecule with dimer basis set
| 26> $new_job
| 27> %base "18-139_DFT_A"
| 28> ! wB97X-D3 def2-TZVP TIGHTSCF CHELPG PMODEL
| 29>
| 30> %scf
| 31> MaxIter 1000
| 32> end
| 33>
| 34> * xyz 0 1
| 35>   C                      2.523888             4.676657             7.090738
| 36>   O                      2.566897             6.070124             6.773619
| 37>   H                      1.949694             6.599378             7.303895
| 38>   H                      3.367195             4.206097             6.586594
| 39>   H                      2.634672             4.644139             8.164876
| 40>   H                      1.636308             4.135860             6.734283
| 41>   C                    : 4.100286             2.419518             4.578838
| 42>   O                    : 4.571700             3.775638             4.629194
| 43>   H                    : 3.838929             4.233463             4.255375
| 44>   H                    : 3.081155             2.408276             4.861014
| 45>   H                    : 4.080533             1.920868             3.605897
| 46>   H                    : 4.727841             1.750703             5.215968
| 47> *
| 48>
| 49> #Run DFT-D3 single point of the particle with dimer basis set
| 50> $new_job
| 51> %base "18-139_DFT_B"
| 52> ! wB97X-D3 def2-TZVP TIGHTSCF CHELPG PMODEL
| 53>
| 54> %scf
| 55> MaxIter 1000
| 56> end
| 57>
| 58> * xyz 0 1
| 59>   C                    : 2.523888             4.676657             7.090738
| 60>   O                    : 2.566897             6.070124             6.773619
| 61>   H                    : 1.949694             6.599378             7.303895
| 62>   H                    : 3.367195             4.206097             6.586594
| 63>   H                    : 2.634672             4.644139             8.164876
| 64>   H                    : 1.636308             4.135860             6.734283
| 65>   C                      4.100286             2.419518             4.578838
| 66>   O                      4.571700             3.775638             4.629194
| 67>   H                      3.838929             4.233463             4.255375
| 68>   H                      3.081155             2.408276             4.861014
| 69>   H                      4.080533             1.920868             3.605897
| 70>   H                      4.727841             1.750703             5.215968
| 71> *
| 72>
| 73>                          ****END OF INPUT****
 Total Charge           Charge          ....    0
 Multiplicity           Mult            ....    1
 Number of Electrons    NEL             ....   36
Dispersion correction           -0.001897965
FINAL SINGLE POINT ENERGY      -231.466062341618
Dispersion correction           -0.000249218
FINAL SINGLE POINT ENERGY      -115.733724348859

CARTESIAN COORDINATES (ANGSTROEM)
---------------------------------
  C      2.523888    4.676657    7.090738
  O      2.566897    6.070124    6.773619
  H      1.949694    6.599378    7.303895
  H      3.367195    4.206097    6.586594
  H      2.634672    4.644139    8.164876
  H      1.636308    4.135860    6.734283
  C      4.100286    2.419518    4.578838
  O      4.571700    3.775638    4.629194
  H      3.838929    4.233463    4.255375
  H      3.081155    2.408276    4.861014
  H      4.080533    1.920868    3.605897
  H      4.727841    1.750703    5.215968

 Multiplicity           Mult            ....    1
 Number of Electrons    NEL             ....   18
 Basis Dimension        Dim             ....  172

ORBITAL ENERGIES
----------------

  NO   OCC          E(Eh)            E(eV)
   0   2.0000     -19.234254      -523.3907
   1   2.0000     -10.314732      -280.6781
   2   2.0000      -1.140446       -31.0331
   3   2.0000      -0.798233       -21.7210
   4   2.0000      -0.615072       -16.7369
   5   2.0000      -0.539919       -14.6920
   6   2.0000      -0.520511       -14.1638
   7   2.0000      -0.449374       -12.2281
   8   2.0000      -0.375940       -10.2298
   9   0.0000       0.085241         2.3195
  10   0.0000       0.129003         3.5103
  11   0.0000       0.147715         4.0195
  12   0.0000       0.175055         4.7635
  13   0.0000       0.185581         5.0499

MULLIKEN ATOMIC CHARGES
-----------------------
   0 C :   -0.009277
   1 O :    0.001025
   2 H :    0.000044
   3 H :   -0.002719
   4 H :   -0.000522
   5 H :    0.000937
   6 C :   -0.188182
   7 O :   -0.455380
   8 H :    0.310897
   9 H :    0.112655
  10 H :    0.110913
  11 H :    0.119608
Sum of atomic charges:   -0.0000000

LOEWDIN ATOMIC CHARGES
----------------------
   0 C :   -0.009734
   1 O :   -0.000319
   2 H :   -0.000020
   3 H :   -0.016963
   4 H :   -0.000123
   5 H :   -0.000614
   6 C :   -0.370490
   7 O :   -0.061370
   8 H :    0.160138
   9 H :    0.090322
  10 H :    0.095433
  11 H :    0.113741

  Mayer bond orders larger than 0.1
B(  6-C ,  7-O ) :   0.9858 B(  6-C ,  9-H ) :   0.9854 B(  6-C , 10-H ) :   0.9661
B(  6-C , 11-H ) :   0.9792 B(  7-O ,  8-H ) :   0.9084

Dispersion correction           -0.000238390
FINAL SINGLE POINT ENERGY      -115.731023142949

DIPOLE MOMENT
-------------
                                X             Y             Z
Electronic contribution:      0.77759       1.74656       0.14010
Nuclear contribution   :     -1.43120      -2.01035      -0.40307
                        -----------------------------------------
Total Dipole Moment    :     -0.65361      -0.26379      -0.26297
                        -----------------------------------------
Magnitude (a.u.)       :      0.75230
Magnitude (Debye)      :      1.91218

Rotational constants in cm-1:     4.391122     0.818513     0.777913
Rotational constants in MHz : 131642.512252 24538.400446 23321.246199

                             ****ORCA TERMINATED NORMALLY****
TOTAL RUN TIME: 0 days 0 hours 0 minutes 55 seconds 491 msec
