                         Program Version 4.1.2  - RELEASE  -
|  1> #Run DFT-D3 single point of the dimer
|  2> ! wB97X-D3 def2-TZVP TIGHTSCF CHELPG PMODEL PAL8
|  3>
|  4> %base "16-6_DFT_AB"
|  5>
|  6> %scf
|  7> MaxIter 1000
|  8> end
|  9>
| 10> * xyz 0 1
| 11>   C                      -3.613576            2.949622             3.934506
| 12>   O                      -3.601508            3.698823             5.159507
| 13>   H                      -2.638820            3.713132             5.390762
| 14>   H                      -2.909974            3.467466             3.239017
| 15>   H                      -3.265800            1.935287             3.994618
| 16>   H                      -4.596142            2.930245             3.440482
| 17>   C                      -2.267208            6.279106             2.973919
| 18>   O                      -3.400082            5.746120             2.323222
| 19>   H                      -3.074221            5.322488             1.486952
| 20>   H                      -1.617773            5.410425             3.049809
| 21>   H                      -1.855328            7.068574             2.415175
| 22>   H                      -2.500357            6.573701             4.022513
| 23> *
| 24>
| 25> #Run DFT-D3 single point of the molecule with dimer basis set
| 26> $new_job
| 27> %base "16-6_DFT_A"
| 28> ! wB97X-D3 def2-TZVP TIGHTSCF CHELPG PMODEL
| 29>
| 30> %scf
| 31> MaxIter 1000
| 32> end
| 33>
| 34> * xyz 0 1
| 35>   C                      -3.613576            2.949622             3.934506
| 36>   O                      -3.601508            3.698823             5.159507
| 37>   H                      -2.638820            3.713132             5.390762
| 38>   H                      -2.909974            3.467466             3.239017
| 39>   H                      -3.265800            1.935287             3.994618
| 40>   H                      -4.596142            2.930245             3.440482
| 41>   C                    : -2.267208            6.279106             2.973919
| 42>   O                    : -3.400082            5.746120             2.323222
| 43>   H                    : -3.074221            5.322488             1.486952
| 44>   H                    : -1.617773            5.410425             3.049809
| 45>   H                    : -1.855328            7.068574             2.415175
| 46>   H                    : -2.500357            6.573701             4.022513
| 47> *
| 48>
| 49> #Run DFT-D3 single point of the particle with dimer basis set
| 50> $new_job
| 51> %base "16-6_DFT_B"
| 52> ! wB97X-D3 def2-TZVP TIGHTSCF CHELPG PMODEL
| 53>
| 54> %scf
| 55> MaxIter 1000
| 56> end
| 57>
| 58> * xyz 0 1
| 59>   C                    : -3.613576            2.949622             3.934506
| 60>   O                    : -3.601508            3.698823             5.159507
| 61>   H                    : -2.638820            3.713132             5.390762
| 62>   H                    : -2.909974            3.467466             3.239017
| 63>   H                    : -3.265800            1.935287             3.994618
| 64>   H                    : -4.596142            2.930245             3.440482
| 65>   C                      -2.267208            6.279106             2.973919
| 66>   O                      -3.400082            5.746120             2.323222
| 67>   H                      -3.074221            5.322488             1.486952
| 68>   H                      -1.617773            5.410425             3.049809
| 69>   H                      -1.855328            7.068574             2.415175
| 70>   H                      -2.500357            6.573701             4.022513
| 71> *
| 72>
| 73>                          ****END OF INPUT****
 Total Charge           Charge          ....    0
 Multiplicity           Mult            ....    1
 Number of Electrons    NEL             ....   36
Dispersion correction           -0.002265999
FINAL SINGLE POINT ENERGY      -231.462505089632
Dispersion correction           -0.000238810
FINAL SINGLE POINT ENERGY      -115.732419701190

CARTESIAN COORDINATES (ANGSTROEM)
---------------------------------
  C     -3.613576    2.949622    3.934506
  O     -3.601508    3.698823    5.159507
  H     -2.638820    3.713132    5.390762
  H     -2.909974    3.467466    3.239017
  H     -3.265800    1.935287    3.994618
  H     -4.596142    2.930245    3.440482
  C     -2.267208    6.279106    2.973919
  O     -3.400082    5.746120    2.323222
  H     -3.074221    5.322488    1.486952
  H     -1.617773    5.410425    3.049809
  H     -1.855328    7.068574    2.415175
  H     -2.500357    6.573701    4.022513

 Multiplicity           Mult            ....    1
 Number of Electrons    NEL             ....   18
 Basis Dimension        Dim             ....  172

ORBITAL ENERGIES
----------------

  NO   OCC          E(Eh)            E(eV)
   0   2.0000     -19.228691      -523.2393
   1   2.0000     -10.309263      -280.5293
   2   2.0000      -1.131308       -30.7845
   3   2.0000      -0.791643       -21.5417
   4   2.0000      -0.603242       -16.4150
   5   2.0000      -0.556802       -15.1514
   6   2.0000      -0.527278       -14.3480
   7   2.0000      -0.426672       -11.6103
   8   2.0000      -0.370727       -10.0880
   9   0.0000       0.089671         2.4401
  10   0.0000       0.125240         3.4079
  11   0.0000       0.148030         4.0281
  12   0.0000       0.183369         4.9897
  13   0.0000       0.191861         5.2208

MULLIKEN ATOMIC CHARGES
-----------------------
   0 C :    0.016748
   1 O :   -0.001192
   2 H :   -0.000416
   3 H :   -0.020281
   4 H :   -0.000730
   5 H :   -0.003299
   6 C :   -0.162603
   7 O :   -0.480763
   8 H :    0.317362
   9 H :    0.104622
  10 H :    0.115868
  11 H :    0.114684
Sum of atomic charges:   -0.0000000

LOEWDIN ATOMIC CHARGES
----------------------
   0 C :   -0.013004
   1 O :   -0.000479
   2 H :   -0.000548
   3 H :   -0.011420
   4 H :   -0.000146
   5 H :   -0.001668
   6 C :   -0.381338
   7 O :   -0.079114
   8 H :    0.188824
   9 H :    0.098694
  10 H :    0.086531
  11 H :    0.113667

  Mayer bond orders larger than 0.1
B(  6-C ,  7-O ) :   0.9761 B(  6-C ,  9-H ) :   0.9946 B(  6-C , 10-H ) :   0.9745
B(  6-C , 11-H ) :   0.9721 B(  7-O ,  8-H ) :   0.8930

Dispersion correction           -0.000208456
FINAL SINGLE POINT ENERGY      -115.730473979055

DIPOLE MOMENT
-------------
                                X             Y             Z
Electronic contribution:     -1.47527      -0.42537      -0.71295
Nuclear contribution   :      2.13170       0.38719       0.45935
                        -----------------------------------------
Total Dipole Moment    :      0.65643      -0.03817      -0.25359
                        -----------------------------------------
Magnitude (a.u.)       :      0.70475
Magnitude (Debye)      :      1.79132

Rotational constants in cm-1:     4.206711     0.846573     0.815925
Rotational constants in MHz : 126114.015221 25379.610499 24460.805760

                             ****ORCA TERMINATED NORMALLY****
TOTAL RUN TIME: 0 days 0 hours 1 minutes 3 seconds 663 msec
