                         Program Version 4.1.2  - RELEASE  -
|  1> #Run DFT-D3 single point of the dimer
|  2> ! wB97X-D3 def2-TZVP TIGHTSCF CHELPG PMODEL PAL8
|  3>
|  4> %base "1-153_DFT_AB"
|  5>
|  6> %scf
|  7> MaxIter 1000
|  8> end
|  9>
| 10> * xyz 0 1
| 11>   C                      1.559900             -2.722183            -4.387843
| 12>   O                      1.024097             -3.110512            -3.120615
| 13>   H                      0.241665             -2.671256            -2.909754
| 14>   H                      2.034390             -3.613840            -4.841094
| 15>   H                      0.813583             -2.312463            -5.113704
| 16>   H                      2.363234             -2.014412            -4.232848
| 17>   C                      3.949247             -5.063685            -2.075325
| 18>   O                      3.851596             -3.781010            -1.452229
| 19>   H                      4.393191             -3.186122            -1.967115
| 20>   H                      3.015160             -5.583303            -2.177818
| 21>   H                      4.433456             -5.015239            -3.024332
| 22>   H                      4.566095             -5.591695            -1.365824
| 23> *
| 24>
| 25> #Run DFT-D3 single point of the molecule with dimer basis set
| 26> $new_job
| 27> %base "1-153_DFT_A"
| 28> ! wB97X-D3 def2-TZVP TIGHTSCF CHELPG PMODEL
| 29>
| 30> %scf
| 31> MaxIter 1000
| 32> end
| 33>
| 34> * xyz 0 1
| 35>   C                      1.559900             -2.722183            -4.387843
| 36>   O                      1.024097             -3.110512            -3.120615
| 37>   H                      0.241665             -2.671256            -2.909754
| 38>   H                      2.034390             -3.613840            -4.841094
| 39>   H                      0.813583             -2.312463            -5.113704
| 40>   H                      2.363234             -2.014412            -4.232848
| 41>   C                    : 3.949247             -5.063685            -2.075325
| 42>   O                    : 3.851596             -3.781010            -1.452229
| 43>   H                    : 4.393191             -3.186122            -1.967115
| 44>   H                    : 3.015160             -5.583303            -2.177818
| 45>   H                    : 4.433456             -5.015239            -3.024332
| 46>   H                    : 4.566095             -5.591695            -1.365824
| 47> *
| 48>
| 49> #Run DFT-D3 single point of the particle with dimer basis set
| 50> $new_job
| 51> %base "1-153_DFT_B"
| 52> ! wB97X-D3 def2-TZVP TIGHTSCF CHELPG PMODEL
| 53>
| 54> %scf
| 55> MaxIter 1000
| 56> end
| 57>
| 58> * xyz 0 1
| 59>   C                    : 1.559900             -2.722183            -4.387843
| 60>   O                    : 1.024097             -3.110512            -3.120615
| 61>   H                    : 0.241665             -2.671256            -2.909754
| 62>   H                    : 2.034390             -3.613840            -4.841094
| 63>   H                    : 0.813583             -2.312463            -5.113704
| 64>   H                    : 2.363234             -2.014412            -4.232848
| 65>   C                      3.949247             -5.063685            -2.075325
| 66>   O                      3.851596             -3.781010            -1.452229
| 67>   H                      4.393191             -3.186122            -1.967115
| 68>   H                      3.015160             -5.583303            -2.177818
| 69>   H                      4.433456             -5.015239            -3.024332
| 70>   H                      4.566095             -5.591695            -1.365824
| 71> *
| 72>
| 73>                          ****END OF INPUT****
 Total Charge           Charge          ....    0
 Multiplicity           Mult            ....    1
 Number of Electrons    NEL             ....   36
Dispersion correction           -0.001843018
FINAL SINGLE POINT ENERGY      -231.464125186374
Dispersion correction           -0.000266855
FINAL SINGLE POINT ENERGY      -115.733647791385

CARTESIAN COORDINATES (ANGSTROEM)
---------------------------------
  C      1.559900   -2.722183   -4.387843
  O      1.024097   -3.110512   -3.120615
  H      0.241665   -2.671256   -2.909754
  H      2.034390   -3.613840   -4.841094
  H      0.813583   -2.312463   -5.113704
  H      2.363234   -2.014412   -4.232848
  C      3.949247   -5.063685   -2.075325
  O      3.851596   -3.781010   -1.452229
  H      4.393191   -3.186122   -1.967115
  H      3.015160   -5.583303   -2.177818
  H      4.433456   -5.015239   -3.024332
  H      4.566095   -5.591695   -1.365824

 Multiplicity           Mult            ....    1
 Number of Electrons    NEL             ....   18
 Basis Dimension        Dim             ....  172

ORBITAL ENERGIES
----------------

  NO   OCC          E(Eh)            E(eV)
   0   2.0000     -19.226665      -523.1842
   1   2.0000     -10.306831      -280.4631
   2   2.0000      -1.132499       -30.8169
   3   2.0000      -0.799500       -21.7555
   4   2.0000      -0.611014       -16.6265
   5   2.0000      -0.544138       -14.8068
   6   2.0000      -0.526694       -14.3321
   7   2.0000      -0.439777       -11.9670
   8   2.0000      -0.369851       -10.0642
   9   0.0000       0.081476         2.2171
  10   0.0000       0.125336         3.4106
  11   0.0000       0.152013         4.1365
  12   0.0000       0.165516         4.5039
  13   0.0000       0.194396         5.2898

MULLIKEN ATOMIC CHARGES
-----------------------
   0 C :   -0.004153
   1 O :    0.000937
   2 H :    0.000026
   3 H :    0.000092
   4 H :   -0.000244
   5 H :   -0.001206
   6 C :   -0.178912
   7 O :   -0.478842
   8 H :    0.313059
   9 H :    0.118136
  10 H :    0.112204
  11 H :    0.118902
Sum of atomic charges:    0.0000000

LOEWDIN ATOMIC CHARGES
----------------------
   0 C :   -0.003163
   1 O :   -0.002502
   2 H :   -0.000217
   3 H :   -0.000304
   4 H :   -0.000087
   5 H :   -0.000986
   6 C :   -0.365093
   7 O :   -0.085961
   8 H :    0.164290
   9 H :    0.099673
  10 H :    0.092838
  11 H :    0.101512

  Mayer bond orders larger than 0.1
B(  6-C ,  7-O ) :   0.9820 B(  6-C ,  9-H ) :   0.9734 B(  6-C , 10-H ) :   0.9827
B(  6-C , 11-H ) :   0.9854 B(  7-O ,  8-H ) :   0.9040

Dispersion correction           -0.000228410
FINAL SINGLE POINT ENERGY      -115.731676248147

DIPOLE MOMENT
-------------
                                X             Y             Z
Electronic contribution:     -0.28396       1.52428       0.76230
Nuclear contribution   :      0.68299      -1.67398      -1.35456
                        -----------------------------------------
Total Dipole Moment    :      0.39903      -0.14970      -0.59226
                        -----------------------------------------
Magnitude (a.u.)       :      0.72966
Magnitude (Debye)      :      1.85465

Rotational constants in cm-1:     4.388331     0.829250     0.798199
Rotational constants in MHz : 131558.865494 24860.289671 23929.403253

                             ****ORCA TERMINATED NORMALLY****
TOTAL RUN TIME: 0 days 0 hours 5 minutes 59 seconds 609 msec
