                         Program Version 4.1.2  - RELEASE  -
|  1> #Run DFT-D3 single point of the dimer
|  2> ! wB97X-D3 def2-TZVP TIGHTSCF CHELPG PMODEL PAL8
|  3>
|  4> %base "11-174_DFT_AB"
|  5>
|  6> %scf
|  7> MaxIter 1000
|  8> end
|  9>
| 10> * xyz 0 1
| 11>   C                      8.334044             -2.800744            8.258865
| 12>   O                      8.343442             -2.679756            9.679812
| 13>   H                      8.080518             -1.796854            10.035325
| 14>   H                      7.591973             -2.092943            7.806772
| 15>   H                      9.292589             -2.628121            7.805009
| 16>   H                      8.133133             -3.810071            7.890170
| 17>   C                      7.814069             -5.713815            11.211798
| 18>   O                      6.992236             -5.212482            10.214247
| 19>   H                      7.085206             -4.256180            10.124040
| 20>   H                      7.929821             -4.991203            12.034832
| 21>   H                      7.363271             -6.584589            11.743880
| 22>   H                      8.724726             -6.163219            10.813315
| 23> *
| 24>
| 25> #Run DFT-D3 single point of the molecule with dimer basis set
| 26> $new_job
| 27> %base "11-174_DFT_A"
| 28> ! wB97X-D3 def2-TZVP TIGHTSCF CHELPG PMODEL
| 29>
| 30> %scf
| 31> MaxIter 1000
| 32> end
| 33>
| 34> * xyz 0 1
| 35>   C                      8.334044             -2.800744            8.258865
| 36>   O                      8.343442             -2.679756            9.679812
| 37>   H                      8.080518             -1.796854            10.035325
| 38>   H                      7.591973             -2.092943            7.806772
| 39>   H                      9.292589             -2.628121            7.805009
| 40>   H                      8.133133             -3.810071            7.890170
| 41>   C                    : 7.814069             -5.713815            11.211798
| 42>   O                    : 6.992236             -5.212482            10.214247
| 43>   H                    : 7.085206             -4.256180            10.124040
| 44>   H                    : 7.929821             -4.991203            12.034832
| 45>   H                    : 7.363271             -6.584589            11.743880
| 46>   H                    : 8.724726             -6.163219            10.813315
| 47> *
| 48>
| 49> #Run DFT-D3 single point of the particle with dimer basis set
| 50> $new_job
| 51> %base "11-174_DFT_B"
| 52> ! wB97X-D3 def2-TZVP TIGHTSCF CHELPG PMODEL
| 53>
| 54> %scf
| 55> MaxIter 1000
| 56> end
| 57>
| 58> * xyz 0 1
| 59>   C                    : 8.334044             -2.800744            8.258865
| 60>   O                    : 8.343442             -2.679756            9.679812
| 61>   H                    : 8.080518             -1.796854            10.035325
| 62>   H                    : 7.591973             -2.092943            7.806772
| 63>   H                    : 9.292589             -2.628121            7.805009
| 64>   H                    : 8.133133             -3.810071            7.890170
| 65>   C                      7.814069             -5.713815            11.211798
| 66>   O                      6.992236             -5.212482            10.214247
| 67>   H                      7.085206             -4.256180            10.124040
| 68>   H                      7.929821             -4.991203            12.034832
| 69>   H                      7.363271             -6.584589            11.743880
| 70>   H                      8.724726             -6.163219            10.813315
| 71> *
| 72>
| 73>                          ****END OF INPUT****
 Total Charge           Charge          ....    0
 Multiplicity           Mult            ....    1
 Number of Electrons    NEL             ....   36
Dispersion correction           -0.001959641
FINAL SINGLE POINT ENERGY      -231.470798469459
Dispersion correction           -0.000276173
FINAL SINGLE POINT ENERGY      -115.730559998321

CARTESIAN COORDINATES (ANGSTROEM)
---------------------------------
  C      8.334044   -2.800744    8.258865
  O      8.343442   -2.679756    9.679812
  H      8.080518   -1.796854   10.035325
  H      7.591973   -2.092943    7.806772
  H      9.292589   -2.628121    7.805009
  H      8.133133   -3.810071    7.890170
  C      7.814069   -5.713815   11.211798
  O      6.992236   -5.212482   10.214247
  H      7.085206   -4.256180   10.124040
  H      7.929821   -4.991203   12.034832
  H      7.363271   -6.584589   11.743880
  H      8.724726   -6.163219   10.813315

 Multiplicity           Mult            ....    1
 Number of Electrons    NEL             ....   18
 Basis Dimension        Dim             ....  172

ORBITAL ENERGIES
----------------

  NO   OCC          E(Eh)            E(eV)
   0   2.0000     -19.231900      -523.3266
   1   2.0000     -10.314048      -280.6595
   2   2.0000      -1.143051       -31.1040
   3   2.0000      -0.795659       -21.6510
   4   2.0000      -0.615237       -16.7414
   5   2.0000      -0.551011       -14.9938
   6   2.0000      -0.528821       -14.3900
   7   2.0000      -0.421744       -11.4762
   8   2.0000      -0.373211       -10.1556
   9   0.0000       0.072491         1.9726
  10   0.0000       0.133013         3.6195
  11   0.0000       0.151724         4.1286
  12   0.0000       0.167861         4.5677
  13   0.0000       0.189722         5.1626

MULLIKEN ATOMIC CHARGES
-----------------------
   0 C :   -0.002927
   1 O :   -0.004099
   2 H :   -0.000366
   3 H :    0.000227
   4 H :   -0.000051
   5 H :   -0.005389
   6 C :   -0.157421
   7 O :   -0.465166
   8 H :    0.321252
   9 H :    0.103254
  10 H :    0.108626
  11 H :    0.102060
Sum of atomic charges:   -0.0000000

LOEWDIN ATOMIC CHARGES
----------------------
   0 C :   -0.009673
   1 O :   -0.014331
   2 H :   -0.000990
   3 H :   -0.000149
   4 H :   -0.000121
   5 H :   -0.004554
   6 C :   -0.412360
   7 O :   -0.042973
   8 H :    0.181208
   9 H :    0.099210
  10 H :    0.108953
  11 H :    0.095781

  Mayer bond orders larger than 0.1
B(  6-C ,  7-O ) :   1.0063 B(  6-C ,  9-H ) :   0.9843 B(  6-C , 10-H ) :   0.9738
B(  6-C , 11-H ) :   0.9750 B(  7-O ,  8-H ) :   0.8970

Dispersion correction           -0.000251285
FINAL SINGLE POINT ENERGY      -115.732502001793

DIPOLE MOMENT
-------------
                                X             Y             Z
Electronic contribution:     -1.05624       0.63812      -1.40187
Nuclear contribution   :      1.40823      -0.23071       1.75432
                        -----------------------------------------
Total Dipole Moment    :      0.35200       0.40740       0.35245
                        -----------------------------------------
Magnitude (a.u.)       :      0.64351
Magnitude (Debye)      :      1.63567

Rotational constants in cm-1:     4.363517     0.845177     0.816757
Rotational constants in MHz : 130814.947401 25337.774304 24485.763444

                             ****ORCA TERMINATED NORMALLY****
TOTAL RUN TIME: 0 days 0 hours 1 minutes 15 seconds 544 msec
