                         Program Version 4.1.2  - RELEASE  -
|  1> #Run DFT-D3 single point of the dimer
|  2> ! wB97X-D3 def2-TZVP TIGHTSCF CHELPG PMODEL PAL8
|  3>
|  4> %base "14-9_DFT_AB"
|  5>
|  6> %scf
|  7> MaxIter 1000
|  8> end
|  9>
| 10> * xyz 0 1
| 11>   C                      2.263257             -4.148155            5.412082
| 12>   O                      2.954997             -4.750595            6.535683
| 13>   H                      3.854224             -4.751128            6.203519
| 14>   H                      2.189910             -3.055356            5.686844
| 15>   H                      2.686634             -4.323060            4.395248
| 16>   H                      1.297417             -4.690642            5.387383
| 17>   C                      -2.959016            -4.795412            6.220165
| 18>   O                      -2.797570            -3.381077            6.160881
| 19>   H                      -2.926890            -3.040397            7.064037
| 20>   H                      -3.772046            -5.074575            6.880793
| 21>   H                      -3.078186            -5.266677            5.185687
| 22>   H                      -2.072949            -5.202316            6.634486
| 23> *
| 24>
| 25> #Run DFT-D3 single point of the molecule with dimer basis set
| 26> $new_job
| 27> %base "14-9_DFT_A"
| 28> ! wB97X-D3 def2-TZVP TIGHTSCF CHELPG PMODEL
| 29>
| 30> %scf
| 31> MaxIter 1000
| 32> end
| 33>
| 34> * xyz 0 1
| 35>   C                      2.263257             -4.148155            5.412082
| 36>   O                      2.954997             -4.750595            6.535683
| 37>   H                      3.854224             -4.751128            6.203519
| 38>   H                      2.189910             -3.055356            5.686844
| 39>   H                      2.686634             -4.323060            4.395248
| 40>   H                      1.297417             -4.690642            5.387383
| 41>   C                    : -2.959016            -4.795412            6.220165
| 42>   O                    : -2.797570            -3.381077            6.160881
| 43>   H                    : -2.926890            -3.040397            7.064037
| 44>   H                    : -3.772046            -5.074575            6.880793
| 45>   H                    : -3.078186            -5.266677            5.185687
| 46>   H                    : -2.072949            -5.202316            6.634486
| 47> *
| 48>
| 49> #Run DFT-D3 single point of the particle with dimer basis set
| 50> $new_job
| 51> %base "14-9_DFT_B"
| 52> ! wB97X-D3 def2-TZVP TIGHTSCF CHELPG PMODEL
| 53>
| 54> %scf
| 55> MaxIter 1000
| 56> end
| 57>
| 58> * xyz 0 1
| 59>   C                    : 2.263257             -4.148155            5.412082
| 60>   O                    : 2.954997             -4.750595            6.535683
| 61>   H                    : 3.854224             -4.751128            6.203519
| 62>   H                    : 2.189910             -3.055356            5.686844
| 63>   H                    : 2.686634             -4.323060            4.395248
| 64>   H                    : 1.297417             -4.690642            5.387383
| 65>   C                      -2.959016            -4.795412            6.220165
| 66>   O                      -2.797570            -3.381077            6.160881
| 67>   H                      -2.926890            -3.040397            7.064037
| 68>   H                      -3.772046            -5.074575            6.880793
| 69>   H                      -3.078186            -5.266677            5.185687
| 70>   H                      -2.072949            -5.202316            6.634486
| 71> *
| 72>
| 73>                          ****END OF INPUT****
 Total Charge           Charge          ....    0
 Multiplicity           Mult            ....    1
 Number of Electrons    NEL             ....   36
Dispersion correction           -0.000740763
FINAL SINGLE POINT ENERGY      -231.461380563508
Dispersion correction           -0.000245725
FINAL SINGLE POINT ENERGY      -115.728384107439

CARTESIAN COORDINATES (ANGSTROEM)
---------------------------------
  C      2.263257   -4.148155    5.412082
  O      2.954997   -4.750595    6.535683
  H      3.854224   -4.751128    6.203519
  H      2.189910   -3.055356    5.686844
  H      2.686634   -4.323060    4.395248
  H      1.297417   -4.690642    5.387383
  C     -2.959016   -4.795412    6.220165
  O     -2.797570   -3.381077    6.160881
  H     -2.926890   -3.040397    7.064037
  H     -3.772046   -5.074575    6.880793
  H     -3.078186   -5.266677    5.185687
  H     -2.072949   -5.202316    6.634486

 Multiplicity           Mult            ....    1
 Number of Electrons    NEL             ....   18
 Basis Dimension        Dim             ....  172

ORBITAL ENERGIES
----------------

  NO   OCC          E(Eh)            E(eV)
   0   2.0000     -19.229493      -523.2611
   1   2.0000     -10.313725      -280.6507
   2   2.0000      -1.130149       -30.7529
   3   2.0000      -0.793285       -21.5864
   4   2.0000      -0.607826       -16.5398
   5   2.0000      -0.541668       -14.7395
   6   2.0000      -0.523844       -14.2545
   7   2.0000      -0.434743       -11.8300
   8   2.0000      -0.370975       -10.0947
   9   0.0000       0.088944         2.4203
  10   0.0000       0.113439         3.0868
  11   0.0000       0.150329         4.0907
  12   0.0000       0.171687         4.6718
  13   0.0000       0.187589         5.1046

MULLIKEN ATOMIC CHARGES
-----------------------
   0 C :   -0.000235
   1 O :    0.000003
   2 H :    0.000000
   3 H :    0.000003
   4 H :   -0.000002
   5 H :    0.000334
   6 C :   -0.170958
   7 O :   -0.477359
   8 H :    0.314998
   9 H :    0.107927
  10 H :    0.117552
  11 H :    0.107737
Sum of atomic charges:   -0.0000000

LOEWDIN ATOMIC CHARGES
----------------------
   0 C :   -0.000085
   1 O :   -0.000003
   2 H :   -0.000001
   3 H :   -0.000011
   4 H :   -0.000002
   5 H :   -0.000070
   6 C :   -0.379431
   7 O :   -0.095029
   8 H :    0.176612
   9 H :    0.092892
  10 H :    0.118229
  11 H :    0.086899

  Mayer bond orders larger than 0.1
B(  6-C ,  7-O ) :   0.9930 B(  6-C ,  9-H ) :   0.9806 B(  6-C , 10-H ) :   0.9700
B(  6-C , 11-H ) :   0.9795 B(  7-O ,  8-H ) :   0.8971

Dispersion correction           -0.000233824
FINAL SINGLE POINT ENERGY      -115.732417464105

DIPOLE MOMENT
-------------
                                X             Y             Z
Electronic contribution:      0.17383       1.78627      -0.22831
Nuclear contribution   :     -0.31280      -2.14978       0.83550
                        -----------------------------------------
Total Dipole Moment    :     -0.13897      -0.36351       0.60720
                        -----------------------------------------
Magnitude (a.u.)       :      0.72121
Magnitude (Debye)      :      1.83316

Rotational constants in cm-1:     4.254617     0.826964     0.786884
Rotational constants in MHz : 127550.216456 24791.749435 23590.186999

                             ****ORCA TERMINATED NORMALLY****
TOTAL RUN TIME: 0 days 0 hours 1 minutes 9 seconds 787 msec
