                         Program Version 4.1.2  - RELEASE  -
|  1> #Run DFT-D3 single point of the dimer
|  2> ! wB97X-D3 def2-TZVP TIGHTSCF CHELPG PMODEL PAL8
|  3>
|  4> %base "6-84_DFT_AB"
|  5>
|  6> %scf
|  7> MaxIter 1000
|  8> end
|  9>
| 10> * xyz 0 1
| 11>   C                      -4.592135            -8.778354            -4.672863
| 12>   O                      -4.996036            -7.685713            -3.782804
| 13>   H                      -4.696775            -7.821721            -2.928204
| 14>   H                      -3.534098            -9.010149            -4.638917
| 15>   H                      -5.112055            -9.688766            -4.343416
| 16>   H                      -4.938609            -8.647915            -5.698391
| 17>   C                      0.465366             -6.483530            -5.802632
| 18>   O                      0.708144             -7.246900            -4.625524
| 19>   H                      1.628458             -6.955806            -4.395569
| 20>   H                      -0.143682            -5.607123            -5.628660
| 21>   H                      1.405965             -6.125129            -6.240279
| 22>   H                      0.071775             -7.043651            -6.518256
| 23> *
| 24>
| 25> #Run DFT-D3 single point of the molecule with dimer basis set
| 26> $new_job
| 27> %base "6-84_DFT_A"
| 28> ! wB97X-D3 def2-TZVP TIGHTSCF CHELPG PMODEL
| 29>
| 30> %scf
| 31> MaxIter 1000
| 32> end
| 33>
| 34> * xyz 0 1
| 35>   C                      -4.592135            -8.778354            -4.672863
| 36>   O                      -4.996036            -7.685713            -3.782804
| 37>   H                      -4.696775            -7.821721            -2.928204
| 38>   H                      -3.534098            -9.010149            -4.638917
| 39>   H                      -5.112055            -9.688766            -4.343416
| 40>   H                      -4.938609            -8.647915            -5.698391
| 41>   C                    : 0.465366             -6.483530            -5.802632
| 42>   O                    : 0.708144             -7.246900            -4.625524
| 43>   H                    : 1.628458             -6.955806            -4.395569
| 44>   H                    : -0.143682            -5.607123            -5.628660
| 45>   H                    : 1.405965             -6.125129            -6.240279
| 46>   H                    : 0.071775             -7.043651            -6.518256
| 47> *
| 48>
| 49> #Run DFT-D3 single point of the particle with dimer basis set
| 50> $new_job
| 51> %base "6-84_DFT_B"
| 52> ! wB97X-D3 def2-TZVP TIGHTSCF CHELPG PMODEL
| 53>
| 54> %scf
| 55> MaxIter 1000
| 56> end
| 57>
| 58> * xyz 0 1
| 59>   C                    : -4.592135            -8.778354            -4.672863
| 60>   O                    : -4.996036            -7.685713            -3.782804
| 61>   H                    : -4.696775            -7.821721            -2.928204
| 62>   H                    : -3.534098            -9.010149            -4.638917
| 63>   H                    : -5.112055            -9.688766            -4.343416
| 64>   H                    : -4.938609            -8.647915            -5.698391
| 65>   C                      0.465366             -6.483530            -5.802632
| 66>   O                      0.708144             -7.246900            -4.625524
| 67>   H                      1.628458             -6.955806            -4.395569
| 68>   H                      -0.143682            -5.607123            -5.628660
| 69>   H                      1.405965             -6.125129            -6.240279
| 70>   H                      0.071775             -7.043651            -6.518256
| 71> *
| 72>
| 73>                          ****END OF INPUT****
 Total Charge           Charge          ....    0
 Multiplicity           Mult            ....    1
 Number of Electrons    NEL             ....   36
Dispersion correction           -0.000651129
FINAL SINGLE POINT ENERGY      -231.455646046285
Dispersion correction           -0.000267042
FINAL SINGLE POINT ENERGY      -115.730339069415

CARTESIAN COORDINATES (ANGSTROEM)
---------------------------------
  C     -4.592135   -8.778354   -4.672863
  O     -4.996036   -7.685713   -3.782804
  H     -4.696775   -7.821721   -2.928204
  H     -3.534098   -9.010149   -4.638917
  H     -5.112055   -9.688766   -4.343416
  H     -4.938609   -8.647915   -5.698391
  C      0.465366   -6.483530   -5.802632
  O      0.708144   -7.246900   -4.625524
  H      1.628458   -6.955806   -4.395569
  H     -0.143682   -5.607123   -5.628660
  H      1.405965   -6.125129   -6.240279
  H      0.071775   -7.043651   -6.518256

 Multiplicity           Mult            ....    1
 Number of Electrons    NEL             ....   18
 Basis Dimension        Dim             ....  172

ORBITAL ENERGIES
----------------

  NO   OCC          E(Eh)            E(eV)
   0   2.0000     -19.233807      -523.3785
   1   2.0000     -10.300929      -280.3025
   2   2.0000      -1.130939       -30.7744
   3   2.0000      -0.802345       -21.8329
   4   2.0000      -0.605496       -16.4764
   5   2.0000      -0.551512       -15.0074
   6   2.0000      -0.526470       -14.3260
   7   2.0000      -0.438435       -11.9304
   8   2.0000      -0.376517       -10.2455
   9   0.0000       0.090868         2.4726
  10   0.0000       0.108842         2.9617
  11   0.0000       0.156842         4.2679
  12   0.0000       0.167483         4.5574
  13   0.0000       0.193551         5.2668

MULLIKEN ATOMIC CHARGES
-----------------------
   0 C :    0.000071
   1 O :   -0.000001
   2 H :   -0.000002
   3 H :   -0.000202
   4 H :   -0.000004
   5 H :   -0.000001
   6 C :   -0.168055
   7 O :   -0.471156
   8 H :    0.319330
   9 H :    0.102330
  10 H :    0.092669
  11 H :    0.125021
Sum of atomic charges:   -0.0000000

LOEWDIN ATOMIC CHARGES
----------------------
   0 C :   -0.000010
   1 O :   -0.000001
   2 H :   -0.000000
   3 H :   -0.000048
   4 H :   -0.000000
   5 H :   -0.000001
   6 C :   -0.367985
   7 O :   -0.096575
   8 H :    0.192196
   9 H :    0.096292
  10 H :    0.099004
  11 H :    0.077129

  Mayer bond orders larger than 0.1
B(  6-C ,  7-O ) :   1.0117 B(  6-C ,  9-H ) :   0.9745 B(  6-C , 10-H ) :   0.9923
B(  6-C , 11-H ) :   0.9779 B(  7-O ,  8-H ) :   0.8997

Dispersion correction           -0.000226425
FINAL SINGLE POINT ENERGY      -115.724759450506

DIPOLE MOMENT
-------------
                                X             Y             Z
Electronic contribution:      0.03219      -1.12464       1.49497
Nuclear contribution   :      0.44937       1.59064      -1.84630
                        -----------------------------------------
Total Dipole Moment    :      0.48156       0.46600      -0.35133
                        -----------------------------------------
Magnitude (a.u.)       :      0.75663
Magnitude (Debye)      :      1.92320

Rotational constants in cm-1:     4.440664     0.832462     0.801537
Rotational constants in MHz : 133127.765657 24956.589833 24029.486830

                             ****ORCA TERMINATED NORMALLY****
TOTAL RUN TIME: 0 days 0 hours 1 minutes 2 seconds 920 msec
