                         Program Version 4.1.2  - RELEASE  -
|  1> #Run DFT-D3 single point of the dimer
|  2> ! wB97X-D3 def2-TZVP TIGHTSCF CHELPG PMODEL PAL8
|  3>
|  4> %base "6-90_DFT_AB"
|  5>
|  6> %scf
|  7> MaxIter 1000
|  8> end
|  9>
| 10> * xyz 0 1
| 11>   C                      6.664978             3.067073             1.226311
| 12>   O                      8.059023             2.989451             1.564592
| 13>   H                      8.160365             2.945944             2.478638
| 14>   H                      6.091341             2.145018             1.217380
| 15>   H                      6.072127             3.731938             1.852075
| 16>   H                      6.459341             3.559162             0.310594
| 17>   C                      1.357554             3.752919             0.927399
| 18>   O                      2.636666             3.112207             1.170774
| 19>   H                      3.170213             3.525869             0.504691
| 20>   H                      1.409759             4.871002             1.051048
| 21>   H                      0.903366             3.512577             -0.023999
| 22>   H                      0.608316             3.462401             1.670895
| 23> *
| 24>
| 25> #Run DFT-D3 single point of the molecule with dimer basis set
| 26> $new_job
| 27> %base "6-90_DFT_A"
| 28> ! wB97X-D3 def2-TZVP TIGHTSCF CHELPG PMODEL
| 29>
| 30> %scf
| 31> MaxIter 1000
| 32> end
| 33>
| 34> * xyz 0 1
| 35>   C                      6.664978             3.067073             1.226311
| 36>   O                      8.059023             2.989451             1.564592
| 37>   H                      8.160365             2.945944             2.478638
| 38>   H                      6.091341             2.145018             1.217380
| 39>   H                      6.072127             3.731938             1.852075
| 40>   H                      6.459341             3.559162             0.310594
| 41>   C                    : 1.357554             3.752919             0.927399
| 42>   O                    : 2.636666             3.112207             1.170774
| 43>   H                    : 3.170213             3.525869             0.504691
| 44>   H                    : 1.409759             4.871002             1.051048
| 45>   H                    : 0.903366             3.512577             -0.023999
| 46>   H                    : 0.608316             3.462401             1.670895
| 47> *
| 48>
| 49> #Run DFT-D3 single point of the particle with dimer basis set
| 50> $new_job
| 51> %base "6-90_DFT_B"
| 52> ! wB97X-D3 def2-TZVP TIGHTSCF CHELPG PMODEL
| 53>
| 54> %scf
| 55> MaxIter 1000
| 56> end
| 57>
| 58> * xyz 0 1
| 59>   C                    : 6.664978             3.067073             1.226311
| 60>   O                    : 8.059023             2.989451             1.564592
| 61>   H                    : 8.160365             2.945944             2.478638
| 62>   H                    : 6.091341             2.145018             1.217380
| 63>   H                    : 6.072127             3.731938             1.852075
| 64>   H                    : 6.459341             3.559162             0.310594
| 65>   C                      1.357554             3.752919             0.927399
| 66>   O                      2.636666             3.112207             1.170774
| 67>   H                      3.170213             3.525869             0.504691
| 68>   H                      1.409759             4.871002             1.051048
| 69>   H                      0.903366             3.512577             -0.023999
| 70>   H                      0.608316             3.462401             1.670895
| 71> *
| 72>
| 73>                          ****END OF INPUT****
 Total Charge           Charge          ....    0
 Multiplicity           Mult            ....    1
 Number of Electrons    NEL             ....   36
Dispersion correction           -0.001145829
FINAL SINGLE POINT ENERGY      -231.461571301380
Dispersion correction           -0.000278732
FINAL SINGLE POINT ENERGY      -115.727805287279

CARTESIAN COORDINATES (ANGSTROEM)
---------------------------------
  C      6.664978    3.067073    1.226311
  O      8.059023    2.989451    1.564592
  H      8.160365    2.945944    2.478638
  H      6.091341    2.145018    1.217380
  H      6.072127    3.731938    1.852075
  H      6.459341    3.559162    0.310594
  C      1.357554    3.752919    0.927399
  O      2.636666    3.112207    1.170774
  H      3.170213    3.525869    0.504691
  H      1.409759    4.871002    1.051048
  H      0.903366    3.512577   -0.023999
  H      0.608316    3.462401    1.670895

 Multiplicity           Mult            ....    1
 Number of Electrons    NEL             ....   18
 Basis Dimension        Dim             ....  172

ORBITAL ENERGIES
----------------

  NO   OCC          E(Eh)            E(eV)
   0   2.0000     -19.235269      -523.4183
   1   2.0000     -10.318961      -280.7932
   2   2.0000      -1.134220       -30.8637
   3   2.0000      -0.796189       -21.6654
   4   2.0000      -0.603487       -16.4217
   5   2.0000      -0.540057       -14.6957
   6   2.0000      -0.522677       -14.2228
   7   2.0000      -0.441556       -12.0153
   8   2.0000      -0.379957       -10.3392
   9   0.0000       0.082656         2.2492
  10   0.0000       0.121242         3.2992
  11   0.0000       0.144922         3.9435
  12   0.0000       0.178177         4.8484
  13   0.0000       0.198340         5.3971

MULLIKEN ATOMIC CHARGES
-----------------------
   0 C :    0.001005
   1 O :   -0.000019
   2 H :   -0.000007
   3 H :   -0.000712
   4 H :   -0.002309
   5 H :   -0.000184
   6 C :   -0.197666
   7 O :   -0.460107
   8 H :    0.314601
   9 H :    0.107710
  10 H :    0.113350
  11 H :    0.124339
Sum of atomic charges:   -0.0000000

LOEWDIN ATOMIC CHARGES
----------------------
   0 C :   -0.001175
   1 O :   -0.000010
   2 H :   -0.000001
   3 H :   -0.000449
   4 H :   -0.000976
   5 H :   -0.000189
   6 C :   -0.371880
   7 O :   -0.091293
   8 H :    0.162689
   9 H :    0.102000
  10 H :    0.092575
  11 H :    0.108708

  Mayer bond orders larger than 0.1
B(  6-C ,  7-O ) :   1.0022 B(  6-C ,  9-H ) :   0.9753 B(  6-C , 10-H ) :   0.9697
B(  6-C , 11-H ) :   0.9747 B(  7-O ,  8-H ) :   0.9041

Dispersion correction           -0.000255191
FINAL SINGLE POINT ENERGY      -115.732972742561

DIPOLE MOMENT
-------------
                                X             Y             Z
Electronic contribution:      1.63896      -0.98881       0.37151
Nuclear contribution   :     -1.84515       1.49102      -0.86976
                        -----------------------------------------
Total Dipole Moment    :     -0.20619       0.50222      -0.49825
                        -----------------------------------------
Magnitude (a.u.)       :      0.73688
Magnitude (Debye)      :      1.87300

Rotational constants in cm-1:     4.311152     0.791928     0.769175
Rotational constants in MHz : 129245.092826 23741.397699 23059.282158

                             ****ORCA TERMINATED NORMALLY****
TOTAL RUN TIME: 0 days 0 hours 1 minutes 3 seconds 393 msec
