                         Program Version 4.1.2  - RELEASE  -
|  1> #Run DFT-D3 single point of the dimer
|  2> ! wB97X-D3 def2-TZVP TIGHTSCF CHELPG PMODEL PAL8
|  3>
|  4> %base "22-186_DFT_AB"
|  5>
|  6> %scf
|  7> MaxIter 1000
|  8> end
|  9>
| 10> * xyz 0 1
| 11>   C                      1.758582             -1.437780            -2.185095
| 12>   O                      1.633150             -0.040761            -2.412999
| 13>   H                      1.922239             0.409102             -1.638238
| 14>   H                      2.724347             -1.540067            -1.692715
| 15>   H                      0.986000             -1.690466            -1.515458
| 16>   H                      1.769196             -1.988602            -3.101469
| 17>   C                      0.159550             -0.695446            -5.283339
| 18>   O                      1.357969             0.049257             -5.214653
| 19>   H                      1.669129             -0.184117            -4.308228
| 20>   H                      0.216482             -1.496743            -6.077616
| 21>   H                      -0.113872            -1.182281            -4.345292
| 22>   H                      -0.685406            -0.138870            -5.644733
| 23> *
| 24>
| 25> #Run DFT-D3 single point of the molecule with dimer basis set
| 26> $new_job
| 27> %base "22-186_DFT_A"
| 28> ! wB97X-D3 def2-TZVP TIGHTSCF CHELPG PMODEL
| 29>
| 30> %scf
| 31> MaxIter 1000
| 32> end
| 33>
| 34> * xyz 0 1
| 35>   C                      1.758582             -1.437780            -2.185095
| 36>   O                      1.633150             -0.040761            -2.412999
| 37>   H                      1.922239             0.409102             -1.638238
| 38>   H                      2.724347             -1.540067            -1.692715
| 39>   H                      0.986000             -1.690466            -1.515458
| 40>   H                      1.769196             -1.988602            -3.101469
| 41>   C                    : 0.159550             -0.695446            -5.283339
| 42>   O                    : 1.357969             0.049257             -5.214653
| 43>   H                    : 1.669129             -0.184117            -4.308228
| 44>   H                    : 0.216482             -1.496743            -6.077616
| 45>   H                    : -0.113872            -1.182281            -4.345292
| 46>   H                    : -0.685406            -0.138870            -5.644733
| 47> *
| 48>
| 49> #Run DFT-D3 single point of the particle with dimer basis set
| 50> $new_job
| 51> %base "22-186_DFT_B"
| 52> ! wB97X-D3 def2-TZVP TIGHTSCF CHELPG PMODEL
| 53>
| 54> %scf
| 55> MaxIter 1000
| 56> end
| 57>
| 58> * xyz 0 1
| 59>   C                    : 1.758582             -1.437780            -2.185095
| 60>   O                    : 1.633150             -0.040761            -2.412999
| 61>   H                    : 1.922239             0.409102             -1.638238
| 62>   H                    : 2.724347             -1.540067            -1.692715
| 63>   H                    : 0.986000             -1.690466            -1.515458
| 64>   H                    : 1.769196             -1.988602            -3.101469
| 65>   C                      0.159550             -0.695446            -5.283339
| 66>   O                      1.357969             0.049257             -5.214653
| 67>   H                      1.669129             -0.184117            -4.308228
| 68>   H                      0.216482             -1.496743            -6.077616
| 69>   H                      -0.113872            -1.182281            -4.345292
| 70>   H                      -0.685406            -0.138870            -5.644733
| 71> *
| 72>
| 73>                          ****END OF INPUT****
 Total Charge           Charge          ....    0
 Multiplicity           Mult            ....    1
 Number of Electrons    NEL             ....   36
Dispersion correction           -0.002131149
FINAL SINGLE POINT ENERGY      -231.467391843906
Dispersion correction           -0.000199885
FINAL SINGLE POINT ENERGY      -115.731434694104

CARTESIAN COORDINATES (ANGSTROEM)
---------------------------------
  C      1.758582   -1.437780   -2.185095
  O      1.633150   -0.040761   -2.412999
  H      1.922239    0.409102   -1.638238
  H      2.724347   -1.540067   -1.692715
  H      0.986000   -1.690466   -1.515458
  H      1.769196   -1.988602   -3.101469
  C      0.159550   -0.695446   -5.283339
  O      1.357969    0.049257   -5.214653
  H      1.669129   -0.184117   -4.308228
  H      0.216482   -1.496743   -6.077616
  H     -0.113872   -1.182281   -4.345292
  H     -0.685406   -0.138870   -5.644733

 Multiplicity           Mult            ....    1
 Number of Electrons    NEL             ....   18
 Basis Dimension        Dim             ....  172

ORBITAL ENERGIES
----------------

  NO   OCC          E(Eh)            E(eV)
   0   2.0000     -19.238819      -523.5149
   1   2.0000     -10.314674      -280.6766
   2   2.0000      -1.138772       -30.9876
   3   2.0000      -0.791936       -21.5497
   4   2.0000      -0.612248       -16.6601
   5   2.0000      -0.535337       -14.5672
   6   2.0000      -0.527428       -14.3520
   7   2.0000      -0.445985       -12.1359
   8   2.0000      -0.371099       -10.0981
   9   0.0000       0.065278         1.7763
  10   0.0000       0.140786         3.8310
  11   0.0000       0.147427         4.0117
  12   0.0000       0.164090         4.4651
  13   0.0000       0.179928         4.8961

MULLIKEN ATOMIC CHARGES
-----------------------
   0 C :   -0.003743
   1 O :   -0.006928
   2 H :   -0.000693
   3 H :    0.000070
   4 H :   -0.000190
   5 H :    0.000382
   6 C :   -0.177462
   7 O :   -0.453242
   8 H :    0.322150
   9 H :    0.098882
  10 H :    0.104535
  11 H :    0.116239
Sum of atomic charges:    0.0000000

LOEWDIN ATOMIC CHARGES
----------------------
   0 C :   -0.015527
   1 O :   -0.021712
   2 H :   -0.000963
   3 H :   -0.000145
   4 H :   -0.000334
   5 H :   -0.004838
   6 C :   -0.393191
   7 O :   -0.065899
   8 H :    0.202559
   9 H :    0.103576
  10 H :    0.099722
  11 H :    0.096751

  Mayer bond orders larger than 0.1
B(  6-C ,  7-O ) :   0.9999 B(  6-C ,  9-H ) :   0.9819 B(  6-C , 10-H ) :   0.9799
B(  6-C , 11-H ) :   0.9752 B(  7-O ,  8-H ) :   0.9047

Dispersion correction           -0.000250624
FINAL SINGLE POINT ENERGY      -115.730871449060

DIPOLE MOMENT
-------------
                                X             Y             Z
Electronic contribution:      1.59378       1.15761       0.04250
Nuclear contribution   :     -1.86938      -1.57040       0.49269
                        -----------------------------------------
Total Dipole Moment    :     -0.27560      -0.41279       0.53519
                        -----------------------------------------
Magnitude (a.u.)       :      0.72991
Magnitude (Debye)      :      1.85529

Rotational constants in cm-1:     4.270335     0.834591     0.793069
Rotational constants in MHz : 128021.410084 25020.418283 23775.598464

                             ****ORCA TERMINATED NORMALLY****
TOTAL RUN TIME: 0 days 0 hours 1 minutes 8 seconds 835 msec
