                         Program Version 4.1.2  - RELEASE  -
|  1> #Run DFT-D3 single point of the dimer
|  2> ! wB97X-D3 def2-TZVP TIGHTSCF CHELPG PMODEL PAL8
|  3>
|  4> %base "19-114_DFT_AB"
|  5>
|  6> %scf
|  7> MaxIter 1000
|  8> end
|  9>
| 10> * xyz 0 1
| 11>   C                      6.485865             6.830318             0.457606
| 12>   O                      6.958456             6.355031             -0.794069
| 13>   H                      7.907226             6.370384             -0.741623
| 14>   H                      6.882538             7.854793             0.749982
| 15>   H                      5.409756             6.912721             0.368214
| 16>   H                      6.865832             6.186334             1.267891
| 17>   C                      9.426717             9.570912             -0.305109
| 18>   O                      9.101624             8.555188             -1.241362
| 19>   H                      8.837324             8.968889             -2.118963
| 20>   H                      8.631840             10.246299            -0.332413
| 21>   H                      9.412705             9.170977             0.728972
| 22>   H                      10.283593            10.141880            -0.557402
| 23> *
| 24>
| 25> #Run DFT-D3 single point of the molecule with dimer basis set
| 26> $new_job
| 27> %base "19-114_DFT_A"
| 28> ! wB97X-D3 def2-TZVP TIGHTSCF CHELPG PMODEL
| 29>
| 30> %scf
| 31> MaxIter 1000
| 32> end
| 33>
| 34> * xyz 0 1
| 35>   C                      6.485865             6.830318             0.457606
| 36>   O                      6.958456             6.355031             -0.794069
| 37>   H                      7.907226             6.370384             -0.741623
| 38>   H                      6.882538             7.854793             0.749982
| 39>   H                      5.409756             6.912721             0.368214
| 40>   H                      6.865832             6.186334             1.267891
| 41>   C                    : 9.426717             9.570912             -0.305109
| 42>   O                    : 9.101624             8.555188             -1.241362
| 43>   H                    : 8.837324             8.968889             -2.118963
| 44>   H                    : 8.631840             10.246299            -0.332413
| 45>   H                    : 9.412705             9.170977             0.728972
| 46>   H                    : 10.283593            10.141880            -0.557402
| 47> *
| 48>
| 49> #Run DFT-D3 single point of the particle with dimer basis set
| 50> $new_job
| 51> %base "19-114_DFT_B"
| 52> ! wB97X-D3 def2-TZVP TIGHTSCF CHELPG PMODEL
| 53>
| 54> %scf
| 55> MaxIter 1000
| 56> end
| 57>
| 58> * xyz 0 1
| 59>   C                    : 6.485865             6.830318             0.457606
| 60>   O                    : 6.958456             6.355031             -0.794069
| 61>   H                    : 7.907226             6.370384             -0.741623
| 62>   H                    : 6.882538             7.854793             0.749982
| 63>   H                    : 5.409756             6.912721             0.368214
| 64>   H                    : 6.865832             6.186334             1.267891
| 65>   C                      9.426717             9.570912             -0.305109
| 66>   O                      9.101624             8.555188             -1.241362
| 67>   H                      8.837324             8.968889             -2.118963
| 68>   H                      8.631840             10.246299            -0.332413
| 69>   H                      9.412705             9.170977             0.728972
| 70>   H                      10.283593            10.141880            -0.557402
| 71> *
| 72>
| 73>                          ****END OF INPUT****
 Total Charge           Charge          ....    0
 Multiplicity           Mult            ....    1
 Number of Electrons    NEL             ....   36
Dispersion correction           -0.001969313
FINAL SINGLE POINT ENERGY      -231.467492713944
Dispersion correction           -0.000238402
FINAL SINGLE POINT ENERGY      -115.734588226557

CARTESIAN COORDINATES (ANGSTROEM)
---------------------------------
  C      6.485865    6.830318    0.457606
  O      6.958456    6.355031   -0.794069
  H      7.907226    6.370384   -0.741623
  H      6.882538    7.854793    0.749982
  H      5.409756    6.912721    0.368214
  H      6.865832    6.186334    1.267891
  C      9.426717    9.570912   -0.305109
  O      9.101624    8.555188   -1.241362
  H      8.837324    8.968889   -2.118963
  H      8.631840   10.246299   -0.332413
  H      9.412705    9.170977    0.728972
  H     10.283593   10.141880   -0.557402

 Multiplicity           Mult            ....    1
 Number of Electrons    NEL             ....   18
 Basis Dimension        Dim             ....  172

ORBITAL ENERGIES
----------------

  NO   OCC          E(Eh)            E(eV)
   0   2.0000     -19.230998      -523.3021
   1   2.0000     -10.305280      -280.4209
   2   2.0000      -1.124449       -30.5978
   3   2.0000      -0.797839       -21.7103
   4   2.0000      -0.608194       -16.5498
   5   2.0000      -0.546782       -14.8787
   6   2.0000      -0.525116       -14.2891
   7   2.0000      -0.429729       -11.6935
   8   2.0000      -0.371157       -10.0997
   9   0.0000       0.093476         2.5436
  10   0.0000       0.121608         3.3091
  11   0.0000       0.150271         4.0891
  12   0.0000       0.186048         5.0626
  13   0.0000       0.200956         5.4683

MULLIKEN ATOMIC CHARGES
-----------------------
   0 C :   -0.004529
   1 O :    0.002145
   2 H :   -0.004933
   3 H :    0.000391
   4 H :    0.000211
   5 H :   -0.000212
   6 C :   -0.160794
   7 O :   -0.486519
   8 H :    0.316596
   9 H :    0.106260
  10 H :    0.122139
  11 H :    0.109246
Sum of atomic charges:   -0.0000000

LOEWDIN ATOMIC CHARGES
----------------------
   0 C :   -0.004853
   1 O :   -0.004293
   2 H :   -0.011568
   3 H :   -0.001962
   4 H :   -0.000044
   5 H :   -0.000084
   6 C :   -0.375339
   7 O :   -0.086876
   8 H :    0.193401
   9 H :    0.086698
  10 H :    0.115631
  11 H :    0.089288

  Mayer bond orders larger than 0.1
B(  6-C ,  7-O ) :   0.9796 B(  6-C ,  9-H ) :   0.9913 B(  6-C , 10-H ) :   0.9730
B(  6-C , 11-H ) :   0.9684 B(  7-O ,  8-H ) :   0.8891

Dispersion correction           -0.000229827
FINAL SINGLE POINT ENERGY      -115.728717417803

DIPOLE MOMENT
-------------
                                X             Y             Z
Electronic contribution:     -0.21930      -1.38469      -1.04309
Nuclear contribution   :      0.16298       2.09604       0.87908
                        -----------------------------------------
Total Dipole Moment    :     -0.05632       0.71135      -0.16401
                        -----------------------------------------
Magnitude (a.u.)       :      0.73219
Magnitude (Debye)      :      1.86107

Rotational constants in cm-1:     4.380497     0.832465     0.794240
Rotational constants in MHz : 131324.006645 24956.658023 23810.709935

                             ****ORCA TERMINATED NORMALLY****
TOTAL RUN TIME: 0 days 0 hours 0 minutes 50 seconds 867 msec
