                         Program Version 4.1.2  - RELEASE  -
|  1> #Run DFT-D3 single point of the dimer
|  2> ! wB97X-D3 def2-TZVP TIGHTSCF CHELPG PMODEL PAL8
|  3>
|  4> %base "21-73_DFT_AB"
|  5>
|  6> %scf
|  7> MaxIter 1000
|  8> end
|  9>
| 10> * xyz 0 1
| 11>   C                      3.842016             6.695679             2.250202
| 12>   O                      2.873278             7.246164             1.343030
| 13>   H                      3.031708             6.919436             0.425400
| 14>   H                      3.817862             5.565453             2.173094
| 15>   H                      4.822762             6.953849             1.878522
| 16>   H                      3.663193             7.138407             3.241986
| 17>   C                      1.064836             10.403060            1.959708
| 18>   O                      0.921461             9.305629             1.099116
| 19>   H                      1.660101             8.748959             1.207532
| 20>   H                      1.417389             10.046724            2.966692
| 21>   H                      1.741924             11.090266            1.572753
| 22>   H                      0.205987             11.068615            2.164938
| 23> *
| 24>
| 25> #Run DFT-D3 single point of the molecule with dimer basis set
| 26> $new_job
| 27> %base "21-73_DFT_A"
| 28> ! wB97X-D3 def2-TZVP TIGHTSCF CHELPG PMODEL
| 29>
| 30> %scf
| 31> MaxIter 1000
| 32> end
| 33>
| 34> * xyz 0 1
| 35>   C                      3.842016             6.695679             2.250202
| 36>   O                      2.873278             7.246164             1.343030
| 37>   H                      3.031708             6.919436             0.425400
| 38>   H                      3.817862             5.565453             2.173094
| 39>   H                      4.822762             6.953849             1.878522
| 40>   H                      3.663193             7.138407             3.241986
| 41>   C                    : 1.064836             10.403060            1.959708
| 42>   O                    : 0.921461             9.305629             1.099116
| 43>   H                    : 1.660101             8.748959             1.207532
| 44>   H                    : 1.417389             10.046724            2.966692
| 45>   H                    : 1.741924             11.090266            1.572753
| 46>   H                    : 0.205987             11.068615            2.164938
| 47> *
| 48>
| 49> #Run DFT-D3 single point of the particle with dimer basis set
| 50> $new_job
| 51> %base "21-73_DFT_B"
| 52> ! wB97X-D3 def2-TZVP TIGHTSCF CHELPG PMODEL
| 53>
| 54> %scf
| 55> MaxIter 1000
| 56> end
| 57>
| 58> * xyz 0 1
| 59>   C                    : 3.842016             6.695679             2.250202
| 60>   O                    : 2.873278             7.246164             1.343030
| 61>   H                    : 3.031708             6.919436             0.425400
| 62>   H                    : 3.817862             5.565453             2.173094
| 63>   H                    : 4.822762             6.953849             1.878522
| 64>   H                    : 3.663193             7.138407             3.241986
| 65>   C                      1.064836             10.403060            1.959708
| 66>   O                      0.921461             9.305629             1.099116
| 67>   H                      1.660101             8.748959             1.207532
| 68>   H                      1.417389             10.046724            2.966692
| 69>   H                      1.741924             11.090266            1.572753
| 70>   H                      0.205987             11.068615            2.164938
| 71> *
| 72>
| 73>                          ****END OF INPUT****
 Total Charge           Charge          ....    0
 Multiplicity           Mult            ....    1
 Number of Electrons    NEL             ....   36
Dispersion correction           -0.001536538
FINAL SINGLE POINT ENERGY      -231.468145023203
Dispersion correction           -0.000238932
FINAL SINGLE POINT ENERGY      -115.732351442115

CARTESIAN COORDINATES (ANGSTROEM)
---------------------------------
  C      3.842016    6.695679    2.250202
  O      2.873278    7.246164    1.343030
  H      3.031708    6.919436    0.425400
  H      3.817862    5.565453    2.173094
  H      4.822762    6.953849    1.878522
  H      3.663193    7.138407    3.241986
  C      1.064836   10.403060    1.959708
  O      0.921461    9.305629    1.099116
  H      1.660101    8.748959    1.207532
  H      1.417389   10.046724    2.966692
  H      1.741924   11.090266    1.572753
  H      0.205987   11.068615    2.164938

 Multiplicity           Mult            ....    1
 Number of Electrons    NEL             ....   18
 Basis Dimension        Dim             ....  172

ORBITAL ENERGIES
----------------

  NO   OCC          E(Eh)            E(eV)
   0   2.0000     -19.228638      -523.2378
   1   2.0000     -10.311859      -280.5999
   2   2.0000      -1.146164       -31.1887
   3   2.0000      -0.801592       -21.8124
   4   2.0000      -0.616592       -16.7783
   5   2.0000      -0.548718       -14.9314
   6   2.0000      -0.533720       -14.5233
   7   2.0000      -0.425749       -11.5852
   8   2.0000      -0.374841       -10.1999
   9   0.0000       0.070309         1.9132
  10   0.0000       0.131271         3.5721
  11   0.0000       0.143166         3.8957
  12   0.0000       0.169415         4.6100
  13   0.0000       0.196859         5.3568

MULLIKEN ATOMIC CHARGES
-----------------------
   0 C :   -0.000716
   1 O :   -0.002456
   2 H :   -0.000269
   3 H :    0.000021
   4 H :    0.000030
   5 H :   -0.000047
   6 C :   -0.166516
   7 O :   -0.463561
   8 H :    0.311377
   9 H :    0.093649
  10 H :    0.109420
  11 H :    0.119067
Sum of atomic charges:    0.0000000

LOEWDIN ATOMIC CHARGES
----------------------
   0 C :   -0.001685
   1 O :   -0.019237
   2 H :   -0.001567
   3 H :   -0.000043
   4 H :   -0.000035
   5 H :   -0.000141
   6 C :   -0.391968
   7 O :   -0.043008
   8 H :    0.161538
   9 H :    0.101172
  10 H :    0.083330
  11 H :    0.111643

  Mayer bond orders larger than 0.1
B(  6-C ,  7-O ) :   0.9889 B(  6-C ,  9-H ) :   0.9858 B(  6-C , 10-H ) :   0.9799
B(  6-C , 11-H ) :   0.9702 B(  7-O ,  8-H ) :   0.9083

Dispersion correction           -0.000235713
FINAL SINGLE POINT ENERGY      -115.727734823088

DIPOLE MOMENT
-------------
                                X             Y             Z
Electronic contribution:     -0.36268      -1.40678      -1.26620
Nuclear contribution   :      0.89549       1.50915       1.66609
                        -----------------------------------------
Total Dipole Moment    :      0.53281       0.10237       0.39988
                        -----------------------------------------
Magnitude (a.u.)       :      0.67400
Magnitude (Debye)      :      1.71317

Rotational constants in cm-1:     4.554110     0.834230     0.803698
Rotational constants in MHz : 136528.791539 25009.586418 24094.274877

                             ****ORCA TERMINATED NORMALLY****
TOTAL RUN TIME: 0 days 0 hours 1 minutes 6 seconds 70 msec
