                         Program Version 4.1.2  - RELEASE  -
|  1> #Run DFT-D3 single point of the dimer
|  2> ! wB97X-D3 def2-TZVP TIGHTSCF CHELPG PMODEL PAL8
|  3>
|  4> %base "7-19_DFT_AB"
|  5>
|  6> %scf
|  7> MaxIter 1000
|  8> end
|  9>
| 10> * xyz 0 1
| 11>   C                      -1.043704            -4.234054            3.067058
| 12>   O                      -0.967894            -4.898226            4.364749
| 13>   H                      -1.811567            -5.220936            4.592340
| 14>   H                      -1.580061            -3.307889            3.073810
| 15>   H                      -0.006759            -3.989458            2.723288
| 16>   H                      -1.542091            -4.895781            2.312860
| 17>   C                      1.133568             -0.516884            6.785558
| 18>   O                      1.915771             0.504868             7.331157
| 19>   H                      2.600641             0.127832             7.936668
| 20>   H                      0.461457             -0.935861            7.569601
| 21>   H                      0.563237             -0.144390            5.969614
| 22>   H                      1.757236             -1.298917            6.418166
| 23> *
| 24>
| 25> #Run DFT-D3 single point of the molecule with dimer basis set
| 26> $new_job
| 27> %base "7-19_DFT_A"
| 28> ! wB97X-D3 def2-TZVP TIGHTSCF CHELPG PMODEL
| 29>
| 30> %scf
| 31> MaxIter 1000
| 32> end
| 33>
| 34> * xyz 0 1
| 35>   C                      -1.043704            -4.234054            3.067058
| 36>   O                      -0.967894            -4.898226            4.364749
| 37>   H                      -1.811567            -5.220936            4.592340
| 38>   H                      -1.580061            -3.307889            3.073810
| 39>   H                      -0.006759            -3.989458            2.723288
| 40>   H                      -1.542091            -4.895781            2.312860
| 41>   C                    : 1.133568             -0.516884            6.785558
| 42>   O                    : 1.915771             0.504868             7.331157
| 43>   H                    : 2.600641             0.127832             7.936668
| 44>   H                    : 0.461457             -0.935861            7.569601
| 45>   H                    : 0.563237             -0.144390            5.969614
| 46>   H                    : 1.757236             -1.298917            6.418166
| 47> *
| 48>
| 49> #Run DFT-D3 single point of the particle with dimer basis set
| 50> $new_job
| 51> %base "7-19_DFT_B"
| 52> ! wB97X-D3 def2-TZVP TIGHTSCF CHELPG PMODEL
| 53>
| 54> %scf
| 55> MaxIter 1000
| 56> end
| 57>
| 58> * xyz 0 1
| 59>   C                    : -1.043704            -4.234054            3.067058
| 60>   O                    : -0.967894            -4.898226            4.364749
| 61>   H                    : -1.811567            -5.220936            4.592340
| 62>   H                    : -1.580061            -3.307889            3.073810
| 63>   H                    : -0.006759            -3.989458            2.723288
| 64>   H                    : -1.542091            -4.895781            2.312860
| 65>   C                      1.133568             -0.516884            6.785558
| 66>   O                      1.915771             0.504868             7.331157
| 67>   H                      2.600641             0.127832             7.936668
| 68>   H                      0.461457             -0.935861            7.569601
| 69>   H                      0.563237             -0.144390            5.969614
| 70>   H                      1.757236             -1.298917            6.418166
| 71> *
| 72>
| 73>                          ****END OF INPUT****
 Total Charge           Charge          ....    0
 Multiplicity           Mult            ....    1
 Number of Electrons    NEL             ....   36
Dispersion correction           -0.000639634
FINAL SINGLE POINT ENERGY      -231.468216862172
Dispersion correction           -0.000268682
FINAL SINGLE POINT ENERGY      -115.733408126895

CARTESIAN COORDINATES (ANGSTROEM)
---------------------------------
  C     -1.043704   -4.234054    3.067058
  O     -0.967894   -4.898226    4.364749
  H     -1.811567   -5.220936    4.592340
  H     -1.580061   -3.307889    3.073810
  H     -0.006759   -3.989458    2.723288
  H     -1.542091   -4.895781    2.312860
  C      1.133568   -0.516884    6.785558
  O      1.915771    0.504868    7.331157
  H      2.600641    0.127832    7.936668
  H      0.461457   -0.935861    7.569601
  H      0.563237   -0.144390    5.969614
  H      1.757236   -1.298917    6.418166

 Multiplicity           Mult            ....    1
 Number of Electrons    NEL             ....   18
 Basis Dimension        Dim             ....  172

ORBITAL ENERGIES
----------------

  NO   OCC          E(Eh)            E(eV)
   0   2.0000     -19.228285      -523.2282
   1   2.0000     -10.306522      -280.4547
   2   2.0000      -1.133080       -30.8327
   3   2.0000      -0.795051       -21.6344
   4   2.0000      -0.609859       -16.5951
   5   2.0000      -0.543408       -14.7869
   6   2.0000      -0.533603       -14.5201
   7   2.0000      -0.429376       -11.6839
   8   2.0000      -0.369162       -10.0454
   9   0.0000       0.083719         2.2781
  10   0.0000       0.112540         3.0624
  11   0.0000       0.153244         4.1700
  12   0.0000       0.162002         4.4083
  13   0.0000       0.189916         5.1679

MULLIKEN ATOMIC CHARGES
-----------------------
   0 C :    0.000005
   1 O :   -0.000000
   2 H :   -0.000000
   3 H :   -0.000010
   4 H :   -0.000011
   5 H :   -0.000001
   6 C :   -0.151918
   7 O :   -0.483852
   8 H :    0.317605
   9 H :    0.094352
  10 H :    0.121411
  11 H :    0.102420
Sum of atomic charges:    0.0000000

LOEWDIN ATOMIC CHARGES
----------------------
   0 C :   -0.000016
   1 O :   -0.000002
   2 H :   -0.000000
   3 H :   -0.000003
   4 H :   -0.000005
   5 H :   -0.000001
   6 C :   -0.391463
   7 O :   -0.082584
   8 H :    0.185538
   9 H :    0.097732
  10 H :    0.102037
  11 H :    0.088767

  Mayer bond orders larger than 0.1
B(  6-C ,  7-O ) :   0.9979 B(  6-C ,  9-H ) :   0.9784 B(  6-C , 10-H ) :   0.9714
B(  6-C , 11-H ) :   0.9823 B(  7-O ,  8-H ) :   0.8926

Dispersion correction           -0.000226876
FINAL SINGLE POINT ENERGY      -115.734377710816

DIPOLE MOMENT
-------------
                                X             Y             Z
Electronic contribution:      0.90301       1.41466       0.54118
Nuclear contribution   :     -0.76457      -2.05762      -0.40206
                        -----------------------------------------
Total Dipole Moment    :      0.13844      -0.64296       0.13912
                        -----------------------------------------
Magnitude (a.u.)       :      0.67225
Magnitude (Debye)      :      1.70873

Rotational constants in cm-1:     4.314747     0.848337     0.819511
Rotational constants in MHz : 129352.850836 25432.504256 24568.331706

                             ****ORCA TERMINATED NORMALLY****
TOTAL RUN TIME: 0 days 0 hours 1 minutes 0 seconds 474 msec
