                         Program Version 4.1.2  - RELEASE  -
|  1> #Run DFT-D3 single point of the dimer
|  2> ! wB97X-D3 def2-TZVP TIGHTSCF CHELPG PMODEL PAL8
|  3>
|  4> %base "2-172_DFT_AB"
|  5>
|  6> %scf
|  7> MaxIter 1000
|  8> end
|  9>
| 10> * xyz 0 1
| 11>   C                      -5.024703            -0.475523            -9.681912
| 12>   O                      -5.610899            -0.556094            -8.404248
| 13>   H                      -6.295084            0.138355             -8.425728
| 14>   H                      -5.727918            -0.348094            -10.497416
| 15>   H                      -4.225119            0.281107             -9.772922
| 16>   H                      -4.465926            -1.431594            -9.972453
| 17>   C                      -3.647202            1.400535             -4.744171
| 18>   O                      -3.561103            1.011767             -6.071241
| 19>   H                      -4.257948            1.401585             -6.564534
| 20>   H                      -2.627047            1.345191             -4.311513
| 21>   H                      -4.008193            2.395758             -4.440256
| 22>   H                      -4.149570            0.626464             -4.100258
| 23> *
| 24>
| 25> #Run DFT-D3 single point of the molecule with dimer basis set
| 26> $new_job
| 27> %base "2-172_DFT_A"
| 28> ! wB97X-D3 def2-TZVP TIGHTSCF CHELPG PMODEL
| 29>
| 30> %scf
| 31> MaxIter 1000
| 32> end
| 33>
| 34> * xyz 0 1
| 35>   C                      -5.024703            -0.475523            -9.681912
| 36>   O                      -5.610899            -0.556094            -8.404248
| 37>   H                      -6.295084            0.138355             -8.425728
| 38>   H                      -5.727918            -0.348094            -10.497416
| 39>   H                      -4.225119            0.281107             -9.772922
| 40>   H                      -4.465926            -1.431594            -9.972453
| 41>   C                    : -3.647202            1.400535             -4.744171
| 42>   O                    : -3.561103            1.011767             -6.071241
| 43>   H                    : -4.257948            1.401585             -6.564534
| 44>   H                    : -2.627047            1.345191             -4.311513
| 45>   H                    : -4.008193            2.395758             -4.440256
| 46>   H                    : -4.149570            0.626464             -4.100258
| 47> *
| 48>
| 49> #Run DFT-D3 single point of the particle with dimer basis set
| 50> $new_job
| 51> %base "2-172_DFT_B"
| 52> ! wB97X-D3 def2-TZVP TIGHTSCF CHELPG PMODEL
| 53>
| 54> %scf
| 55> MaxIter 1000
| 56> end
| 57>
| 58> * xyz 0 1
| 59>   C                    : -5.024703            -0.475523            -9.681912
| 60>   O                    : -5.610899            -0.556094            -8.404248
| 61>   H                    : -6.295084            0.138355             -8.425728
| 62>   H                    : -5.727918            -0.348094            -10.497416
| 63>   H                    : -4.225119            0.281107             -9.772922
| 64>   H                    : -4.465926            -1.431594            -9.972453
| 65>   C                      -3.647202            1.400535             -4.744171
| 66>   O                      -3.561103            1.011767             -6.071241
| 67>   H                      -4.257948            1.401585             -6.564534
| 68>   H                      -2.627047            1.345191             -4.311513
| 69>   H                      -4.008193            2.395758             -4.440256
| 70>   H                      -4.149570            0.626464             -4.100258
| 71> *
| 72>
| 73>                          ****END OF INPUT****
 Total Charge           Charge          ....    0
 Multiplicity           Mult            ....    1
 Number of Electrons    NEL             ....   36
Dispersion correction           -0.001283494
FINAL SINGLE POINT ENERGY      -231.462902554974
Dispersion correction           -0.000255476
FINAL SINGLE POINT ENERGY      -115.732636636980

CARTESIAN COORDINATES (ANGSTROEM)
---------------------------------
  C     -5.024703   -0.475523   -9.681912
  O     -5.610899   -0.556094   -8.404248
  H     -6.295084    0.138355   -8.425728
  H     -5.727918   -0.348094  -10.497416
  H     -4.225119    0.281107   -9.772922
  H     -4.465926   -1.431594   -9.972453
  C     -3.647202    1.400535   -4.744171
  O     -3.561103    1.011767   -6.071241
  H     -4.257948    1.401585   -6.564534
  H     -2.627047    1.345191   -4.311513
  H     -4.008193    2.395758   -4.440256
  H     -4.149570    0.626464   -4.100258

 Multiplicity           Mult            ....    1
 Number of Electrons    NEL             ....   18
 Basis Dimension        Dim             ....  172

ORBITAL ENERGIES
----------------

  NO   OCC          E(Eh)            E(eV)
   0   2.0000     -19.234613      -523.4004
   1   2.0000     -10.316140      -280.7164
   2   2.0000      -1.151646       -31.3379
   3   2.0000      -0.797461       -21.7000
   4   2.0000      -0.623715       -16.9721
   5   2.0000      -0.536570       -14.6008
   6   2.0000      -0.528069       -14.3695
   7   2.0000      -0.434182       -11.8147
   8   2.0000      -0.371938       -10.1209
   9   0.0000       0.081197         2.2095
  10   0.0000       0.125401         3.4123
  11   0.0000       0.148304         4.0356
  12   0.0000       0.175865         4.7855
  13   0.0000       0.193466         5.2645

MULLIKEN ATOMIC CHARGES
-----------------------
   0 C :   -0.000936
   1 O :   -0.000801
   2 H :   -0.000476
   3 H :    0.000007
   4 H :   -0.000203
   5 H :    0.000096
   6 C :   -0.172781
   7 O :   -0.455603
   8 H :    0.315814
   9 H :    0.112801
  10 H :    0.106719
  11 H :    0.095364
Sum of atomic charges:    0.0000000

LOEWDIN ATOMIC CHARGES
----------------------
   0 C :   -0.000802
   1 O :   -0.001756
   2 H :   -0.000696
   3 H :   -0.000016
   4 H :   -0.000170
   5 H :   -0.000007
   6 C :   -0.423467
   7 O :   -0.036669
   8 H :    0.158236
   9 H :    0.110132
  10 H :    0.096236
  11 H :    0.098980

  Mayer bond orders larger than 0.1
B(  6-C ,  7-O ) :   1.0203 B(  6-C ,  9-H ) :   0.9783 B(  6-C , 10-H ) :   0.9686
B(  6-C , 11-H ) :   0.9757 B(  7-O ,  8-H ) :   0.8995

Dispersion correction           -0.000273119
FINAL SINGLE POINT ENERGY      -115.730761439750

DIPOLE MOMENT
-------------
                                X             Y             Z
Electronic contribution:      0.07314      -0.44281      -1.94572
Nuclear contribution   :     -0.53278       0.86235       2.11626
                        -----------------------------------------
Total Dipole Moment    :     -0.45964       0.41954       0.17054
                        -----------------------------------------
Magnitude (a.u.)       :      0.64527
Magnitude (Debye)      :      1.64013

Rotational constants in cm-1:     4.445262     0.839441     0.810461
Rotational constants in MHz : 133265.596068 25165.811178 24297.005077

                             ****ORCA TERMINATED NORMALLY****
TOTAL RUN TIME: 0 days 0 hours 6 minutes 26 seconds 628 msec
