                         Program Version 4.1.2  - RELEASE  -
|  1> #Run DFT-D3 single point of the dimer
|  2> ! wB97X-D3 def2-TZVP TIGHTSCF CHELPG PMODEL PAL8
|  3>
|  4> %base "18-104_DFT_AB"
|  5>
|  6> %scf
|  7> MaxIter 1000
|  8> end
|  9>
| 10> * xyz 0 1
| 11>   C                      -7.533343            9.986893             10.024184
| 12>   O                      -8.434405            9.247854             9.253754
| 13>   H                      -9.360903            9.576773             9.322728
| 14>   H                      -7.287358            10.958760            9.543611
| 15>   H                      -7.914960            10.142009            11.017530
| 16>   H                      -6.603391            9.494522             10.069739
| 17>   C                      -4.455424            8.432206             7.523167
| 18>   O                      -4.175672            9.819915             7.539359
| 19>   H                      -3.251961            9.819552             7.491903
| 20>   H                      -3.771442            7.898043             8.140377
| 21>   H                      -5.417159            8.206051             7.910426
| 22>   H                      -4.459897            8.099561             6.482089
| 23> *
| 24>
| 25> #Run DFT-D3 single point of the molecule with dimer basis set
| 26> $new_job
| 27> %base "18-104_DFT_A"
| 28> ! wB97X-D3 def2-TZVP TIGHTSCF CHELPG PMODEL
| 29>
| 30> %scf
| 31> MaxIter 1000
| 32> end
| 33>
| 34> * xyz 0 1
| 35>   C                      -7.533343            9.986893             10.024184
| 36>   O                      -8.434405            9.247854             9.253754
| 37>   H                      -9.360903            9.576773             9.322728
| 38>   H                      -7.287358            10.958760            9.543611
| 39>   H                      -7.914960            10.142009            11.017530
| 40>   H                      -6.603391            9.494522             10.069739
| 41>   C                    : -4.455424            8.432206             7.523167
| 42>   O                    : -4.175672            9.819915             7.539359
| 43>   H                    : -3.251961            9.819552             7.491903
| 44>   H                    : -3.771442            7.898043             8.140377
| 45>   H                    : -5.417159            8.206051             7.910426
| 46>   H                    : -4.459897            8.099561             6.482089
| 47> *
| 48>
| 49> #Run DFT-D3 single point of the particle with dimer basis set
| 50> $new_job
| 51> %base "18-104_DFT_B"
| 52> ! wB97X-D3 def2-TZVP TIGHTSCF CHELPG PMODEL
| 53>
| 54> %scf
| 55> MaxIter 1000
| 56> end
| 57>
| 58> * xyz 0 1
| 59>   C                    : -7.533343            9.986893             10.024184
| 60>   O                    : -8.434405            9.247854             9.253754
| 61>   H                    : -9.360903            9.576773             9.322728
| 62>   H                    : -7.287358            10.958760            9.543611
| 63>   H                    : -7.914960            10.142009            11.017530
| 64>   H                    : -6.603391            9.494522             10.069739
| 65>   C                      -4.455424            8.432206             7.523167
| 66>   O                      -4.175672            9.819915             7.539359
| 67>   H                      -3.251961            9.819552             7.491903
| 68>   H                      -3.771442            7.898043             8.140377
| 69>   H                      -5.417159            8.206051             7.910426
| 70>   H                      -4.459897            8.099561             6.482089
| 71> *
| 72>
| 73>                          ****END OF INPUT****
 Total Charge           Charge          ....    0
 Multiplicity           Mult            ....    1
 Number of Electrons    NEL             ....   36
Dispersion correction           -0.001328259
FINAL SINGLE POINT ENERGY      -231.467311030775
Dispersion correction           -0.000242284
FINAL SINGLE POINT ENERGY      -115.733988150936

CARTESIAN COORDINATES (ANGSTROEM)
---------------------------------
  C     -7.533343    9.986893   10.024184
  O     -8.434405    9.247854    9.253754
  H     -9.360903    9.576773    9.322728
  H     -7.287358   10.958760    9.543611
  H     -7.914960   10.142009   11.017530
  H     -6.603391    9.494522   10.069739
  C     -4.455424    8.432206    7.523167
  O     -4.175672    9.819915    7.539359
  H     -3.251961    9.819552    7.491903
  H     -3.771442    7.898043    8.140377
  H     -5.417159    8.206051    7.910426
  H     -4.459897    8.099561    6.482089

 Multiplicity           Mult            ....    1
 Number of Electrons    NEL             ....   18
 Basis Dimension        Dim             ....  172

ORBITAL ENERGIES
----------------

  NO   OCC          E(Eh)            E(eV)
   0   2.0000     -19.226441      -523.1781
   1   2.0000     -10.306397      -280.4513
   2   2.0000      -1.146752       -31.2047
   3   2.0000      -0.800674       -21.7874
   4   2.0000      -0.612122       -16.6567
   5   2.0000      -0.550173       -14.9710
   6   2.0000      -0.531291       -14.4572
   7   2.0000      -0.440305       -11.9813
   8   2.0000      -0.375193       -10.2095
   9   0.0000       0.091621         2.4931
  10   0.0000       0.121480         3.3056
  11   0.0000       0.158545         4.3142
  12   0.0000       0.172404         4.6913
  13   0.0000       0.189501         5.1566

MULLIKEN ATOMIC CHARGES
-----------------------
   0 C :    0.000386
   1 O :   -0.000161
   2 H :   -0.000005
   3 H :   -0.000504
   4 H :    0.000039
   5 H :    0.000174
   6 C :   -0.169323
   7 O :   -0.458851
   8 H :    0.304274
   9 H :    0.104093
  10 H :    0.114895
  11 H :    0.104983
Sum of atomic charges:   -0.0000000

LOEWDIN ATOMIC CHARGES
----------------------
   0 C :   -0.001343
   1 O :   -0.000182
   2 H :   -0.000006
   3 H :   -0.000245
   4 H :   -0.000004
   5 H :   -0.001025
   6 C :   -0.374249
   7 O :   -0.059995
   8 H :    0.148204
   9 H :    0.091309
  10 H :    0.099390
  11 H :    0.098146

  Mayer bond orders larger than 0.1
B(  6-C ,  7-O ) :   0.9959 B(  6-C ,  9-H ) :   0.9838 B(  6-C , 10-H ) :   0.9764
B(  6-C , 11-H ) :   0.9817 B(  7-O ,  8-H ) :   0.9141

Dispersion correction           -0.000209632
FINAL SINGLE POINT ENERGY      -115.731875208188

DIPOLE MOMENT
-------------
                                X             Y             Z
Electronic contribution:      0.22990       1.79395       0.07144
Nuclear contribution   :      0.23298      -2.34869      -0.08585
                        -----------------------------------------
Total Dipole Moment    :      0.46287      -0.55473      -0.01441
                        -----------------------------------------
Magnitude (a.u.)       :      0.72263
Magnitude (Debye)      :      1.83677

Rotational constants in cm-1:     4.425140     0.840402     0.817950
Rotational constants in MHz : 132662.355787 25194.617303 24521.529184

                             ****ORCA TERMINATED NORMALLY****
TOTAL RUN TIME: 0 days 0 hours 1 minutes 5 seconds 176 msec
