                         Program Version 4.1.2  - RELEASE  -
|  1> #Run DFT-D3 single point of the dimer
|  2> ! wB97X-D3 def2-TZVP TIGHTSCF  CHELPG PAL8
|  3>
|  4> %base "64_charges"
|  5>
|  6> %scf
|  7> MaxIter 1000
|  8> end
|  9> %output
| 10>   Print[ P_Mayer ] 1
| 11>   Print[ P_NatPop ] 1
| 12>   Print[ P_Hirshfeld ] 1
| 13>   Print[ P_Mulliken ] 1
| 14>   Print [ P_Loewdin ] 1
| 15> end
| 16>
| 17> * xyz 0 1
| 18>   C                      9.495482             -10.342722           -3.673967
| 19>   O                      10.644217            -9.910621            -3.001201
| 20>   H                      10.948021            -10.622128           -2.414928
| 21>   H                      9.815591             -11.141785           -4.446540
| 22>   H                      8.789315             -10.850703           -3.008992
| 23>   H                      8.927938             -9.488505            -4.042059
| 24> *
| 25>
| 26>                          ****END OF INPUT****

CARTESIAN COORDINATES (ANGSTROEM)
---------------------------------
  C      9.495482  -10.342722   -3.673967
  O     10.644217   -9.910621   -3.001201
  H     10.948021  -10.622128   -2.414928
  H      9.815591  -11.141785   -4.446540
  H      8.789315  -10.850703   -3.008992
  H      8.927938   -9.488505   -4.042059

 Total Charge           Charge          ....    0
 Multiplicity           Mult            ....    1
 Number of Electrons    NEL             ....   18
 Basis Dimension        Dim             ....   86

ORBITAL ENERGIES
----------------

  NO   OCC          E(Eh)            E(eV)
   0   2.0000     -19.229901      -523.2722
   1   2.0000     -10.318187      -280.7721
   2   2.0000      -1.138341       -30.9758
   3   2.0000      -0.789944       -21.4955
   4   2.0000      -0.612315       -16.6619
   5   2.0000      -0.546095       -14.8600
   6   2.0000      -0.520548       -14.1648
   7   2.0000      -0.431736       -11.7481
   8   2.0000      -0.369214       -10.0468
   9   0.0000       0.112587         3.0636
  10   0.0000       0.155078         4.2199
  11   0.0000       0.193853         5.2750
  12   0.0000       0.203772         5.5449
  13   0.0000       0.229405         6.2424

MULLIKEN ATOMIC CHARGES
-----------------------
   0 C :   -0.166427
   1 O :   -0.471202
   2 H :    0.316927
   3 H :    0.095695
   4 H :    0.100941
   5 H :    0.124066
Sum of atomic charges:    0.0000000

LOEWDIN ATOMIC CHARGES
----------------------
   0 C :   -0.404177
   1 O :   -0.075480
   2 H :    0.176142
   3 H :    0.104312
   4 H :    0.091456
   5 H :    0.107746

  Mayer bond orders larger than 0.1
B(  0-C ,  1-O ) :   0.9993 B(  0-C ,  3-H ) :   0.9766 B(  0-C ,  4-H ) :   0.9762
B(  0-C ,  5-H ) :   0.9699 B(  1-O ,  2-H ) :   0.8959

Dispersion correction           -0.000236439
FINAL SINGLE POINT ENERGY      -115.731893373761

DIPOLE MOMENT
-------------
                                X             Y             Z
Electronic contribution:      1.46338       0.80671       0.76862
Nuclear contribution   :     -1.73501      -1.40664      -0.61355
                        -----------------------------------------
Total Dipole Moment    :     -0.27163      -0.59993       0.15506
                        -----------------------------------------
Magnitude (a.u.)       :      0.67657
Magnitude (Debye)      :      1.71970

Rotational constants in cm-1:     4.124960     0.842768     0.812731
Rotational constants in MHz : 123663.192812 25265.549123 24365.074824

                             ****ORCA TERMINATED NORMALLY****
TOTAL RUN TIME: 0 days 0 hours 0 minutes 41 seconds 258 msec
