                         Program Version 4.1.2  - RELEASE  -
|  1> #Run DFT-D3 single point of the dimer
|  2> ! wB97X-D3 def2-TZVP TIGHTSCF CHELPG PMODEL PAL8
|  3>
|  4> %base "1-144_DFT_AB"
|  5>
|  6> %scf
|  7> MaxIter 1000
|  8> end
|  9>
| 10> * xyz 0 1
| 11>   C                      -7.803609            -10.950523           0.162393
| 12>   O                      -7.511823            -9.544146            -0.088906
| 13>   H                      -8.132574            -9.169331            -0.766150
| 14>   H                      -6.958207            -11.511024           0.455349
| 15>   H                      -8.632460            -10.992537           0.912694
| 16>   H                      -8.119000            -11.448685           -0.746248
| 17>   C                      -6.491210            -8.481387            -1.791997
| 18>   O                      -5.921451            -9.793450            -1.602749
| 19>   H                      -5.765554            -9.851945            -0.642121
| 20>   H                      -6.031309            -7.828102            -2.509540
| 21>   H                      -7.534924            -8.603716            -2.029475
| 22>   H                      -6.563337            -7.926982            -0.853387
| 23> *
| 24>
| 25> #Run DFT-D3 single point of the molecule with dimer basis set
| 26> $new_job
| 27> %base "1-144_DFT_A"
| 28> ! wB97X-D3 def2-TZVP TIGHTSCF CHELPG PMODEL
| 29>
| 30> %scf
| 31> MaxIter 1000
| 32> end
| 33>
| 34> * xyz 0 1
| 35>   C                      -7.803609            -10.950523           0.162393
| 36>   O                      -7.511823            -9.544146            -0.088906
| 37>   H                      -8.132574            -9.169331            -0.766150
| 38>   H                      -6.958207            -11.511024           0.455349
| 39>   H                      -8.632460            -10.992537           0.912694
| 40>   H                      -8.119000            -11.448685           -0.746248
| 41>   C                    : -6.491210            -8.481387            -1.791997
| 42>   O                    : -5.921451            -9.793450            -1.602749
| 43>   H                    : -5.765554            -9.851945            -0.642121
| 44>   H                    : -6.031309            -7.828102            -2.509540
| 45>   H                    : -7.534924            -8.603716            -2.029475
| 46>   H                    : -6.563337            -7.926982            -0.853387
| 47> *
| 48>
| 49> #Run DFT-D3 single point of the particle with dimer basis set
| 50> $new_job
| 51> %base "1-144_DFT_B"
| 52> ! wB97X-D3 def2-TZVP TIGHTSCF CHELPG PMODEL
| 53>
| 54> %scf
| 55> MaxIter 1000
| 56> end
| 57>
| 58> * xyz 0 1
| 59>   C                    : -7.803609            -10.950523           0.162393
| 60>   O                    : -7.511823            -9.544146            -0.088906
| 61>   H                    : -8.132574            -9.169331            -0.766150
| 62>   H                    : -6.958207            -11.511024           0.455349
| 63>   H                    : -8.632460            -10.992537           0.912694
| 64>   H                    : -8.119000            -11.448685           -0.746248
| 65>   C                      -6.491210            -8.481387            -1.791997
| 66>   O                      -5.921451            -9.793450            -1.602749
| 67>   H                      -5.765554            -9.851945            -0.642121
| 68>   H                      -6.031309            -7.828102            -2.509540
| 69>   H                      -7.534924            -8.603716            -2.029475
| 70>   H                      -6.563337            -7.926982            -0.853387
| 71> *
| 72>
| 73>                          ****END OF INPUT****
 Total Charge           Charge          ....    0
 Multiplicity           Mult            ....    1
 Number of Electrons    NEL             ....   36
Dispersion correction           -0.002099633
FINAL SINGLE POINT ENERGY      -231.418653167318
Dispersion correction           -0.000263254
FINAL SINGLE POINT ENERGY      -115.731802085592

CARTESIAN COORDINATES (ANGSTROEM)
---------------------------------
  C     -7.803609  -10.950523    0.162393
  O     -7.511823   -9.544146   -0.088906
  H     -8.132574   -9.169331   -0.766150
  H     -6.958207  -11.511024    0.455349
  H     -8.632460  -10.992537    0.912694
  H     -8.119000  -11.448685   -0.746248
  C     -6.491210   -8.481387   -1.791997
  O     -5.921451   -9.793450   -1.602749
  H     -5.765554   -9.851945   -0.642121
  H     -6.031309   -7.828102   -2.509540
  H     -7.534924   -8.603716   -2.029475
  H     -6.563337   -7.926982   -0.853387

 Multiplicity           Mult            ....    1
 Number of Electrons    NEL             ....   18
 Basis Dimension        Dim             ....  172

ORBITAL ENERGIES
----------------

  NO   OCC          E(Eh)            E(eV)
   0   2.0000     -19.235983      -523.4377
   1   2.0000     -10.311768      -280.5975
   2   2.0000      -1.128534       -30.7090
   3   2.0000      -0.799466       -21.7546
   4   2.0000      -0.607010       -16.5176
   5   2.0000      -0.544414       -14.8143
   6   2.0000      -0.522064       -14.2061
   7   2.0000      -0.437893       -11.9157
   8   2.0000      -0.377445       -10.2708
   9   0.0000       0.082688         2.2501
  10   0.0000       0.138649         3.7728
  11   0.0000       0.142916         3.8889
  12   0.0000       0.183529         4.9941
  13   0.0000       0.192948         5.2504

MULLIKEN ATOMIC CHARGES
-----------------------
   0 C :   -0.010209
   1 O :   -0.013796
   2 H :   -0.003038
   3 H :   -0.001885
   4 H :   -0.000818
   5 H :   -0.001962
   6 C :   -0.185018
   7 O :   -0.457501
   8 H :    0.322821
   9 H :    0.126516
  10 H :    0.109572
  11 H :    0.115317
Sum of atomic charges:   -0.0000000

LOEWDIN ATOMIC CHARGES
----------------------
   0 C :   -0.030218
   1 O :   -0.092389
   2 H :   -0.038573
   3 H :   -0.003549
   4 H :   -0.000528
   5 H :   -0.003549
   6 C :   -0.319088
   7 O :   -0.044312
   8 H :    0.196830
   9 H :    0.099140
  10 H :    0.120089
  11 H :    0.116148

  Mayer bond orders larger than 0.1
B(  6-C ,  7-O ) :   0.9855 B(  6-C ,  9-H ) :   0.9664 B(  6-C , 10-H ) :   0.9821
B(  6-C , 11-H ) :   0.9906 B(  7-O ,  8-H ) :   0.8970

Dispersion correction           -0.000253618
FINAL SINGLE POINT ENERGY      -115.731485509277

DIPOLE MOMENT
-------------
                                X             Y             Z
Electronic contribution:      0.86779      -1.69951      -0.05307
Nuclear contribution   :     -1.00624       2.21503       0.57584
                        -----------------------------------------
Total Dipole Moment    :     -0.13845       0.51552       0.52277
                        -----------------------------------------
Magnitude (a.u.)       :      0.74714
Magnitude (Debye)      :      1.89908

Rotational constants in cm-1:     4.410261     0.802839     0.774428
Rotational constants in MHz : 132216.285131 24068.517274 23216.773447

                             ****ORCA TERMINATED NORMALLY****
TOTAL RUN TIME: 0 days 0 hours 6 minutes 1 seconds 969 msec
