                         Program Version 4.1.2  - RELEASE  -
|  1> #Run DFT-D3 single point of the dimer
|  2> ! wB97X-D3 def2-TZVP TIGHTSCF CHELPG PMODEL PAL8
|  3>
|  4> %base "14-198_DFT_AB"
|  5>
|  6> %scf
|  7> MaxIter 1000
|  8> end
|  9>
| 10> * xyz 0 1
| 11>   C                      -6.458469            -3.853157            5.668756
| 12>   O                      -5.954118            -2.567601            5.797055
| 13>   H                      -5.596299            -2.542622            6.664527
| 14>   H                      -5.718393            -4.654806            5.507057
| 15>   H                      -7.068729            -4.054793            6.565655
| 16>   H                      -7.142532            -3.924927            4.806965
| 17>   C                      -2.959016            -4.795412            6.220165
| 18>   O                      -2.797570            -3.381077            6.160881
| 19>   H                      -2.926890            -3.040397            7.064037
| 20>   H                      -3.772046            -5.074575            6.880793
| 21>   H                      -3.078186            -5.266677            5.185687
| 22>   H                      -2.072949            -5.202316            6.634486
| 23> *
| 24>
| 25> #Run DFT-D3 single point of the molecule with dimer basis set
| 26> $new_job
| 27> %base "14-198_DFT_A"
| 28> ! wB97X-D3 def2-TZVP TIGHTSCF CHELPG PMODEL
| 29>
| 30> %scf
| 31> MaxIter 1000
| 32> end
| 33>
| 34> * xyz 0 1
| 35>   C                      -6.458469            -3.853157            5.668756
| 36>   O                      -5.954118            -2.567601            5.797055
| 37>   H                      -5.596299            -2.542622            6.664527
| 38>   H                      -5.718393            -4.654806            5.507057
| 39>   H                      -7.068729            -4.054793            6.565655
| 40>   H                      -7.142532            -3.924927            4.806965
| 41>   C                    : -2.959016            -4.795412            6.220165
| 42>   O                    : -2.797570            -3.381077            6.160881
| 43>   H                    : -2.926890            -3.040397            7.064037
| 44>   H                    : -3.772046            -5.074575            6.880793
| 45>   H                    : -3.078186            -5.266677            5.185687
| 46>   H                    : -2.072949            -5.202316            6.634486
| 47> *
| 48>
| 49> #Run DFT-D3 single point of the particle with dimer basis set
| 50> $new_job
| 51> %base "14-198_DFT_B"
| 52> ! wB97X-D3 def2-TZVP TIGHTSCF CHELPG PMODEL
| 53>
| 54> %scf
| 55> MaxIter 1000
| 56> end
| 57>
| 58> * xyz 0 1
| 59>   C                    : -6.458469            -3.853157            5.668756
| 60>   O                    : -5.954118            -2.567601            5.797055
| 61>   H                    : -5.596299            -2.542622            6.664527
| 62>   H                    : -5.718393            -4.654806            5.507057
| 63>   H                    : -7.068729            -4.054793            6.565655
| 64>   H                    : -7.142532            -3.924927            4.806965
| 65>   C                      -2.959016            -4.795412            6.220165
| 66>   O                      -2.797570            -3.381077            6.160881
| 67>   H                      -2.926890            -3.040397            7.064037
| 68>   H                      -3.772046            -5.074575            6.880793
| 69>   H                      -3.078186            -5.266677            5.185687
| 70>   H                      -2.072949            -5.202316            6.634486
| 71> *
| 72>
| 73>                          ****END OF INPUT****
 Total Charge           Charge          ....    0
 Multiplicity           Mult            ....    1
 Number of Electrons    NEL             ....   36
Dispersion correction           -0.002183197
FINAL SINGLE POINT ENERGY      -231.465301064962
Dispersion correction           -0.000224890
FINAL SINGLE POINT ENERGY      -115.734372285925

CARTESIAN COORDINATES (ANGSTROEM)
---------------------------------
  C     -6.458469   -3.853157    5.668756
  O     -5.954118   -2.567601    5.797055
  H     -5.596299   -2.542622    6.664527
  H     -5.718393   -4.654806    5.507057
  H     -7.068729   -4.054793    6.565655
  H     -7.142532   -3.924927    4.806965
  C     -2.959016   -4.795412    6.220165
  O     -2.797570   -3.381077    6.160881
  H     -2.926890   -3.040397    7.064037
  H     -3.772046   -5.074575    6.880793
  H     -3.078186   -5.266677    5.185687
  H     -2.072949   -5.202316    6.634486

 Multiplicity           Mult            ....    1
 Number of Electrons    NEL             ....   18
 Basis Dimension        Dim             ....  172

ORBITAL ENERGIES
----------------

  NO   OCC          E(Eh)            E(eV)
   0   2.0000     -19.230702      -523.2940
   1   2.0000     -10.314059      -280.6598
   2   2.0000      -1.130909       -30.7736
   3   2.0000      -0.793702       -21.5977
   4   2.0000      -0.608417       -16.5559
   5   2.0000      -0.542119       -14.7518
   6   2.0000      -0.524321       -14.2675
   7   2.0000      -0.435337       -11.8461
   8   2.0000      -0.371683       -10.1140
   9   0.0000       0.086550         2.3552
  10   0.0000       0.125481         3.4145
  11   0.0000       0.149002         4.0546
  12   0.0000       0.178478         4.8566
  13   0.0000       0.193710         5.2711

MULLIKEN ATOMIC CHARGES
-----------------------
   0 C :    0.002659
   1 O :    0.000529
   2 H :   -0.006716
   3 H :   -0.001686
   4 H :   -0.000335
   5 H :    0.000067
   6 C :   -0.177133
   7 O :   -0.474982
   8 H :    0.316607
   9 H :    0.109021
  10 H :    0.117773
  11 H :    0.114195
Sum of atomic charges:   -0.0000000

LOEWDIN ATOMIC CHARGES
----------------------
   0 C :   -0.005083
   1 O :   -0.003407
   2 H :   -0.004944
   3 H :   -0.004924
   4 H :   -0.000094
   5 H :   -0.000019
   6 C :   -0.375902
   7 O :   -0.086343
   8 H :    0.177296
   9 H :    0.095657
  10 H :    0.119738
  11 H :    0.088026

  Mayer bond orders larger than 0.1
B(  6-C ,  7-O ) :   0.9890 B(  6-C ,  9-H ) :   0.9801 B(  6-C , 10-H ) :   0.9707
B(  6-C , 11-H ) :   0.9776 B(  7-O ,  8-H ) :   0.8959

Dispersion correction           -0.000233824
FINAL SINGLE POINT ENERGY      -115.732826532620

DIPOLE MOMENT
-------------
                                X             Y             Z
Electronic contribution:      0.18659       1.78144      -0.22982
Nuclear contribution   :     -0.31280      -2.14978       0.83550
                        -----------------------------------------
Total Dipole Moment    :     -0.12621      -0.36834       0.60568
                        -----------------------------------------
Magnitude (a.u.)       :      0.72004
Magnitude (Debye)      :      1.83020

Rotational constants in cm-1:     4.254617     0.826964     0.786884
Rotational constants in MHz : 127550.216456 24791.749435 23590.186999

                             ****ORCA TERMINATED NORMALLY****
TOTAL RUN TIME: 0 days 0 hours 1 minutes 4 seconds 13 msec
