                         Program Version 4.1.2  - RELEASE  -
|  1> #Run DFT-D3 single point of the dimer
|  2> ! wB97X-D3 def2-TZVP TIGHTSCF CHELPG PMODEL PAL8
|  3>
|  4> %base "17-163_DFT_AB"
|  5>
|  6> %scf
|  7> MaxIter 1000
|  8> end
|  9>
| 10> * xyz 0 1
| 11>   C                      4.150978             -8.128373            6.746829
| 12>   O                      2.942446             -8.051639            7.445217
| 13>   H                      2.835068             -7.172341            7.782196
| 14>   H                      3.960179             -7.619016            5.778726
| 15>   H                      4.960546             -7.596341            7.237245
| 16>   H                      4.481966             -9.161602            6.621460
| 17>   C                      3.629053             -10.067203           10.010666
| 18>   O                      3.062133             -10.602289           8.908050
| 19>   H                      3.111479             -9.974572            8.115587
| 20>   H                      4.494898             -10.598688           10.325043
| 21>   H                      3.927411             -9.128733            9.631725
| 22>   H                      2.928316             -9.972586            10.864045
| 23> *
| 24>
| 25> #Run DFT-D3 single point of the molecule with dimer basis set
| 26> $new_job
| 27> %base "17-163_DFT_A"
| 28> ! wB97X-D3 def2-TZVP TIGHTSCF CHELPG PMODEL
| 29>
| 30> %scf
| 31> MaxIter 1000
| 32> end
| 33>
| 34> * xyz 0 1
| 35>   C                      4.150978             -8.128373            6.746829
| 36>   O                      2.942446             -8.051639            7.445217
| 37>   H                      2.835068             -7.172341            7.782196
| 38>   H                      3.960179             -7.619016            5.778726
| 39>   H                      4.960546             -7.596341            7.237245
| 40>   H                      4.481966             -9.161602            6.621460
| 41>   C                    : 3.629053             -10.067203           10.010666
| 42>   O                    : 3.062133             -10.602289           8.908050
| 43>   H                    : 3.111479             -9.974572            8.115587
| 44>   H                    : 4.494898             -10.598688           10.325043
| 45>   H                    : 3.927411             -9.128733            9.631725
| 46>   H                    : 2.928316             -9.972586            10.864045
| 47> *
| 48>
| 49> #Run DFT-D3 single point of the particle with dimer basis set
| 50> $new_job
| 51> %base "17-163_DFT_B"
| 52> ! wB97X-D3 def2-TZVP TIGHTSCF CHELPG PMODEL
| 53>
| 54> %scf
| 55> MaxIter 1000
| 56> end
| 57>
| 58> * xyz 0 1
| 59>   C                    : 4.150978             -8.128373            6.746829
| 60>   O                    : 2.942446             -8.051639            7.445217
| 61>   H                    : 2.835068             -7.172341            7.782196
| 62>   H                    : 3.960179             -7.619016            5.778726
| 63>   H                    : 4.960546             -7.596341            7.237245
| 64>   H                    : 4.481966             -9.161602            6.621460
| 65>   C                      3.629053             -10.067203           10.010666
| 66>   O                      3.062133             -10.602289           8.908050
| 67>   H                      3.111479             -9.974572            8.115587
| 68>   H                      4.494898             -10.598688           10.325043
| 69>   H                      3.927411             -9.128733            9.631725
| 70>   H                      2.928316             -9.972586            10.864045
| 71> *
| 72>
| 73>                          ****END OF INPUT****
 Total Charge           Charge          ....    0
 Multiplicity           Mult            ....    1
 Number of Electrons    NEL             ....   36
Dispersion correction           -0.002155217
FINAL SINGLE POINT ENERGY      -231.462553614978
Dispersion correction           -0.000223082
FINAL SINGLE POINT ENERGY      -115.734886744313

CARTESIAN COORDINATES (ANGSTROEM)
---------------------------------
  C      4.150978   -8.128373    6.746829
  O      2.942446   -8.051639    7.445217
  H      2.835068   -7.172341    7.782196
  H      3.960179   -7.619016    5.778726
  H      4.960546   -7.596341    7.237245
  H      4.481966   -9.161602    6.621460
  C      3.629053  -10.067203   10.010666
  O      3.062133  -10.602289    8.908050
  H      3.111479   -9.974572    8.115587
  H      4.494898  -10.598688   10.325043
  H      3.927411   -9.128733    9.631725
  H      2.928316   -9.972586   10.864045

 Multiplicity           Mult            ....    1
 Number of Electrons    NEL             ....   18
 Basis Dimension        Dim             ....  172

ORBITAL ENERGIES
----------------

  NO   OCC          E(Eh)            E(eV)
   0   2.0000     -19.228839      -523.2433
   1   2.0000     -10.300830      -280.2998
   2   2.0000      -1.147249       -31.2182
   3   2.0000      -0.789868       -21.4934
   4   2.0000      -0.618849       -16.8397
   5   2.0000      -0.550755       -14.9868
   6   2.0000      -0.546900       -14.8819
   7   2.0000      -0.412865       -11.2346
   8   2.0000      -0.368366       -10.0237
   9   0.0000       0.061900         1.6844
  10   0.0000       0.141176         3.8416
  11   0.0000       0.150922         4.1068
  12   0.0000       0.157605         4.2886
  13   0.0000       0.185906         5.0588

MULLIKEN ATOMIC CHARGES
-----------------------
   0 C :   -0.001609
   1 O :   -0.004134
   2 H :   -0.000205
   3 H :   -0.000236
   4 H :   -0.000228
   5 H :   -0.003947
   6 C :   -0.111912
   7 O :   -0.475475
   8 H :    0.326851
   9 H :    0.097003
  10 H :    0.079488
  11 H :    0.094405
Sum of atomic charges:    0.0000000

LOEWDIN ATOMIC CHARGES
----------------------
   0 C :   -0.011397
   1 O :   -0.015813
   2 H :   -0.000888
   3 H :   -0.000135
   4 H :   -0.000402
   5 H :   -0.004344
   6 C :   -0.421079
   7 O :   -0.042452
   8 H :    0.212726
   9 H :    0.091172
  10 H :    0.091551
  11 H :    0.101063

  Mayer bond orders larger than 0.1
B(  6-C ,  7-O ) :   0.9967 B(  6-C ,  9-H ) :   0.9748 B(  6-C , 10-H ) :   1.0085
B(  6-C , 11-H ) :   0.9734 B(  7-O ,  8-H ) :   0.8945

Dispersion correction           -0.000213920
FINAL SINGLE POINT ENERGY      -115.721388182562

DIPOLE MOMENT
-------------
                                X             Y             Z
Electronic contribution:     -0.76069      -0.87844      -1.26840
Nuclear contribution   :      1.01373       1.48574       1.15114
                        -----------------------------------------
Total Dipole Moment    :      0.25304       0.60729      -0.11726
                        -----------------------------------------
Magnitude (a.u.)       :      0.66827
Magnitude (Debye)      :      1.69861

Rotational constants in cm-1:     4.353443     0.900874     0.866729
Rotational constants in MHz : 130512.927168 27007.518293 25983.887637

                             ****ORCA TERMINATED NORMALLY****
TOTAL RUN TIME: 0 days 0 hours 1 minutes 14 seconds 369 msec
