                         Program Version 4.1.2  - RELEASE  -
|  1> #Run DFT-D3 single point of the dimer
|  2> ! wB97X-D3 def2-TZVP TIGHTSCF CHELPG PMODEL PAL8
|  3>
|  4> %base "12-81_DFT_AB"
|  5>
|  6> %scf
|  7> MaxIter 1000
|  8> end
|  9>
| 10> * xyz 0 1
| 11>   C                      -4.658780            -2.037883            7.649658
| 12>   O                      -5.337638            -1.572166            6.540238
| 13>   H                      -6.235660            -1.469603            6.901389
| 14>   H                      -3.612432            -1.652803            7.614765
| 15>   H                      -5.188026            -1.588476            8.460927
| 16>   H                      -4.629709            -3.094023            7.716798
| 17>   C                      -7.007349            -1.144649            3.500469
| 18>   O                      -8.062539            -2.026212            3.825962
| 19>   H                      -8.047566            -2.332672            4.734233
| 20>   H                      -7.376395            -0.294412            2.890347
| 21>   H                      -6.574996            -0.687482            4.454638
| 22>   H                      -6.225119            -1.631320            2.828627
| 23> *
| 24>
| 25> #Run DFT-D3 single point of the molecule with dimer basis set
| 26> $new_job
| 27> %base "12-81_DFT_A"
| 28> ! wB97X-D3 def2-TZVP TIGHTSCF CHELPG PMODEL
| 29>
| 30> %scf
| 31> MaxIter 1000
| 32> end
| 33>
| 34> * xyz 0 1
| 35>   C                      -4.658780            -2.037883            7.649658
| 36>   O                      -5.337638            -1.572166            6.540238
| 37>   H                      -6.235660            -1.469603            6.901389
| 38>   H                      -3.612432            -1.652803            7.614765
| 39>   H                      -5.188026            -1.588476            8.460927
| 40>   H                      -4.629709            -3.094023            7.716798
| 41>   C                    : -7.007349            -1.144649            3.500469
| 42>   O                    : -8.062539            -2.026212            3.825962
| 43>   H                    : -8.047566            -2.332672            4.734233
| 44>   H                    : -7.376395            -0.294412            2.890347
| 45>   H                    : -6.574996            -0.687482            4.454638
| 46>   H                    : -6.225119            -1.631320            2.828627
| 47> *
| 48>
| 49> #Run DFT-D3 single point of the particle with dimer basis set
| 50> $new_job
| 51> %base "12-81_DFT_B"
| 52> ! wB97X-D3 def2-TZVP TIGHTSCF CHELPG PMODEL
| 53>
| 54> %scf
| 55> MaxIter 1000
| 56> end
| 57>
| 58> * xyz 0 1
| 59>   C                    : -4.658780            -2.037883            7.649658
| 60>   O                    : -5.337638            -1.572166            6.540238
| 61>   H                    : -6.235660            -1.469603            6.901389
| 62>   H                    : -3.612432            -1.652803            7.614765
| 63>   H                    : -5.188026            -1.588476            8.460927
| 64>   H                    : -4.629709            -3.094023            7.716798
| 65>   C                      -7.007349            -1.144649            3.500469
| 66>   O                      -8.062539            -2.026212            3.825962
| 67>   H                      -8.047566            -2.332672            4.734233
| 68>   H                      -7.376395            -0.294412            2.890347
| 69>   H                      -6.574996            -0.687482            4.454638
| 70>   H                      -6.225119            -1.631320            2.828627
| 71> *
| 72>
| 73>                          ****END OF INPUT****
 Total Charge           Charge          ....    0
 Multiplicity           Mult            ....    1
 Number of Electrons    NEL             ....   36
Dispersion correction           -0.001481938
FINAL SINGLE POINT ENERGY      -231.460242897622
Dispersion correction           -0.000197371
FINAL SINGLE POINT ENERGY      -115.728381452095

CARTESIAN COORDINATES (ANGSTROEM)
---------------------------------
  C     -4.658780   -2.037883    7.649658
  O     -5.337638   -1.572166    6.540238
  H     -6.235660   -1.469603    6.901389
  H     -3.612432   -1.652803    7.614765
  H     -5.188026   -1.588476    8.460927
  H     -4.629709   -3.094023    7.716798
  C     -7.007349   -1.144649    3.500469
  O     -8.062539   -2.026212    3.825962
  H     -8.047566   -2.332672    4.734233
  H     -7.376395   -0.294412    2.890347
  H     -6.574996   -0.687482    4.454638
  H     -6.225119   -1.631320    2.828627

 Multiplicity           Mult            ....    1
 Number of Electrons    NEL             ....   18
 Basis Dimension        Dim             ....  172

ORBITAL ENERGIES
----------------

  NO   OCC          E(Eh)            E(eV)
   0   2.0000     -19.229028      -523.2485
   1   2.0000     -10.325892      -280.9818
   2   2.0000      -1.133744       -30.8508
   3   2.0000      -0.790730       -21.5168
   4   2.0000      -0.608859       -16.5679
   5   2.0000      -0.535883       -14.5821
   6   2.0000      -0.527799       -14.3621
   7   2.0000      -0.423172       -11.5151
   8   2.0000      -0.371360       -10.1052
   9   0.0000       0.075861         2.0643
  10   0.0000       0.117619         3.2006
  11   0.0000       0.147494         4.0135
  12   0.0000       0.177804         4.8383
  13   0.0000       0.190310         5.1786

MULLIKEN ATOMIC CHARGES
-----------------------
   0 C :   -0.000112
   1 O :    0.000599
   2 H :   -0.000192
   3 H :   -0.000018
   4 H :   -0.000009
   5 H :    0.000001
   6 C :   -0.158853
   7 O :   -0.483016
   8 H :    0.321747
   9 H :    0.116976
  10 H :    0.096791
  11 H :    0.106086
Sum of atomic charges:   -0.0000000

LOEWDIN ATOMIC CHARGES
----------------------
   0 C :   -0.000285
   1 O :   -0.004772
   2 H :   -0.002008
   3 H :   -0.000011
   4 H :   -0.000013
   5 H :   -0.000009
   6 C :   -0.395480
   7 O :   -0.079601
   8 H :    0.166756
   9 H :    0.104537
  10 H :    0.106266
  11 H :    0.104619

  Mayer bond orders larger than 0.1
B(  6-C ,  7-O ) :   1.0023 B(  6-C ,  9-H ) :   0.9724 B(  6-C , 10-H ) :   0.9809
B(  6-C , 11-H ) :   0.9708 B(  7-O ,  8-H ) :   0.8949

Dispersion correction           -0.000273794
FINAL SINGLE POINT ENERGY      -115.731363563698

DIPOLE MOMENT
-------------
                                X             Y             Z
Electronic contribution:     -1.40394      -1.17911       0.34294
Nuclear contribution   :      1.80981       1.34427       0.13509
                        -----------------------------------------
Total Dipole Moment    :      0.40586       0.16516       0.47804
                        -----------------------------------------
Magnitude (a.u.)       :      0.64848
Magnitude (Debye)      :      1.64829

Rotational constants in cm-1:     4.158369     0.817673     0.786778
Rotational constants in MHz : 124664.753516 24513.222118 23587.014179

                             ****ORCA TERMINATED NORMALLY****
TOTAL RUN TIME: 0 days 0 hours 1 minutes 7 seconds 996 msec
