                         Program Version 4.1.2  - RELEASE  -
|  1> #Run DFT-D3 single point of the dimer
|  2> ! wB97X-D3 def2-TZVP TIGHTSCF CHELPG PMODEL PAL8
|  3>
|  4> %base "11-104_DFT_AB"
|  5>
|  6> %scf
|  7> MaxIter 1000
|  8> end
|  9>
| 10> * xyz 0 1
| 11>   C                      -3.641882            -6.013494            -3.653541
| 12>   O                      -3.109496            -5.033797            -2.834084
| 13>   H                      -2.177298            -4.956198            -2.865698
| 14>   H                      -3.149717            -6.980031            -3.450855
| 15>   H                      -4.734627            -6.165777            -3.567122
| 16>   H                      -3.537758            -5.813317            -4.687027
| 17>   C                      -0.128275            -6.062535            -0.900614
| 18>   O                      -0.606964            -5.157985            -1.973514
| 19>   H                      0.108074             -4.792227            -2.433733
| 20>   H                      0.831254             -5.700204            -0.480660
| 21>   H                      -0.786581            -5.973585            -0.031520
| 22>   H                      -0.009943            -7.163101            -1.222889
| 23> *
| 24>
| 25> #Run DFT-D3 single point of the molecule with dimer basis set
| 26> $new_job
| 27> %base "11-104_DFT_A"
| 28> ! wB97X-D3 def2-TZVP TIGHTSCF CHELPG PMODEL
| 29>
| 30> %scf
| 31> MaxIter 1000
| 32> end
| 33>
| 34> * xyz 0 1
| 35>   C                      -3.641882            -6.013494            -3.653541
| 36>   O                      -3.109496            -5.033797            -2.834084
| 37>   H                      -2.177298            -4.956198            -2.865698
| 38>   H                      -3.149717            -6.980031            -3.450855
| 39>   H                      -4.734627            -6.165777            -3.567122
| 40>   H                      -3.537758            -5.813317            -4.687027
| 41>   C                    : -0.128275            -6.062535            -0.900614
| 42>   O                    : -0.606964            -5.157985            -1.973514
| 43>   H                    : 0.108074             -4.792227            -2.433733
| 44>   H                    : 0.831254             -5.700204            -0.480660
| 45>   H                    : -0.786581            -5.973585            -0.031520
| 46>   H                    : -0.009943            -7.163101            -1.222889
| 47> *
| 48>
| 49> #Run DFT-D3 single point of the particle with dimer basis set
| 50> $new_job
| 51> %base "11-104_DFT_B"
| 52> ! wB97X-D3 def2-TZVP TIGHTSCF CHELPG PMODEL
| 53>
| 54> %scf
| 55> MaxIter 1000
| 56> end
| 57>
| 58> * xyz 0 1
| 59>   C                    : -3.641882            -6.013494            -3.653541
| 60>   O                    : -3.109496            -5.033797            -2.834084
| 61>   H                    : -2.177298            -4.956198            -2.865698
| 62>   H                    : -3.149717            -6.980031            -3.450855
| 63>   H                    : -4.734627            -6.165777            -3.567122
| 64>   H                    : -3.537758            -5.813317            -4.687027
| 65>   C                      -0.128275            -6.062535            -0.900614
| 66>   O                      -0.606964            -5.157985            -1.973514
| 67>   H                      0.108074             -4.792227            -2.433733
| 68>   H                      0.831254             -5.700204            -0.480660
| 69>   H                      -0.786581            -5.973585            -0.031520
| 70>   H                      -0.009943            -7.163101            -1.222889
| 71> *
| 72>
| 73>                          ****END OF INPUT****
 Total Charge           Charge          ....    0
 Multiplicity           Mult            ....    1
 Number of Electrons    NEL             ....   36
Dispersion correction           -0.001691932
FINAL SINGLE POINT ENERGY      -231.465731974586
Dispersion correction           -0.000242879
FINAL SINGLE POINT ENERGY      -115.732127802242

CARTESIAN COORDINATES (ANGSTROEM)
---------------------------------
  C     -3.641882   -6.013494   -3.653541
  O     -3.109496   -5.033797   -2.834084
  H     -2.177298   -4.956198   -2.865698
  H     -3.149717   -6.980031   -3.450855
  H     -4.734627   -6.165777   -3.567122
  H     -3.537758   -5.813317   -4.687027
  C     -0.128275   -6.062535   -0.900614
  O     -0.606964   -5.157985   -1.973514
  H      0.108074   -4.792227   -2.433733
  H      0.831254   -5.700204   -0.480660
  H     -0.786581   -5.973585   -0.031520
  H     -0.009943   -7.163101   -1.222889

 Multiplicity           Mult            ....    1
 Number of Electrons    NEL             ....   18
 Basis Dimension        Dim             ....  172

ORBITAL ENERGIES
----------------

  NO   OCC          E(Eh)            E(eV)
   0   2.0000     -19.228744      -523.2407
   1   2.0000     -10.328939      -281.0647
   2   2.0000      -1.123805       -30.5803
   3   2.0000      -0.798271       -21.7221
   4   2.0000      -0.603252       -16.4153
   5   2.0000      -0.534185       -14.5359
   6   2.0000      -0.516796       -14.0627
   7   2.0000      -0.432511       -11.7692
   8   2.0000      -0.380105       -10.3432
   9   0.0000       0.100214         2.7270
  10   0.0000       0.126108         3.4316
  11   0.0000       0.143216         3.8971
  12   0.0000       0.188826         5.1382
  13   0.0000       0.193860         5.2752

MULLIKEN ATOMIC CHARGES
-----------------------
   0 C :   -0.000291
   1 O :    0.003043
   2 H :   -0.012212
   3 H :   -0.000908
   4 H :   -0.000211
   5 H :   -0.000203
   6 C :   -0.171599
   7 O :   -0.477339
   8 H :    0.310064
   9 H :    0.107136
  10 H :    0.129438
  11 H :    0.113081
Sum of atomic charges:    0.0000000

LOEWDIN ATOMIC CHARGES
----------------------
   0 C :   -0.003104
   1 O :   -0.011773
   2 H :   -0.055648
   3 H :   -0.000567
   4 H :   -0.000063
   5 H :   -0.000063
   6 C :   -0.342465
   7 O :   -0.044581
   8 H :    0.140419
   9 H :    0.100890
  10 H :    0.107350
  11 H :    0.109604

  Mayer bond orders larger than 0.1
B(  6-C ,  7-O ) :   0.9860 B(  6-C ,  9-H ) :   0.9746 B(  6-C , 10-H ) :   0.9745
B(  6-C , 11-H ) :   0.9652 B(  7-O ,  8-H ) :   0.9053

Dispersion correction           -0.000298571
FINAL SINGLE POINT ENERGY      -115.728964927988

DIPOLE MOMENT
-------------
                                X             Y             Z
Electronic contribution:     -0.73494       1.05785      -1.33784
Nuclear contribution   :      1.43103      -1.17920       1.53822
                        -----------------------------------------
Total Dipole Moment    :      0.69608      -0.12135       0.20038
                        -----------------------------------------
Magnitude (a.u.)       :      0.73445
Magnitude (Debye)      :      1.86681

Rotational constants in cm-1:     4.258863     0.752542     0.741299
Rotational constants in MHz : 127677.493386 22560.654599 22223.574625

                             ****ORCA TERMINATED NORMALLY****
TOTAL RUN TIME: 0 days 0 hours 1 minutes 12 seconds 853 msec
