                         Program Version 4.1.2  - RELEASE  -
|  1> #Run DFT-D3 single point of the dimer
|  2> ! wB97X-D3 def2-TZVP TIGHTSCF CHELPG PMODEL PAL8
|  3>
|  4> %base "5-6_DFT_AB"
|  5>
|  6> %scf
|  7> MaxIter 1000
|  8> end
|  9>
| 10> * xyz 0 1
| 11>   C                      7.637502             -1.565497            0.430449
| 12>   O                      6.279459             -1.591730            0.075538
| 13>   H                      6.138315             -2.503580            0.236057
| 14>   H                      8.043561             -0.510717            0.303914
| 15>   H                      7.798157             -1.853950            1.427963
| 16>   H                      8.171181             -2.284390            -0.145285
| 17>   C                      10.279933            -1.915904            3.816255
| 18>   O                      10.101626            -2.056084            2.430232
| 19>   H                      10.150793            -2.970228            2.114870
| 20>   H                      9.557512             -2.613513            4.252691
| 21>   H                      11.285277            -2.301388            4.035539
| 22>   H                      10.037346            -0.903307            4.215653
| 23> *
| 24>
| 25> #Run DFT-D3 single point of the molecule with dimer basis set
| 26> $new_job
| 27> %base "5-6_DFT_A"
| 28> ! wB97X-D3 def2-TZVP TIGHTSCF CHELPG PMODEL
| 29>
| 30> %scf
| 31> MaxIter 1000
| 32> end
| 33>
| 34> * xyz 0 1
| 35>   C                      7.637502             -1.565497            0.430449
| 36>   O                      6.279459             -1.591730            0.075538
| 37>   H                      6.138315             -2.503580            0.236057
| 38>   H                      8.043561             -0.510717            0.303914
| 39>   H                      7.798157             -1.853950            1.427963
| 40>   H                      8.171181             -2.284390            -0.145285
| 41>   C                    : 10.279933            -1.915904            3.816255
| 42>   O                    : 10.101626            -2.056084            2.430232
| 43>   H                    : 10.150793            -2.970228            2.114870
| 44>   H                    : 9.557512             -2.613513            4.252691
| 45>   H                    : 11.285277            -2.301388            4.035539
| 46>   H                    : 10.037346            -0.903307            4.215653
| 47> *
| 48>
| 49> #Run DFT-D3 single point of the particle with dimer basis set
| 50> $new_job
| 51> %base "5-6_DFT_B"
| 52> ! wB97X-D3 def2-TZVP TIGHTSCF CHELPG PMODEL
| 53>
| 54> %scf
| 55> MaxIter 1000
| 56> end
| 57>
| 58> * xyz 0 1
| 59>   C                    : 7.637502             -1.565497            0.430449
| 60>   O                    : 6.279459             -1.591730            0.075538
| 61>   H                    : 6.138315             -2.503580            0.236057
| 62>   H                    : 8.043561             -0.510717            0.303914
| 63>   H                    : 7.798157             -1.853950            1.427963
| 64>   H                    : 8.171181             -2.284390            -0.145285
| 65>   C                      10.279933            -1.915904            3.816255
| 66>   O                      10.101626            -2.056084            2.430232
| 67>   H                      10.150793            -2.970228            2.114870
| 68>   H                      9.557512             -2.613513            4.252691
| 69>   H                      11.285277            -2.301388            4.035539
| 70>   H                      10.037346            -0.903307            4.215653
| 71> *
| 72>
| 73>                          ****END OF INPUT****
 Total Charge           Charge          ....    0
 Multiplicity           Mult            ....    1
 Number of Electrons    NEL             ....   36
Dispersion correction           -0.001570980
FINAL SINGLE POINT ENERGY      -231.458865557428
Dispersion correction           -0.000194780
FINAL SINGLE POINT ENERGY      -115.728254858735

CARTESIAN COORDINATES (ANGSTROEM)
---------------------------------
  C      7.637502   -1.565497    0.430449
  O      6.279459   -1.591730    0.075538
  H      6.138315   -2.503580    0.236057
  H      8.043561   -0.510717    0.303914
  H      7.798157   -1.853950    1.427963
  H      8.171181   -2.284390   -0.145285
  C     10.279933   -1.915904    3.816255
  O     10.101626   -2.056084    2.430232
  H     10.150793   -2.970228    2.114870
  H      9.557512   -2.613513    4.252691
  H     11.285277   -2.301388    4.035539
  H     10.037346   -0.903307    4.215653

 Multiplicity           Mult            ....    1
 Number of Electrons    NEL             ....   18
 Basis Dimension        Dim             ....  172

ORBITAL ENERGIES
----------------

  NO   OCC          E(Eh)            E(eV)
   0   2.0000     -19.223792      -523.1060
   1   2.0000     -10.316628      -280.7297
   2   2.0000      -1.132805       -30.8252
   3   2.0000      -0.793030       -21.5794
   4   2.0000      -0.608229       -16.5507
   5   2.0000      -0.547681       -14.9032
   6   2.0000      -0.532506       -14.4902
   7   2.0000      -0.420745       -11.4491
   8   2.0000      -0.365950        -9.9580
   9   0.0000       0.091935         2.5017
  10   0.0000       0.125093         3.4040
  11   0.0000       0.152172         4.1408
  12   0.0000       0.180408         4.9092
  13   0.0000       0.197306         5.3690

MULLIKEN ATOMIC CHARGES
-----------------------
   0 C :    0.014514
   1 O :   -0.000288
   2 H :   -0.000058
   3 H :   -0.003106
   4 H :   -0.020134
   5 H :   -0.003358
   6 C :   -0.147979
   7 O :   -0.488350
   8 H :    0.321665
   9 H :    0.101105
  10 H :    0.101430
  11 H :    0.124557
Sum of atomic charges:   -0.0000000

LOEWDIN ATOMIC CHARGES
----------------------
   0 C :   -0.014065
   1 O :   -0.000064
   2 H :   -0.000019
   3 H :   -0.001125
   4 H :   -0.013293
   5 H :   -0.001098
   6 C :   -0.387678
   7 O :   -0.064319
   8 H :    0.174316
   9 H :    0.095612
  10 H :    0.097426
  11 H :    0.114307

  Mayer bond orders larger than 0.1
B(  6-C ,  7-O ) :   0.9721 B(  6-C ,  9-H ) :   0.9898 B(  6-C , 10-H ) :   0.9786
B(  6-C , 11-H ) :   0.9664 B(  7-O ,  8-H ) :   0.8874

Dispersion correction           -0.000222914
FINAL SINGLE POINT ENERGY      -115.729672040352

DIPOLE MOMENT
-------------
                                X             Y             Z
Electronic contribution:     -0.15959       0.11634      -1.67988
Nuclear contribution   :      0.26000      -0.66034       2.05712
                        -----------------------------------------
Total Dipole Moment    :      0.10041      -0.54400       0.37724
                        -----------------------------------------
Magnitude (a.u.)       :      0.66957
Magnitude (Debye)      :      1.70191

Rotational constants in cm-1:     4.228707     0.842538     0.809844
Rotational constants in MHz : 126773.437823 25258.657648 24278.497639

                             ****ORCA TERMINATED NORMALLY****
TOTAL RUN TIME: 0 days 0 hours 0 minutes 52 seconds 969 msec
