                         Program Version 4.1.2  - RELEASE  -
|  1> #Run DFT-D3 single point of the dimer
|  2> ! wB97X-D3 def2-TZVP TIGHTSCF CHELPG PMODEL PAL8
|  3>
|  4> %base "5-138_DFT_AB"
|  5>
|  6> %scf
|  7> MaxIter 1000
|  8> end
|  9>
| 10> * xyz 0 1
| 11>   C                      0.074017             4.217301             -5.496732
| 12>   O                      0.563221             5.487481             -5.740181
| 13>   H                      -0.073991            6.071840             -5.294138
| 14>   H                      -0.913316            4.025196             -5.905946
| 15>   H                      0.774878             3.517048             -5.955846
| 16>   H                      -0.044787            3.904843             -4.515804
| 17>   C                      2.847182             8.138559             -4.689485
| 18>   O                      1.996867             9.104960             -5.150949
| 19>   H                      1.129276             8.787035             -5.271745
| 20>   H                      2.769186             7.220567             -5.241398
| 21>   H                      3.880690             8.483028             -4.772858
| 22>   H                      2.704983             8.015359             -3.579417
| 23> *
| 24>
| 25> #Run DFT-D3 single point of the molecule with dimer basis set
| 26> $new_job
| 27> %base "5-138_DFT_A"
| 28> ! wB97X-D3 def2-TZVP TIGHTSCF CHELPG PMODEL
| 29>
| 30> %scf
| 31> MaxIter 1000
| 32> end
| 33>
| 34> * xyz 0 1
| 35>   C                      0.074017             4.217301             -5.496732
| 36>   O                      0.563221             5.487481             -5.740181
| 37>   H                      -0.073991            6.071840             -5.294138
| 38>   H                      -0.913316            4.025196             -5.905946
| 39>   H                      0.774878             3.517048             -5.955846
| 40>   H                      -0.044787            3.904843             -4.515804
| 41>   C                    : 2.847182             8.138559             -4.689485
| 42>   O                    : 1.996867             9.104960             -5.150949
| 43>   H                    : 1.129276             8.787035             -5.271745
| 44>   H                    : 2.769186             7.220567             -5.241398
| 45>   H                    : 3.880690             8.483028             -4.772858
| 46>   H                    : 2.704983             8.015359             -3.579417
| 47> *
| 48>
| 49> #Run DFT-D3 single point of the particle with dimer basis set
| 50> $new_job
| 51> %base "5-138_DFT_B"
| 52> ! wB97X-D3 def2-TZVP TIGHTSCF CHELPG PMODEL
| 53>
| 54> %scf
| 55> MaxIter 1000
| 56> end
| 57>
| 58> * xyz 0 1
| 59>   C                    : 0.074017             4.217301             -5.496732
| 60>   O                    : 0.563221             5.487481             -5.740181
| 61>   H                    : -0.073991            6.071840             -5.294138
| 62>   H                    : -0.913316            4.025196             -5.905946
| 63>   H                    : 0.774878             3.517048             -5.955846
| 64>   H                    : -0.044787            3.904843             -4.515804
| 65>   C                      2.847182             8.138559             -4.689485
| 66>   O                      1.996867             9.104960             -5.150949
| 67>   H                      1.129276             8.787035             -5.271745
| 68>   H                      2.769186             7.220567             -5.241398
| 69>   H                      3.880690             8.483028             -4.772858
| 70>   H                      2.704983             8.015359             -3.579417
| 71> *
| 72>
| 73>                          ****END OF INPUT****
 Total Charge           Charge          ....    0
 Multiplicity           Mult            ....    1
 Number of Electrons    NEL             ....   36
Dispersion correction           -0.001405615
FINAL SINGLE POINT ENERGY      -231.465430116308
Dispersion correction           -0.000222440
FINAL SINGLE POINT ENERGY      -115.731326623205

CARTESIAN COORDINATES (ANGSTROEM)
---------------------------------
  C      0.074017    4.217301   -5.496732
  O      0.563221    5.487481   -5.740181
  H     -0.073991    6.071840   -5.294138
  H     -0.913316    4.025196   -5.905946
  H      0.774878    3.517048   -5.955846
  H     -0.044787    3.904843   -4.515804
  C      2.847182    8.138559   -4.689485
  O      1.996867    9.104960   -5.150949
  H      1.129276    8.787035   -5.271745
  H      2.769186    7.220567   -5.241398
  H      3.880690    8.483028   -4.772858
  H      2.704983    8.015359   -3.579417

 Multiplicity           Mult            ....    1
 Number of Electrons    NEL             ....   18
 Basis Dimension        Dim             ....  172

ORBITAL ENERGIES
----------------

  NO   OCC          E(Eh)            E(eV)
   0   2.0000     -19.225005      -523.1390
   1   2.0000     -10.309911      -280.5469
   2   2.0000      -1.153535       -31.3893
   3   2.0000      -0.798555       -21.7298
   4   2.0000      -0.621088       -16.9007
   5   2.0000      -0.550109       -14.9692
   6   2.0000      -0.534593       -14.5470
   7   2.0000      -0.424014       -11.5380
   8   2.0000      -0.370641       -10.0856
   9   0.0000       0.075126         2.0443
  10   0.0000       0.118138         3.2147
  11   0.0000       0.153864         4.1869
  12   0.0000       0.180902         4.9226
  13   0.0000       0.184725         5.0266

MULLIKEN ATOMIC CHARGES
-----------------------
   0 C :   -0.000053
   1 O :    0.000278
   2 H :   -0.000305
   3 H :   -0.000004
   4 H :   -0.000040
   5 H :    0.000027
   6 C :   -0.151063
   7 O :   -0.469519
   8 H :    0.313087
   9 H :    0.100523
  10 H :    0.116555
  11 H :    0.090514
Sum of atomic charges:   -0.0000000

LOEWDIN ATOMIC CHARGES
----------------------
   0 C :   -0.000282
   1 O :   -0.001847
   2 H :   -0.000870
   3 H :   -0.000007
   4 H :   -0.000019
   5 H :   -0.000008
   6 C :   -0.417034
   7 O :   -0.029720
   8 H :    0.152253
   9 H :    0.090100
  10 H :    0.108394
  11 H :    0.099040

  Mayer bond orders larger than 0.1
B(  6-C ,  7-O ) :   1.0025 B(  6-C ,  9-H ) :   0.9768 B(  6-C , 10-H ) :   0.9732
B(  6-C , 11-H ) :   0.9809 B(  7-O ,  8-H ) :   0.9024

Dispersion correction           -0.000228698
FINAL SINGLE POINT ENERGY      -115.733265924248

DIPOLE MOMENT
-------------
                                X             Y             Z
Electronic contribution:     -1.08261       1.27387      -0.70877
Nuclear contribution   :      0.84555      -1.84321       0.77317
                        -----------------------------------------
Total Dipole Moment    :     -0.23706      -0.56934       0.06439
                        -----------------------------------------
Magnitude (a.u.)       :      0.62007
Magnitude (Debye)      :      1.57610

Rotational constants in cm-1:     4.372222     0.869454     0.848207
Rotational constants in MHz : 131075.907294 26065.563940 25428.606854

                             ****ORCA TERMINATED NORMALLY****
TOTAL RUN TIME: 0 days 0 hours 0 minutes 51 seconds 738 msec
