                         Program Version 4.1.2  - RELEASE  -
|  1> #Run DFT-D3 single point of the dimer
|  2> ! wB97X-D3 def2-TZVP TIGHTSCF CHELPG PMODEL PAL8
|  3>
|  4> %base "3-79_DFT_AB"
|  5>
|  6> %scf
|  7> MaxIter 1000
|  8> end
|  9>
| 10> * xyz 0 1
| 11>   C                      -4.944868            -6.379908            -6.736573
| 12>   O                      -6.142319            -5.643729            -6.610150
| 13>   H                      -6.328640            -5.442620            -7.501184
| 14>   H                      -4.130525            -5.985907            -6.044649
| 15>   H                      -5.172011            -7.357734            -6.328079
| 16>   H                      -4.478197            -6.584611            -7.685240
| 17>   C                      -0.360692            -8.662744            -6.319988
| 18>   O                      -0.715937            -8.528957            -7.741279
| 19>   H                      -1.650160            -8.393288            -7.793880
| 20>   H                      -1.022420            -9.270039            -5.796378
| 21>   H                      0.661218             -9.045522            -6.284797
| 22>   H                      -0.385774            -7.695084            -5.784873
| 23> *
| 24>
| 25> #Run DFT-D3 single point of the molecule with dimer basis set
| 26> $new_job
| 27> %base "3-79_DFT_A"
| 28> ! wB97X-D3 def2-TZVP TIGHTSCF CHELPG PMODEL
| 29>
| 30> %scf
| 31> MaxIter 1000
| 32> end
| 33>
| 34> * xyz 0 1
| 35>   C                      -4.944868            -6.379908            -6.736573
| 36>   O                      -6.142319            -5.643729            -6.610150
| 37>   H                      -6.328640            -5.442620            -7.501184
| 38>   H                      -4.130525            -5.985907            -6.044649
| 39>   H                      -5.172011            -7.357734            -6.328079
| 40>   H                      -4.478197            -6.584611            -7.685240
| 41>   C                    : -0.360692            -8.662744            -6.319988
| 42>   O                    : -0.715937            -8.528957            -7.741279
| 43>   H                    : -1.650160            -8.393288            -7.793880
| 44>   H                    : -1.022420            -9.270039            -5.796378
| 45>   H                    : 0.661218             -9.045522            -6.284797
| 46>   H                    : -0.385774            -7.695084            -5.784873
| 47> *
| 48>
| 49> #Run DFT-D3 single point of the particle with dimer basis set
| 50> $new_job
| 51> %base "3-79_DFT_B"
| 52> ! wB97X-D3 def2-TZVP TIGHTSCF CHELPG PMODEL
| 53>
| 54> %scf
| 55> MaxIter 1000
| 56> end
| 57>
| 58> * xyz 0 1
| 59>   C                    : -4.944868            -6.379908            -6.736573
| 60>   O                    : -6.142319            -5.643729            -6.610150
| 61>   H                    : -6.328640            -5.442620            -7.501184
| 62>   H                    : -4.130525            -5.985907            -6.044649
| 63>   H                    : -5.172011            -7.357734            -6.328079
| 64>   H                    : -4.478197            -6.584611            -7.685240
| 65>   C                      -0.360692            -8.662744            -6.319988
| 66>   O                      -0.715937            -8.528957            -7.741279
| 67>   H                      -1.650160            -8.393288            -7.793880
| 68>   H                      -1.022420            -9.270039            -5.796378
| 69>   H                      0.661218             -9.045522            -6.284797
| 70>   H                      -0.385774            -7.695084            -5.784873
| 71> *
| 72>
| 73>                          ****END OF INPUT****
 Total Charge           Charge          ....    0
 Multiplicity           Mult            ....    1
 Number of Electrons    NEL             ....   36
Dispersion correction           -0.000924819
FINAL SINGLE POINT ENERGY      -231.459535267476
Dispersion correction           -0.000252383
FINAL SINGLE POINT ENERGY      -115.726716453194

CARTESIAN COORDINATES (ANGSTROEM)
---------------------------------
  C     -4.944868   -6.379908   -6.736573
  O     -6.142319   -5.643729   -6.610150
  H     -6.328640   -5.442620   -7.501184
  H     -4.130525   -5.985907   -6.044649
  H     -5.172011   -7.357734   -6.328079
  H     -4.478197   -6.584611   -7.685240
  C     -0.360692   -8.662744   -6.319988
  O     -0.715937   -8.528957   -7.741279
  H     -1.650160   -8.393288   -7.793880
  H     -1.022420   -9.270039   -5.796378
  H      0.661218   -9.045522   -6.284797
  H     -0.385774   -7.695084   -5.784873

 Multiplicity           Mult            ....    1
 Number of Electrons    NEL             ....   18
 Basis Dimension        Dim             ....  172

ORBITAL ENERGIES
----------------

  NO   OCC          E(Eh)            E(eV)
   0   2.0000     -19.227926      -523.2185
   1   2.0000     -10.313343      -280.6403
   2   2.0000      -1.122046       -30.5324
   3   2.0000      -0.802859       -21.8469
   4   2.0000      -0.607939       -16.5429
   5   2.0000      -0.532672       -14.4947
   6   2.0000      -0.520404       -14.1609
   7   2.0000      -0.443977       -12.0812
   8   2.0000      -0.375044       -10.2055
   9   0.0000       0.072147         1.9632
  10   0.0000       0.117630         3.2009
  11   0.0000       0.148100         4.0300
  12   0.0000       0.172824         4.7028
  13   0.0000       0.186733         5.0813

MULLIKEN ATOMIC CHARGES
-----------------------
   0 C :   -0.000124
   1 O :   -0.000005
   2 H :   -0.000003
   3 H :    0.000001
   4 H :    0.000000
   5 H :   -0.000360
   6 C :   -0.171661
   7 O :   -0.480765
   8 H :    0.306889
   9 H :    0.114831
  10 H :    0.127255
  11 H :    0.103942
Sum of atomic charges:    0.0000000

LOEWDIN ATOMIC CHARGES
----------------------
   0 C :   -0.000397
   1 O :   -0.000008
   2 H :   -0.000002
   3 H :   -0.000036
   4 H :   -0.000017
   5 H :   -0.000294
   6 C :   -0.336758
   7 O :   -0.108212
   8 H :    0.152176
   9 H :    0.083432
  10 H :    0.111214
  11 H :    0.098902

  Mayer bond orders larger than 0.1
B(  6-C ,  7-O ) :   0.9914 B(  6-C ,  9-H ) :   0.9746 B(  6-C , 10-H ) :   0.9760
B(  6-C , 11-H ) :   0.9722 B(  7-O ,  8-H ) :   0.9088

Dispersion correction           -0.000259021
FINAL SINGLE POINT ENERGY      -115.732721009493

DIPOLE MOMENT
-------------
                                X             Y             Z
Electronic contribution:     -0.33252       0.06020      -1.75320
Nuclear contribution   :     -0.11923      -0.04721       2.34121
                        -----------------------------------------
Total Dipole Moment    :     -0.45175       0.01299       0.58801
                        -----------------------------------------
Magnitude (a.u.)       :      0.74162
Magnitude (Debye)      :      1.88505

Rotational constants in cm-1:     4.401064     0.784664     0.753347
Rotational constants in MHz : 131940.591268 23523.646430 22584.762802

                             ****ORCA TERMINATED NORMALLY****
TOTAL RUN TIME: 0 days 0 hours 6 minutes 23 seconds 419 msec
