                         Program Version 4.1.2  - RELEASE  -
|  1> #Run DFT-D3 single point of the dimer
|  2> ! wB97X-D3 def2-TZVP TIGHTSCF CHELPG PMODEL PAL8
|  3>
|  4> %base "19-128_DFT_AB"
|  5>
|  6> %scf
|  7> MaxIter 1000
|  8> end
|  9>
| 10> * xyz 0 1
| 11>   C                      5.736915             6.096399             -5.489844
| 12>   O                      5.154897             4.938208             -6.015251
| 13>   H                      5.492586             4.122501             -5.681083
| 14>   H                      5.357355             6.307799             -4.486453
| 15>   H                      6.834772             6.055645             -5.421734
| 16>   H                      5.315370             6.965713             -6.146136
| 17>   C                      6.290606             6.832760             -10.165576
| 18>   O                      4.896429             6.996300             -9.884444
| 19>   H                      4.574799             6.093500             -9.680608
| 20>   H                      6.456056             5.793661             -10.580889
| 21>   H                      6.682673             7.550290             -10.865907
| 22>   H                      6.927210             6.865684             -9.254179
| 23> *
| 24>
| 25> #Run DFT-D3 single point of the molecule with dimer basis set
| 26> $new_job
| 27> %base "19-128_DFT_A"
| 28> ! wB97X-D3 def2-TZVP TIGHTSCF CHELPG PMODEL
| 29>
| 30> %scf
| 31> MaxIter 1000
| 32> end
| 33>
| 34> * xyz 0 1
| 35>   C                      5.736915             6.096399             -5.489844
| 36>   O                      5.154897             4.938208             -6.015251
| 37>   H                      5.492586             4.122501             -5.681083
| 38>   H                      5.357355             6.307799             -4.486453
| 39>   H                      6.834772             6.055645             -5.421734
| 40>   H                      5.315370             6.965713             -6.146136
| 41>   C                    : 6.290606             6.832760             -10.165576
| 42>   O                    : 4.896429             6.996300             -9.884444
| 43>   H                    : 4.574799             6.093500             -9.680608
| 44>   H                    : 6.456056             5.793661             -10.580889
| 45>   H                    : 6.682673             7.550290             -10.865907
| 46>   H                    : 6.927210             6.865684             -9.254179
| 47> *
| 48>
| 49> #Run DFT-D3 single point of the particle with dimer basis set
| 50> $new_job
| 51> %base "19-128_DFT_B"
| 52> ! wB97X-D3 def2-TZVP TIGHTSCF CHELPG PMODEL
| 53>
| 54> %scf
| 55> MaxIter 1000
| 56> end
| 57>
| 58> * xyz 0 1
| 59>   C                    : 5.736915             6.096399             -5.489844
| 60>   O                    : 5.154897             4.938208             -6.015251
| 61>   H                    : 5.492586             4.122501             -5.681083
| 62>   H                    : 5.357355             6.307799             -4.486453
| 63>   H                    : 6.834772             6.055645             -5.421734
| 64>   H                    : 5.315370             6.965713             -6.146136
| 65>   C                      6.290606             6.832760             -10.165576
| 66>   O                      4.896429             6.996300             -9.884444
| 67>   H                      4.574799             6.093500             -9.680608
| 68>   H                      6.456056             5.793661             -10.580889
| 69>   H                      6.682673             7.550290             -10.865907
| 70>   H                      6.927210             6.865684             -9.254179
| 71> *
| 72>
| 73>                          ****END OF INPUT****
 Total Charge           Charge          ....    0
 Multiplicity           Mult            ....    1
 Number of Electrons    NEL             ....   36
Dispersion correction           -0.001133980
FINAL SINGLE POINT ENERGY      -231.466180193906
Dispersion correction           -0.000259027
FINAL SINGLE POINT ENERGY      -115.731349647173

CARTESIAN COORDINATES (ANGSTROEM)
---------------------------------
  C      5.736915    6.096399   -5.489844
  O      5.154897    4.938208   -6.015251
  H      5.492586    4.122501   -5.681083
  H      5.357355    6.307799   -4.486453
  H      6.834772    6.055645   -5.421734
  H      5.315370    6.965713   -6.146136
  C      6.290606    6.832760  -10.165576
  O      4.896429    6.996300   -9.884444
  H      4.574799    6.093500   -9.680608
  H      6.456056    5.793661  -10.580889
  H      6.682673    7.550290  -10.865907
  H      6.927210    6.865684   -9.254179

 Multiplicity           Mult            ....    1
 Number of Electrons    NEL             ....   18
 Basis Dimension        Dim             ....  172

ORBITAL ENERGIES
----------------

  NO   OCC          E(Eh)            E(eV)
   0   2.0000     -19.234579      -523.3995
   1   2.0000     -10.319367      -280.8043
   2   2.0000      -1.130263       -30.7560
   3   2.0000      -0.791417       -21.5356
   4   2.0000      -0.605333       -16.4720
   5   2.0000      -0.534905       -14.5555
   6   2.0000      -0.529654       -14.4126
   7   2.0000      -0.436314       -11.8727
   8   2.0000      -0.373510       -10.1637
   9   0.0000       0.080370         2.1870
  10   0.0000       0.114576         3.1178
  11   0.0000       0.147986         4.0269
  12   0.0000       0.162624         4.4252
  13   0.0000       0.183664         4.9978

MULLIKEN ATOMIC CHARGES
-----------------------
   0 C :    0.000433
   1 O :   -0.000003
   2 H :   -0.000001
   3 H :   -0.000041
   4 H :   -0.000168
   5 H :   -0.001613
   6 C :   -0.180831
   7 O :   -0.469601
   8 H :    0.320019
   9 H :    0.099346
  10 H :    0.128765
  11 H :    0.103694
Sum of atomic charges:    0.0000000

LOEWDIN ATOMIC CHARGES
----------------------
   0 C :   -0.000458
   1 O :   -0.000095
   2 H :   -0.000006
   3 H :   -0.000005
   4 H :   -0.000066
   5 H :   -0.000808
   6 C :   -0.381734
   7 O :   -0.098891
   8 H :    0.182525
   9 H :    0.101802
  10 H :    0.101080
  11 H :    0.096656

  Mayer bond orders larger than 0.1
B(  6-C ,  7-O ) :   1.0062 B(  6-C ,  9-H ) :   0.9882 B(  6-C , 10-H ) :   0.9723
B(  6-C , 11-H ) :   0.9681 B(  7-O ,  8-H ) :   0.8967

Dispersion correction           -0.000251672
FINAL SINGLE POINT ENERGY      -115.733098169074

DIPOLE MOMENT
-------------
                                X             Y             Z
Electronic contribution:     -1.82240       0.51938       0.29095
Nuclear contribution   :      2.17445      -1.14775      -0.29460
                        -----------------------------------------
Total Dipole Moment    :      0.35205      -0.62837      -0.00365
                        -----------------------------------------
Magnitude (a.u.)       :      0.72028
Magnitude (Debye)      :      1.83081

Rotational constants in cm-1:     4.198321     0.812944     0.779353
Rotational constants in MHz : 125862.511236 24371.461867 23364.406698

                             ****ORCA TERMINATED NORMALLY****
TOTAL RUN TIME: 0 days 0 hours 0 minutes 45 seconds 926 msec
