                         Program Version 4.1.2  - RELEASE  -
|  1> #Run DFT-D3 single point of the dimer
|  2> ! wB97X-D3 def2-TZVP TIGHTSCF CHELPG PMODEL PAL8
|  3>
|  4> %base "1-158_DFT_AB"
|  5>
|  6> %scf
|  7> MaxIter 1000
|  8> end
|  9>
| 10> * xyz 0 1
| 11>   C                      10.616693            -9.024926            10.683201
| 12>   O                      11.451603            -9.000873            9.598607
| 13>   H                      11.082871            -8.509996            8.856676
| 14>   H                      10.334665            -8.011721            10.998511
| 15>   H                      9.613762             -9.467536            10.460529
| 16>   H                      11.098516            -9.497788            11.598811
| 17>   C                      10.067220            -10.126056           8.007555
| 18>   O                      9.600508             -8.787866            8.100690
| 19>   H                      9.342349             -8.601194            9.016591
| 20>   H                      9.295963             -10.797208           8.353446
| 21>   H                      10.328092            -10.365292           7.022517
| 22>   H                      10.911756            -10.240469           8.686770
| 23> *
| 24>
| 25> #Run DFT-D3 single point of the molecule with dimer basis set
| 26> $new_job
| 27> %base "1-158_DFT_A"
| 28> ! wB97X-D3 def2-TZVP TIGHTSCF CHELPG PMODEL
| 29>
| 30> %scf
| 31> MaxIter 1000
| 32> end
| 33>
| 34> * xyz 0 1
| 35>   C                      10.616693            -9.024926            10.683201
| 36>   O                      11.451603            -9.000873            9.598607
| 37>   H                      11.082871            -8.509996            8.856676
| 38>   H                      10.334665            -8.011721            10.998511
| 39>   H                      9.613762             -9.467536            10.460529
| 40>   H                      11.098516            -9.497788            11.598811
| 41>   C                    : 10.067220            -10.126056           8.007555
| 42>   O                    : 9.600508             -8.787866            8.100690
| 43>   H                    : 9.342349             -8.601194            9.016591
| 44>   H                    : 9.295963             -10.797208           8.353446
| 45>   H                    : 10.328092            -10.365292           7.022517
| 46>   H                    : 10.911756            -10.240469           8.686770
| 47> *
| 48>
| 49> #Run DFT-D3 single point of the particle with dimer basis set
| 50> $new_job
| 51> %base "1-158_DFT_B"
| 52> ! wB97X-D3 def2-TZVP TIGHTSCF CHELPG PMODEL
| 53>
| 54> %scf
| 55> MaxIter 1000
| 56> end
| 57>
| 58> * xyz 0 1
| 59>   C                    : 10.616693            -9.024926            10.683201
| 60>   O                    : 11.451603            -9.000873            9.598607
| 61>   H                    : 11.082871            -8.509996            8.856676
| 62>   H                    : 10.334665            -8.011721            10.998511
| 63>   H                    : 9.613762             -9.467536            10.460529
| 64>   H                    : 11.098516            -9.497788            11.598811
| 65>   C                      10.067220            -10.126056           8.007555
| 66>   O                      9.600508             -8.787866            8.100690
| 67>   H                      9.342349             -8.601194            9.016591
| 68>   H                      9.295963             -10.797208           8.353446
| 69>   H                      10.328092            -10.365292           7.022517
| 70>   H                      10.911756            -10.240469           8.686770
| 71> *
| 72>
| 73>                          ****END OF INPUT****
 Total Charge           Charge          ....    0
 Multiplicity           Mult            ....    1
 Number of Electrons    NEL             ....   36
Dispersion correction           -0.002010553
FINAL SINGLE POINT ENERGY      -231.430490833009
Dispersion correction           -0.000241654
FINAL SINGLE POINT ENERGY      -115.733073134860

CARTESIAN COORDINATES (ANGSTROEM)
---------------------------------
  C     10.616693   -9.024926   10.683201
  O     11.451603   -9.000873    9.598607
  H     11.082871   -8.509996    8.856676
  H     10.334665   -8.011721   10.998511
  H      9.613762   -9.467536   10.460529
  H     11.098516   -9.497788   11.598811
  C     10.067220  -10.126056    8.007555
  O      9.600508   -8.787866    8.100690
  H      9.342349   -8.601194    9.016591
  H      9.295963  -10.797208    8.353446
  H     10.328092  -10.365292    7.022517
  H     10.911756  -10.240469    8.686770

 Multiplicity           Mult            ....    1
 Number of Electrons    NEL             ....   18
 Basis Dimension        Dim             ....  172

ORBITAL ENERGIES
----------------

  NO   OCC          E(Eh)            E(eV)
   0   2.0000     -19.229395      -523.2584
   1   2.0000     -10.307185      -280.4728
   2   2.0000      -1.131353       -30.7857
   3   2.0000      -0.800253       -21.7760
   4   2.0000      -0.608975       -16.5710
   5   2.0000      -0.542350       -14.7581
   6   2.0000      -0.536887       -14.6094
   7   2.0000      -0.435497       -11.8505
   8   2.0000      -0.371061       -10.0971
   9   0.0000       0.077419         2.1067
  10   0.0000       0.146990         3.9998
  11   0.0000       0.154297         4.1986
  12   0.0000       0.173898         4.7320
  13   0.0000       0.200832         5.4649

MULLIKEN ATOMIC CHARGES
-----------------------
   0 C :   -0.014629
   1 O :    0.003224
   2 H :   -0.012850
   3 H :    0.001040
   4 H :   -0.003136
   5 H :   -0.000566
   6 C :   -0.155730
   7 O :   -0.462042
   8 H :    0.319319
   9 H :    0.109951
  10 H :    0.127242
  11 H :    0.088175
Sum of atomic charges:    0.0000000

LOEWDIN ATOMIC CHARGES
----------------------
   0 C :   -0.049600
   1 O :   -0.079812
   2 H :   -0.070520
   3 H :   -0.001926
   4 H :   -0.013119
   5 H :   -0.000551
   6 C :   -0.311036
   7 O :   -0.009160
   8 H :    0.195157
   9 H :    0.097524
  10 H :    0.098920
  11 H :    0.144124

  Mayer bond orders larger than 0.1
B(  6-C ,  7-O ) :   0.9783 B(  6-C ,  9-H ) :   0.9833 B(  6-C , 10-H ) :   0.9759
B(  6-C , 11-H ) :   0.9880 B(  7-O ,  8-H ) :   0.9003

Dispersion correction           -0.000220566
FINAL SINGLE POINT ENERGY      -115.735576601636

DIPOLE MOMENT
-------------
                                X             Y             Z
Electronic contribution:     -0.53345       1.65015      -0.17307
Nuclear contribution   :      0.55080      -2.08768       0.68608
                        -----------------------------------------
Total Dipole Moment    :      0.01736      -0.43754       0.51301
                        -----------------------------------------
Magnitude (a.u.)       :      0.67448
Magnitude (Debye)      :      1.71438

Rotational constants in cm-1:     4.371541     0.834408     0.802610
Rotational constants in MHz : 131055.488056 25014.930355 24061.630283

                             ****ORCA TERMINATED NORMALLY****
TOTAL RUN TIME: 0 days 0 hours 6 minutes 25 seconds 63 msec
