                         Program Version 4.1.2  - RELEASE  -
|  1> #Run DFT-D3 single point of the dimer
|  2> ! wB97X-D3 def2-TZVP TIGHTSCF CHELPG PMODEL PAL8
|  3>
|  4> %base "7-195_DFT_AB"
|  5>
|  6> %scf
|  7> MaxIter 1000
|  8> end
|  9>
| 10> * xyz 0 1
| 11>   C                      6.175662             -11.349014           -7.590039
| 12>   O                      5.252921             -10.548341           -8.279196
| 13>   H                      5.728795             -9.750752            -8.445123
| 14>   H                      5.729943             -12.288351           -7.204422
| 15>   H                      7.016447             -11.610410           -8.171074
| 16>   H                      6.582394             -10.840848           -6.690959
| 17>   C                      6.590362             -7.560866            -10.966018
| 18>   O                      6.898554             -8.861318            -10.472608
| 19>   H                      7.529969             -8.798220            -9.779357
| 20>   H                      6.835712             -7.269470            -12.023765
| 21>   H                      5.505814             -7.354141            -10.885606
| 22>   H                      7.211012             -6.830934            -10.381318
| 23> *
| 24>
| 25> #Run DFT-D3 single point of the molecule with dimer basis set
| 26> $new_job
| 27> %base "7-195_DFT_A"
| 28> ! wB97X-D3 def2-TZVP TIGHTSCF CHELPG PMODEL
| 29>
| 30> %scf
| 31> MaxIter 1000
| 32> end
| 33>
| 34> * xyz 0 1
| 35>   C                      6.175662             -11.349014           -7.590039
| 36>   O                      5.252921             -10.548341           -8.279196
| 37>   H                      5.728795             -9.750752            -8.445123
| 38>   H                      5.729943             -12.288351           -7.204422
| 39>   H                      7.016447             -11.610410           -8.171074
| 40>   H                      6.582394             -10.840848           -6.690959
| 41>   C                    : 6.590362             -7.560866            -10.966018
| 42>   O                    : 6.898554             -8.861318            -10.472608
| 43>   H                    : 7.529969             -8.798220            -9.779357
| 44>   H                    : 6.835712             -7.269470            -12.023765
| 45>   H                    : 5.505814             -7.354141            -10.885606
| 46>   H                    : 7.211012             -6.830934            -10.381318
| 47> *
| 48>
| 49> #Run DFT-D3 single point of the particle with dimer basis set
| 50> $new_job
| 51> %base "7-195_DFT_B"
| 52> ! wB97X-D3 def2-TZVP TIGHTSCF CHELPG PMODEL
| 53>
| 54> %scf
| 55> MaxIter 1000
| 56> end
| 57>
| 58> * xyz 0 1
| 59>   C                    : 6.175662             -11.349014           -7.590039
| 60>   O                    : 5.252921             -10.548341           -8.279196
| 61>   H                    : 5.728795             -9.750752            -8.445123
| 62>   H                    : 5.729943             -12.288351           -7.204422
| 63>   H                    : 7.016447             -11.610410           -8.171074
| 64>   H                    : 6.582394             -10.840848           -6.690959
| 65>   C                      6.590362             -7.560866            -10.966018
| 66>   O                      6.898554             -8.861318            -10.472608
| 67>   H                      7.529969             -8.798220            -9.779357
| 68>   H                      6.835712             -7.269470            -12.023765
| 69>   H                      5.505814             -7.354141            -10.885606
| 70>   H                      7.211012             -6.830934            -10.381318
| 71> *
| 72>
| 73>                          ****END OF INPUT****
 Total Charge           Charge          ....    0
 Multiplicity           Mult            ....    1
 Number of Electrons    NEL             ....   36
Dispersion correction           -0.001568319
FINAL SINGLE POINT ENERGY      -231.463972803133
Dispersion correction           -0.000225778
FINAL SINGLE POINT ENERGY      -115.734379698920

CARTESIAN COORDINATES (ANGSTROEM)
---------------------------------
  C      6.175662  -11.349014   -7.590039
  O      5.252921  -10.548341   -8.279196
  H      5.728795   -9.750752   -8.445123
  H      5.729943  -12.288351   -7.204422
  H      7.016447  -11.610410   -8.171074
  H      6.582394  -10.840848   -6.690959
  C      6.590362   -7.560866  -10.966018
  O      6.898554   -8.861318  -10.472608
  H      7.529969   -8.798220   -9.779357
  H      6.835712   -7.269470  -12.023765
  H      5.505814   -7.354141  -10.885606
  H      7.211012   -6.830934  -10.381318

 Multiplicity           Mult            ....    1
 Number of Electrons    NEL             ....   18
 Basis Dimension        Dim             ....  172

ORBITAL ENERGIES
----------------

  NO   OCC          E(Eh)            E(eV)
   0   2.0000     -19.232615      -523.3461
   1   2.0000     -10.324140      -280.9341
   2   2.0000      -1.139033       -30.9947
   3   2.0000      -0.795160       -21.6374
   4   2.0000      -0.615549       -16.7499
   5   2.0000      -0.537823       -14.6349
   6   2.0000      -0.527613       -14.3571
   7   2.0000      -0.428293       -11.6545
   8   2.0000      -0.375501       -10.2179
   9   0.0000       0.087638         2.3848
  10   0.0000       0.122055         3.3213
  11   0.0000       0.147707         4.0193
  12   0.0000       0.177246         4.8231
  13   0.0000       0.197631         5.3778

MULLIKEN ATOMIC CHARGES
-----------------------
   0 C :    0.000548
   1 O :    0.003378
   2 H :   -0.014955
   3 H :   -0.000071
   4 H :   -0.000726
   5 H :    0.000065
   6 C :   -0.166836
   7 O :   -0.460928
   8 H :    0.320283
   9 H :    0.106381
  10 H :    0.117092
  11 H :    0.095768
Sum of atomic charges:   -0.0000000

LOEWDIN ATOMIC CHARGES
----------------------
   0 C :   -0.001440
   1 O :   -0.002681
   2 H :   -0.014345
   3 H :   -0.000018
   4 H :   -0.000334
   5 H :   -0.000019
   6 C :   -0.386975
   7 O :   -0.059811
   8 H :    0.157885
   9 H :    0.103186
  10 H :    0.103161
  11 H :    0.101390

  Mayer bond orders larger than 0.1
B(  6-C ,  7-O ) :   1.0126 B(  6-C ,  9-H ) :   0.9633 B(  6-C , 10-H ) :   0.9768
B(  6-C , 11-H ) :   0.9914 B(  7-O ,  8-H ) :   0.8988

Dispersion correction           -0.000271352
FINAL SINGLE POINT ENERGY      -115.729047407150

DIPOLE MOMENT
-------------
                                X             Y             Z
Electronic contribution:      0.29314      -1.84323       0.52364
Nuclear contribution   :      0.01582       2.41950      -0.27006
                        -----------------------------------------
Total Dipole Moment    :      0.30896       0.57627       0.25358
                        -----------------------------------------
Magnitude (a.u.)       :      0.70132
Magnitude (Debye)      :      1.78260

Rotational constants in cm-1:     4.348687     0.808708     0.775954
Rotational constants in MHz : 130370.365758 24244.462270 23262.515494

                             ****ORCA TERMINATED NORMALLY****
TOTAL RUN TIME: 0 days 0 hours 1 minutes 3 seconds 717 msec
