                         Program Version 4.1.2  - RELEASE  -
|  1> #Run DFT-D3 single point of the dimer
|  2> ! wB97X-D3 def2-TZVP TIGHTSCF CHELPG PMODEL PAL8
|  3>
|  4> %base "5-163_DFT_AB"
|  5>
|  6> %scf
|  7> MaxIter 1000
|  8> end
|  9>
| 10> * xyz 0 1
| 11>   C                      -5.212664            3.943820             1.077154
| 12>   O                      -4.635611            3.193691             2.150803
| 13>   H                      -4.487130            2.298482             1.890738
| 14>   H                      -5.852676            3.303883             0.476393
| 15>   H                      -5.783701            4.827074             1.361081
| 16>   H                      -4.402067            4.410179             0.431093
| 17>   C                      -4.440723            0.124851             4.082596
| 18>   O                      -4.745330            0.522823             2.728726
| 19>   H                      -4.412200            -0.146942            2.170394
| 20>   H                      -4.800838            0.880417             4.720140
| 21>   H                      -4.841633            -0.879362            4.273459
| 22>   H                      -3.412028            0.008074             4.126415
| 23> *
| 24>
| 25> #Run DFT-D3 single point of the molecule with dimer basis set
| 26> $new_job
| 27> %base "5-163_DFT_A"
| 28> ! wB97X-D3 def2-TZVP TIGHTSCF CHELPG PMODEL
| 29>
| 30> %scf
| 31> MaxIter 1000
| 32> end
| 33>
| 34> * xyz 0 1
| 35>   C                      -5.212664            3.943820             1.077154
| 36>   O                      -4.635611            3.193691             2.150803
| 37>   H                      -4.487130            2.298482             1.890738
| 38>   H                      -5.852676            3.303883             0.476393
| 39>   H                      -5.783701            4.827074             1.361081
| 40>   H                      -4.402067            4.410179             0.431093
| 41>   C                    : -4.440723            0.124851             4.082596
| 42>   O                    : -4.745330            0.522823             2.728726
| 43>   H                    : -4.412200            -0.146942            2.170394
| 44>   H                    : -4.800838            0.880417             4.720140
| 45>   H                    : -4.841633            -0.879362            4.273459
| 46>   H                    : -3.412028            0.008074             4.126415
| 47> *
| 48>
| 49> #Run DFT-D3 single point of the particle with dimer basis set
| 50> $new_job
| 51> %base "5-163_DFT_B"
| 52> ! wB97X-D3 def2-TZVP TIGHTSCF CHELPG PMODEL
| 53>
| 54> %scf
| 55> MaxIter 1000
| 56> end
| 57>
| 58> * xyz 0 1
| 59>   C                    : -5.212664            3.943820             1.077154
| 60>   O                    : -4.635611            3.193691             2.150803
| 61>   H                    : -4.487130            2.298482             1.890738
| 62>   H                    : -5.852676            3.303883             0.476393
| 63>   H                    : -5.783701            4.827074             1.361081
| 64>   H                    : -4.402067            4.410179             0.431093
| 65>   C                      -4.440723            0.124851             4.082596
| 66>   O                      -4.745330            0.522823             2.728726
| 67>   H                      -4.412200            -0.146942            2.170394
| 68>   H                      -4.800838            0.880417             4.720140
| 69>   H                      -4.841633            -0.879362            4.273459
| 70>   H                      -3.412028            0.008074             4.126415
| 71> *
| 72>
| 73>                          ****END OF INPUT****
 Total Charge           Charge          ....    0
 Multiplicity           Mult            ....    1
 Number of Electrons    NEL             ....   36
Dispersion correction           -0.001505844
FINAL SINGLE POINT ENERGY      -231.468228277958
Dispersion correction           -0.000264042
FINAL SINGLE POINT ENERGY      -115.732537384454

CARTESIAN COORDINATES (ANGSTROEM)
---------------------------------
  C     -5.212664    3.943820    1.077154
  O     -4.635611    3.193691    2.150803
  H     -4.487130    2.298482    1.890738
  H     -5.852676    3.303883    0.476393
  H     -5.783701    4.827074    1.361081
  H     -4.402067    4.410179    0.431093
  C     -4.440723    0.124851    4.082596
  O     -4.745330    0.522823    2.728726
  H     -4.412200   -0.146942    2.170394
  H     -4.800838    0.880417    4.720140
  H     -4.841633   -0.879362    4.273459
  H     -3.412028    0.008074    4.126415

 Multiplicity           Mult            ....    1
 Number of Electrons    NEL             ....   18
 Basis Dimension        Dim             ....  172

ORBITAL ENERGIES
----------------

  NO   OCC          E(Eh)            E(eV)
   0   2.0000     -19.223137      -523.0882
   1   2.0000     -10.305647      -280.4309
   2   2.0000      -1.132045       -30.8045
   3   2.0000      -0.804603       -21.8944
   4   2.0000      -0.612302       -16.6616
   5   2.0000      -0.540455       -14.7065
   6   2.0000      -0.531703       -14.4684
   7   2.0000      -0.443362       -12.0645
   8   2.0000      -0.371318       -10.1041
   9   0.0000       0.101019         2.7489
  10   0.0000       0.121790         3.3141
  11   0.0000       0.159951         4.3525
  12   0.0000       0.191346         5.2068
  13   0.0000       0.203146         5.5279

MULLIKEN ATOMIC CHARGES
-----------------------
   0 C :    0.001496
   1 O :    0.002993
   2 H :   -0.017867
   3 H :   -0.000532
   4 H :    0.000021
   5 H :   -0.000142
   6 C :   -0.158672
   7 O :   -0.472756
   8 H :    0.304622
   9 H :    0.129776
  10 H :    0.099250
  11 H :    0.111811
Sum of atomic charges:    0.0000000

LOEWDIN ATOMIC CHARGES
----------------------
   0 C :   -0.001210
   1 O :   -0.010019
   2 H :   -0.041532
   3 H :   -0.000223
   4 H :   -0.000013
   5 H :   -0.000018
   6 C :   -0.338454
   7 O :   -0.044296
   8 H :    0.147574
   9 H :    0.102934
  10 H :    0.099810
  11 H :    0.085448

  Mayer bond orders larger than 0.1
B(  6-C ,  7-O ) :   0.9701 B(  6-C ,  9-H ) :   0.9759 B(  6-C , 10-H ) :   0.9728
B(  6-C , 11-H ) :   0.9840 B(  7-O ,  8-H ) :   0.9083

Dispersion correction           -0.000208780
FINAL SINGLE POINT ENERGY      -115.731105545236

DIPOLE MOMENT
-------------
                                X             Y             Z
Electronic contribution:     -0.45026       0.66298      -1.44532
Nuclear contribution   :      0.81129      -1.26506       1.67440
                        -----------------------------------------
Total Dipole Moment    :      0.36103      -0.60208       0.22908
                        -----------------------------------------
Magnitude (a.u.)       :      0.73846
Magnitude (Debye)      :      1.87700

Rotational constants in cm-1:     4.399674     0.828642     0.790649
Rotational constants in MHz : 131898.902888 24842.062333 23703.063878

                             ****ORCA TERMINATED NORMALLY****
TOTAL RUN TIME: 0 days 0 hours 0 minutes 54 seconds 37 msec
