                         Program Version 4.1.2  - RELEASE  -
|  1> #Run DFT-D3 single point of the dimer
|  2> ! wB97X-D3 def2-TZVP TIGHTSCF CHELPG PMODEL PAL8
|  3>
|  4> %base "17-65_DFT_AB"
|  5>
|  6> %scf
|  7> MaxIter 1000
|  8> end
|  9>
| 10> * xyz 0 1
| 11>   C                      3.428928             8.666497             5.285069
| 12>   O                      4.762131             8.230754             5.347500
| 13>   H                      4.851017             7.570642             4.577961
| 14>   H                      3.003292             8.738284             4.342669
| 15>   H                      2.793504             7.932422             5.811546
| 16>   H                      3.320919             9.639837             5.807513
| 17>   C                      0.924028             6.358187             6.757414
| 18>   O                      -0.283134            5.796647             7.272671
| 19>   H                      -0.027440            4.888892             7.336648
| 20>   H                      1.716125             5.680179             6.964693
| 21>   H                      0.937912             6.474491             5.673382
| 22>   H                      1.113307             7.414383             7.211056
| 23> *
| 24>
| 25> #Run DFT-D3 single point of the molecule with dimer basis set
| 26> $new_job
| 27> %base "17-65_DFT_A"
| 28> ! wB97X-D3 def2-TZVP TIGHTSCF CHELPG PMODEL
| 29>
| 30> %scf
| 31> MaxIter 1000
| 32> end
| 33>
| 34> * xyz 0 1
| 35>   C                      3.428928             8.666497             5.285069
| 36>   O                      4.762131             8.230754             5.347500
| 37>   H                      4.851017             7.570642             4.577961
| 38>   H                      3.003292             8.738284             4.342669
| 39>   H                      2.793504             7.932422             5.811546
| 40>   H                      3.320919             9.639837             5.807513
| 41>   C                    : 0.924028             6.358187             6.757414
| 42>   O                    : -0.283134            5.796647             7.272671
| 43>   H                    : -0.027440            4.888892             7.336648
| 44>   H                    : 1.716125             5.680179             6.964693
| 45>   H                    : 0.937912             6.474491             5.673382
| 46>   H                    : 1.113307             7.414383             7.211056
| 47> *
| 48>
| 49> #Run DFT-D3 single point of the particle with dimer basis set
| 50> $new_job
| 51> %base "17-65_DFT_B"
| 52> ! wB97X-D3 def2-TZVP TIGHTSCF CHELPG PMODEL
| 53>
| 54> %scf
| 55> MaxIter 1000
| 56> end
| 57>
| 58> * xyz 0 1
| 59>   C                    : 3.428928             8.666497             5.285069
| 60>   O                    : 4.762131             8.230754             5.347500
| 61>   H                    : 4.851017             7.570642             4.577961
| 62>   H                    : 3.003292             8.738284             4.342669
| 63>   H                    : 2.793504             7.932422             5.811546
| 64>   H                    : 3.320919             9.639837             5.807513
| 65>   C                      0.924028             6.358187             6.757414
| 66>   O                      -0.283134            5.796647             7.272671
| 67>   H                      -0.027440            4.888892             7.336648
| 68>   H                      1.716125             5.680179             6.964693
| 69>   H                      0.937912             6.474491             5.673382
| 70>   H                      1.113307             7.414383             7.211056
| 71> *
| 72>
| 73>                          ****END OF INPUT****
 Total Charge           Charge          ....    0
 Multiplicity           Mult            ....    1
 Number of Electrons    NEL             ....   36
Dispersion correction           -0.001469061
FINAL SINGLE POINT ENERGY      -231.458174134158
Dispersion correction           -0.000231716
FINAL SINGLE POINT ENERGY      -115.729387884830

CARTESIAN COORDINATES (ANGSTROEM)
---------------------------------
  C      3.428928    8.666497    5.285069
  O      4.762131    8.230754    5.347500
  H      4.851017    7.570642    4.577961
  H      3.003292    8.738284    4.342669
  H      2.793504    7.932422    5.811546
  H      3.320919    9.639837    5.807513
  C      0.924028    6.358187    6.757414
  O     -0.283134    5.796647    7.272671
  H     -0.027440    4.888892    7.336648
  H      1.716125    5.680179    6.964693
  H      0.937912    6.474491    5.673382
  H      1.113307    7.414383    7.211056

 Multiplicity           Mult            ....    1
 Number of Electrons    NEL             ....   18
 Basis Dimension        Dim             ....  172

ORBITAL ENERGIES
----------------

  NO   OCC          E(Eh)            E(eV)
   0   2.0000     -19.231922      -523.3272
   1   2.0000     -10.318622      -280.7840
   2   2.0000      -1.142014       -31.0758
   3   2.0000      -0.791383       -21.5346
   4   2.0000      -0.615437       -16.7469
   5   2.0000      -0.537502       -14.6262
   6   2.0000      -0.521452       -14.1894
   7   2.0000      -0.444971       -12.1083
   8   2.0000      -0.374276       -10.1846
   9   0.0000       0.082833         2.2540
  10   0.0000       0.113302         3.0831
  11   0.0000       0.152833         4.1588
  12   0.0000       0.168198         4.5769
  13   0.0000       0.180367         4.9080

MULLIKEN ATOMIC CHARGES
-----------------------
   0 C :   -0.004055
   1 O :    0.000017
   2 H :   -0.000004
   3 H :    0.000181
   4 H :    0.006724
   5 H :    0.000194
   6 C :   -0.193328
   7 O :   -0.451428
   8 H :    0.310548
   9 H :    0.107028
  10 H :    0.108393
  11 H :    0.115730
Sum of atomic charges:    0.0000000

LOEWDIN ATOMIC CHARGES
----------------------
   0 C :   -0.004015
   1 O :   -0.000023
   2 H :   -0.000005
   3 H :   -0.000168
   4 H :   -0.008577
   5 H :   -0.000098
   6 C :   -0.379874
   7 O :   -0.076872
   8 H :    0.162554
   9 H :    0.090050
  10 H :    0.095713
  11 H :    0.121315

  Mayer bond orders larger than 0.1
B(  6-C ,  7-O ) :   1.0195 B(  6-C ,  9-H ) :   0.9888 B(  6-C , 10-H ) :   0.9662
B(  6-C , 11-H ) :   0.9736 B(  7-O ,  8-H ) :   0.9081

Dispersion correction           -0.000238028
FINAL SINGLE POINT ENERGY      -115.728854369424

DIPOLE MOMENT
-------------
                                X             Y             Z
Electronic contribution:     -1.64824      -0.62899       0.67302
Nuclear contribution   :      2.28891       0.24904      -0.83369
                        -----------------------------------------
Total Dipole Moment    :      0.64067      -0.37995      -0.16067
                        -----------------------------------------
Magnitude (a.u.)       :      0.76199
Magnitude (Debye)      :      1.93683

Rotational constants in cm-1:     4.196012     0.828780     0.789993
Rotational constants in MHz : 125793.268491 24846.198639 23683.407330

                             ****ORCA TERMINATED NORMALLY****
TOTAL RUN TIME: 0 days 0 hours 1 minutes 10 seconds 242 msec
