                         Program Version 4.1.2  - RELEASE  -
|  1> #Run DFT-D3 single point of the dimer
|  2> ! wB97X-D3 def2-TZVP TIGHTSCF CHELPG PMODEL PAL8
|  3>
|  4> %base "5-148_DFT_AB"
|  5>
|  6> %scf
|  7> MaxIter 1000
|  8> end
|  9>
| 10> * xyz 0 1
| 11>   C                      8.147362             3.621650             -3.749684
| 12>   O                      8.053980             4.057583             -2.454928
| 13>   H                      7.472880             3.409524             -2.063040
| 14>   H                      7.820027             2.626620             -3.885421
| 15>   H                      7.487367             4.180078             -4.434288
| 16>   H                      9.216773             3.642630             -4.117676
| 17>   C                      5.888361             -0.466670            -5.687820
| 18>   O                      6.897682             -0.043183            -4.793632
| 19>   H                      6.450126             0.704038             -4.334588
| 20>   H                      5.874998             -1.503509            -5.997641
| 21>   H                      4.905351             -0.156203            -5.326592
| 22>   H                      6.112007             0.155839             -6.585227
| 23> *
| 24>
| 25> #Run DFT-D3 single point of the molecule with dimer basis set
| 26> $new_job
| 27> %base "5-148_DFT_A"
| 28> ! wB97X-D3 def2-TZVP TIGHTSCF CHELPG PMODEL
| 29>
| 30> %scf
| 31> MaxIter 1000
| 32> end
| 33>
| 34> * xyz 0 1
| 35>   C                      8.147362             3.621650             -3.749684
| 36>   O                      8.053980             4.057583             -2.454928
| 37>   H                      7.472880             3.409524             -2.063040
| 38>   H                      7.820027             2.626620             -3.885421
| 39>   H                      7.487367             4.180078             -4.434288
| 40>   H                      9.216773             3.642630             -4.117676
| 41>   C                    : 5.888361             -0.466670            -5.687820
| 42>   O                    : 6.897682             -0.043183            -4.793632
| 43>   H                    : 6.450126             0.704038             -4.334588
| 44>   H                    : 5.874998             -1.503509            -5.997641
| 45>   H                    : 4.905351             -0.156203            -5.326592
| 46>   H                    : 6.112007             0.155839             -6.585227
| 47> *
| 48>
| 49> #Run DFT-D3 single point of the particle with dimer basis set
| 50> $new_job
| 51> %base "5-148_DFT_B"
| 52> ! wB97X-D3 def2-TZVP TIGHTSCF CHELPG PMODEL
| 53>
| 54> %scf
| 55> MaxIter 1000
| 56> end
| 57>
| 58> * xyz 0 1
| 59>   C                    : 8.147362             3.621650             -3.749684
| 60>   O                    : 8.053980             4.057583             -2.454928
| 61>   H                    : 7.472880             3.409524             -2.063040
| 62>   H                    : 7.820027             2.626620             -3.885421
| 63>   H                    : 7.487367             4.180078             -4.434288
| 64>   H                    : 9.216773             3.642630             -4.117676
| 65>   C                      5.888361             -0.466670            -5.687820
| 66>   O                      6.897682             -0.043183            -4.793632
| 67>   H                      6.450126             0.704038             -4.334588
| 68>   H                      5.874998             -1.503509            -5.997641
| 69>   H                      4.905351             -0.156203            -5.326592
| 70>   H                      6.112007             0.155839             -6.585227
| 71> *
| 72>
| 73>                          ****END OF INPUT****
 Total Charge           Charge          ....    0
 Multiplicity           Mult            ....    1
 Number of Electrons    NEL             ....   36
Dispersion correction           -0.001153892
FINAL SINGLE POINT ENERGY      -231.457829016474
Dispersion correction           -0.000222055
FINAL SINGLE POINT ENERGY      -115.730124158274

CARTESIAN COORDINATES (ANGSTROEM)
---------------------------------
  C      8.147362    3.621650   -3.749684
  O      8.053980    4.057583   -2.454928
  H      7.472880    3.409524   -2.063040
  H      7.820027    2.626620   -3.885421
  H      7.487367    4.180078   -4.434288
  H      9.216773    3.642630   -4.117676
  C      5.888361   -0.466670   -5.687820
  O      6.897682   -0.043183   -4.793632
  H      6.450126    0.704038   -4.334588
  H      5.874998   -1.503509   -5.997641
  H      4.905351   -0.156203   -5.326592
  H      6.112007    0.155839   -6.585227

 Multiplicity           Mult            ....    1
 Number of Electrons    NEL             ....   18
 Basis Dimension        Dim             ....  172

ORBITAL ENERGIES
----------------

  NO   OCC          E(Eh)            E(eV)
   0   2.0000     -19.232240      -523.3358
   1   2.0000     -10.314305      -280.6665
   2   2.0000      -1.136810       -30.9342
   3   2.0000      -0.789242       -21.4764
   4   2.0000      -0.608642       -16.5620
   5   2.0000      -0.542757       -14.7692
   6   2.0000      -0.529454       -14.4072
   7   2.0000      -0.440597       -11.9892
   8   2.0000      -0.366147        -9.9634
   9   0.0000       0.079026         2.1504
  10   0.0000       0.120870         3.2890
  11   0.0000       0.156122         4.2483
  12   0.0000       0.165618         4.5067
  13   0.0000       0.191406         5.2084

MULLIKEN ATOMIC CHARGES
-----------------------
   0 C :    0.004074
   1 O :   -0.000051
   2 H :   -0.000020
   3 H :   -0.009658
   4 H :   -0.000004
   5 H :   -0.000328
   6 C :   -0.182777
   7 O :   -0.457758
   8 H :    0.320731
   9 H :    0.122319
  10 H :    0.100046
  11 H :    0.103427
Sum of atomic charges:    0.0000000

LOEWDIN ATOMIC CHARGES
----------------------
   0 C :   -0.001668
   1 O :   -0.000018
   2 H :   -0.000038
   3 H :   -0.004476
   4 H :   -0.000044
   5 H :   -0.000028
   6 C :   -0.391829
   7 O :   -0.089120
   8 H :    0.189293
   9 H :    0.101674
  10 H :    0.093757
  11 H :    0.102497

  Mayer bond orders larger than 0.1
B(  6-C ,  7-O ) :   0.9998 B(  6-C ,  9-H ) :   0.9659 B(  6-C , 10-H ) :   0.9881
B(  6-C , 11-H ) :   0.9865 B(  7-O ,  8-H ) :   0.8947

Dispersion correction           -0.000215458
FINAL SINGLE POINT ENERGY      -115.727849908215

DIPOLE MOMENT
-------------
                                X             Y             Z
Electronic contribution:      1.38209       0.19862       1.19026
Nuclear contribution   :     -2.05668       0.08406      -1.25313
                        -----------------------------------------
Total Dipole Moment    :     -0.67460       0.28268      -0.06287
                        -----------------------------------------
Magnitude (a.u.)       :      0.73413
Magnitude (Debye)      :      1.86600

Rotational constants in cm-1:     4.187336     0.843957     0.807293
Rotational constants in MHz : 125533.180257 25301.196740 24202.028024

                             ****ORCA TERMINATED NORMALLY****
TOTAL RUN TIME: 0 days 0 hours 0 minutes 59 seconds 670 msec
