                         Program Version 4.1.2  - RELEASE  -
|  1> #Run DFT-D3 single point of the dimer
|  2> ! wB97X-D3 def2-TZVP TIGHTSCF CHELPG PMODEL PAL8
|  3>
|  4> %base "18-31_DFT_AB"
|  5>
|  6> %scf
|  7> MaxIter 1000
|  8> end
|  9>
| 10> * xyz 0 1
| 11>   C                      5.188788             2.614549             -0.430988
| 12>   O                      4.272714             3.629414             -0.212891
| 13>   H                      4.735754             4.461235             -0.188900
| 14>   H                      5.899015             2.492255             0.391204
| 15>   H                      4.718363             1.670627             -0.695147
| 16>   H                      5.822392             2.953750             -1.309417
| 17>   C                      5.638624             6.367757             -2.213332
| 18>   O                      6.093119             5.789280             -1.037597
| 19>   H                      6.847326             6.324056             -0.734142
| 20>   H                      6.284579             6.177200             -3.036976
| 21>   H                      4.635614             6.023966             -2.427776
| 22>   H                      5.511094             7.430852             -2.117926
| 23> *
| 24>
| 25> #Run DFT-D3 single point of the molecule with dimer basis set
| 26> $new_job
| 27> %base "18-31_DFT_A"
| 28> ! wB97X-D3 def2-TZVP TIGHTSCF CHELPG PMODEL
| 29>
| 30> %scf
| 31> MaxIter 1000
| 32> end
| 33>
| 34> * xyz 0 1
| 35>   C                      5.188788             2.614549             -0.430988
| 36>   O                      4.272714             3.629414             -0.212891
| 37>   H                      4.735754             4.461235             -0.188900
| 38>   H                      5.899015             2.492255             0.391204
| 39>   H                      4.718363             1.670627             -0.695147
| 40>   H                      5.822392             2.953750             -1.309417
| 41>   C                    : 5.638624             6.367757             -2.213332
| 42>   O                    : 6.093119             5.789280             -1.037597
| 43>   H                    : 6.847326             6.324056             -0.734142
| 44>   H                    : 6.284579             6.177200             -3.036976
| 45>   H                    : 4.635614             6.023966             -2.427776
| 46>   H                    : 5.511094             7.430852             -2.117926
| 47> *
| 48>
| 49> #Run DFT-D3 single point of the particle with dimer basis set
| 50> $new_job
| 51> %base "18-31_DFT_B"
| 52> ! wB97X-D3 def2-TZVP TIGHTSCF CHELPG PMODEL
| 53>
| 54> %scf
| 55> MaxIter 1000
| 56> end
| 57>
| 58> * xyz 0 1
| 59>   C                    : 5.188788             2.614549             -0.430988
| 60>   O                    : 4.272714             3.629414             -0.212891
| 61>   H                    : 4.735754             4.461235             -0.188900
| 62>   H                    : 5.899015             2.492255             0.391204
| 63>   H                    : 4.718363             1.670627             -0.695147
| 64>   H                    : 5.822392             2.953750             -1.309417
| 65>   C                      5.638624             6.367757             -2.213332
| 66>   O                      6.093119             5.789280             -1.037597
| 67>   H                      6.847326             6.324056             -0.734142
| 68>   H                      6.284579             6.177200             -3.036976
| 69>   H                      4.635614             6.023966             -2.427776
| 70>   H                      5.511094             7.430852             -2.117926
| 71> *
| 72>
| 73>                          ****END OF INPUT****
 Total Charge           Charge          ....    0
 Multiplicity           Mult            ....    1
 Number of Electrons    NEL             ....   36
Dispersion correction           -0.001949913
FINAL SINGLE POINT ENERGY      -231.477354720832
Dispersion correction           -0.000220553
FINAL SINGLE POINT ENERGY      -115.733740230945

CARTESIAN COORDINATES (ANGSTROEM)
---------------------------------
  C      5.188788    2.614549   -0.430988
  O      4.272714    3.629414   -0.212891
  H      4.735754    4.461235   -0.188900
  H      5.899015    2.492255    0.391204
  H      4.718363    1.670627   -0.695147
  H      5.822392    2.953750   -1.309417
  C      5.638624    6.367757   -2.213332
  O      6.093119    5.789280   -1.037597
  H      6.847326    6.324056   -0.734142
  H      6.284579    6.177200   -3.036976
  H      4.635614    6.023966   -2.427776
  H      5.511094    7.430852   -2.117926

 Multiplicity           Mult            ....    1
 Number of Electrons    NEL             ....   18
 Basis Dimension        Dim             ....  172

ORBITAL ENERGIES
----------------

  NO   OCC          E(Eh)            E(eV)
   0   2.0000     -19.231884      -523.3262
   1   2.0000     -10.303159      -280.3632
   2   2.0000      -1.143414       -31.1139
   3   2.0000      -0.797826       -21.7099
   4   2.0000      -0.616116       -16.7654
   5   2.0000      -0.552676       -15.0391
   6   2.0000      -0.529033       -14.3957
   7   2.0000      -0.431698       -11.7471
   8   2.0000      -0.374588       -10.1931
   9   0.0000       0.099410         2.7051
  10   0.0000       0.127075         3.4579
  11   0.0000       0.155366         4.2277
  12   0.0000       0.184674         5.0252
  13   0.0000       0.204464         5.5638

MULLIKEN ATOMIC CHARGES
-----------------------
   0 C :    0.007441
   1 O :    0.000269
   2 H :   -0.010386
   3 H :   -0.001395
   4 H :   -0.000300
   5 H :   -0.007082
   6 C :   -0.155370
   7 O :   -0.462040
   8 H :    0.313037
   9 H :    0.101731
  10 H :    0.113171
  11 H :    0.100923
Sum of atomic charges:    0.0000000

LOEWDIN ATOMIC CHARGES
----------------------
   0 C :   -0.006674
   1 O :   -0.003154
   2 H :   -0.027548
   3 H :   -0.000339
   4 H :   -0.000064
   5 H :   -0.004199
   6 C :   -0.398738
   7 O :   -0.027940
   8 H :    0.179526
   9 H :    0.088929
  10 H :    0.107727
  11 H :    0.092474

  Mayer bond orders larger than 0.1
B(  6-C ,  7-O ) :   0.9918 B(  6-C ,  9-H ) :   0.9746 B(  6-C , 10-H ) :   0.9776
B(  6-C , 11-H ) :   0.9778 B(  7-O ,  8-H ) :   0.8958

Dispersion correction           -0.000218739
FINAL SINGLE POINT ENERGY      -115.735209695512

DIPOLE MOMENT
-------------
                                X             Y             Z
Electronic contribution:      0.54317      -0.89464       1.49429
Nuclear contribution   :     -0.25473       1.47722      -1.75461
                        -----------------------------------------
Total Dipole Moment    :      0.28844       0.58259      -0.26032
                        -----------------------------------------
Magnitude (a.u.)       :      0.70026
Magnitude (Debye)      :      1.77993

Rotational constants in cm-1:     4.420602     0.860194     0.830298
Rotational constants in MHz : 132526.302907 25787.968156 24891.696570

                             ****ORCA TERMINATED NORMALLY****
TOTAL RUN TIME: 0 days 0 hours 1 minutes 4 seconds 554 msec
