                         Program Version 4.1.2  - RELEASE  -
|  1> #Run DFT-D3 single point of the dimer
|  2> ! wB97X-D3 def2-TZVP TIGHTSCF CHELPG PMODEL PAL8
|  3>
|  4> %base "17-105_DFT_AB"
|  5>
|  6> %scf
|  7> MaxIter 1000
|  8> end
|  9>
| 10> * xyz 0 1
| 11>   C                      -3.510231            -1.086601            -3.537600
| 12>   O                      -4.343705            -1.752611            -4.437602
| 13>   H                      -5.224240            -1.403687            -4.477860
| 14>   H                      -4.049414            -0.835512            -2.615135
| 15>   H                      -2.571821            -1.682410            -3.278911
| 16>   H                      -3.190376            -0.068218            -3.952758
| 17>   C                      0.647769             0.124529             -6.481577
| 18>   O                      -0.226637            -0.471103            -5.579255
| 19>   H                      -1.142298            -0.269324            -5.796997
| 20>   H                      0.812610             1.142135             -6.183510
| 21>   H                      1.646017             -0.430610            -6.555215
| 22>   H                      0.176068             0.014633             -7.407592
| 23> *
| 24>
| 25> #Run DFT-D3 single point of the molecule with dimer basis set
| 26> $new_job
| 27> %base "17-105_DFT_A"
| 28> ! wB97X-D3 def2-TZVP TIGHTSCF CHELPG PMODEL
| 29>
| 30> %scf
| 31> MaxIter 1000
| 32> end
| 33>
| 34> * xyz 0 1
| 35>   C                      -3.510231            -1.086601            -3.537600
| 36>   O                      -4.343705            -1.752611            -4.437602
| 37>   H                      -5.224240            -1.403687            -4.477860
| 38>   H                      -4.049414            -0.835512            -2.615135
| 39>   H                      -2.571821            -1.682410            -3.278911
| 40>   H                      -3.190376            -0.068218            -3.952758
| 41>   C                    : 0.647769             0.124529             -6.481577
| 42>   O                    : -0.226637            -0.471103            -5.579255
| 43>   H                    : -1.142298            -0.269324            -5.796997
| 44>   H                    : 0.812610             1.142135             -6.183510
| 45>   H                    : 1.646017             -0.430610            -6.555215
| 46>   H                    : 0.176068             0.014633             -7.407592
| 47> *
| 48>
| 49> #Run DFT-D3 single point of the particle with dimer basis set
| 50> $new_job
| 51> %base "17-105_DFT_B"
| 52> ! wB97X-D3 def2-TZVP TIGHTSCF CHELPG PMODEL
| 53>
| 54> %scf
| 55> MaxIter 1000
| 56> end
| 57>
| 58> * xyz 0 1
| 59>   C                    : -3.510231            -1.086601            -3.537600
| 60>   O                    : -4.343705            -1.752611            -4.437602
| 61>   H                    : -5.224240            -1.403687            -4.477860
| 62>   H                    : -4.049414            -0.835512            -2.615135
| 63>   H                    : -2.571821            -1.682410            -3.278911
| 64>   H                    : -3.190376            -0.068218            -3.952758
| 65>   C                      0.647769             0.124529             -6.481577
| 66>   O                      -0.226637            -0.471103            -5.579255
| 67>   H                      -1.142298            -0.269324            -5.796997
| 68>   H                      0.812610             1.142135             -6.183510
| 69>   H                      1.646017             -0.430610            -6.555215
| 70>   H                      0.176068             0.014633             -7.407592
| 71> *
| 72>
| 73>                          ****END OF INPUT****
 Total Charge           Charge          ....    0
 Multiplicity           Mult            ....    1
 Number of Electrons    NEL             ....   36
Dispersion correction           -0.001175750
FINAL SINGLE POINT ENERGY      -231.462583923577
Dispersion correction           -0.000257141
FINAL SINGLE POINT ENERGY      -115.732114726487

CARTESIAN COORDINATES (ANGSTROEM)
---------------------------------
  C     -3.510231   -1.086601   -3.537600
  O     -4.343705   -1.752611   -4.437602
  H     -5.224240   -1.403687   -4.477860
  H     -4.049414   -0.835512   -2.615135
  H     -2.571821   -1.682410   -3.278911
  H     -3.190376   -0.068218   -3.952758
  C      0.647769    0.124529   -6.481577
  O     -0.226637   -0.471103   -5.579255
  H     -1.142298   -0.269324   -5.796997
  H      0.812610    1.142135   -6.183510
  H      1.646017   -0.430610   -6.555215
  H      0.176068    0.014633   -7.407592

 Multiplicity           Mult            ....    1
 Number of Electrons    NEL             ....   18
 Basis Dimension        Dim             ....  172

ORBITAL ENERGIES
----------------

  NO   OCC          E(Eh)            E(eV)
   0   2.0000     -19.223622      -523.1013
   1   2.0000     -10.308408      -280.5060
   2   2.0000      -1.139864       -31.0173
   3   2.0000      -0.794473       -21.6187
   4   2.0000      -0.612375       -16.6636
   5   2.0000      -0.557473       -15.1696
   6   2.0000      -0.528804       -14.3895
   7   2.0000      -0.419625       -11.4186
   8   2.0000      -0.371023       -10.0961
   9   0.0000       0.082019         2.2319
  10   0.0000       0.123025         3.3477
  11   0.0000       0.153939         4.1889
  12   0.0000       0.170810         4.6480
  13   0.0000       0.199438         5.4270

MULLIKEN ATOMIC CHARGES
-----------------------
   0 C :    0.000916
   1 O :   -0.000015
   2 H :   -0.000004
   3 H :   -0.000113
   4 H :   -0.000806
   5 H :   -0.002570
   6 C :   -0.147219
   7 O :   -0.483505
   8 H :    0.320070
   9 H :    0.100224
  10 H :    0.109152
  11 H :    0.103867
Sum of atomic charges:   -0.0000000

LOEWDIN ATOMIC CHARGES
----------------------
   0 C :   -0.001644
   1 O :   -0.000030
   2 H :   -0.000001
   3 H :   -0.000008
   4 H :   -0.000713
   5 H :   -0.001376
   6 C :   -0.392855
   7 O :   -0.068670
   8 H :    0.171114
   9 H :    0.090654
  10 H :    0.116695
  11 H :    0.086832

  Mayer bond orders larger than 0.1
B(  6-C ,  7-O ) :   0.9938 B(  6-C ,  9-H ) :   0.9767 B(  6-C , 10-H ) :   0.9685
B(  6-C , 11-H ) :   0.9957 B(  7-O ,  8-H ) :   0.8918

Dispersion correction           -0.000216346
FINAL SINGLE POINT ENERGY      -115.729139976601

DIPOLE MOMENT
-------------
                                X             Y             Z
Electronic contribution:     -0.98516      -0.71928       1.17108
Nuclear contribution   :      0.73143       1.07783      -1.69801
                        -----------------------------------------
Total Dipole Moment    :     -0.25373       0.35855      -0.52693
                        -----------------------------------------
Magnitude (a.u.)       :      0.68600
Magnitude (Debye)      :      1.74367

Rotational constants in cm-1:     4.314413     0.857729     0.831712
Rotational constants in MHz : 129342.835266 25714.078535 24934.090031

                             ****ORCA TERMINATED NORMALLY****
TOTAL RUN TIME: 0 days 0 hours 1 minutes 0 seconds 512 msec
