                         Program Version 4.1.2  - RELEASE  -
|  1> #Run DFT-D3 single point of the dimer
|  2> ! wB97X-D3 def2-TZVP TIGHTSCF CHELPG PMODEL PAL8
|  3>
|  4> %base "15-117_DFT_AB"
|  5>
|  6> %scf
|  7> MaxIter 1000
|  8> end
|  9>
| 10> * xyz 0 1
| 11>   C                      -8.741298            2.011350             -3.240860
| 12>   O                      -9.621524            0.943779             -3.563059
| 13>   H                      -9.309505            0.156833             -3.162644
| 14>   H                      -9.085731            2.993607             -3.654103
| 15>   H                      -8.600028            2.141304             -2.154189
| 16>   H                      -7.868140            1.741703             -3.848083
| 17>   C                      -4.432749            -0.665005            -4.183704
| 18>   O                      -5.511980            -0.222480            -3.434438
| 19>   H                      -5.248983            0.389718             -2.720610
| 20>   H                      -4.629903            -0.997595            -5.147036
| 21>   H                      -3.745433            0.176684             -4.392793
| 22>   H                      -3.865923            -1.420292            -3.627078
| 23> *
| 24>
| 25> #Run DFT-D3 single point of the molecule with dimer basis set
| 26> $new_job
| 27> %base "15-117_DFT_A"
| 28> ! wB97X-D3 def2-TZVP TIGHTSCF CHELPG PMODEL
| 29>
| 30> %scf
| 31> MaxIter 1000
| 32> end
| 33>
| 34> * xyz 0 1
| 35>   C                      -8.741298            2.011350             -3.240860
| 36>   O                      -9.621524            0.943779             -3.563059
| 37>   H                      -9.309505            0.156833             -3.162644
| 38>   H                      -9.085731            2.993607             -3.654103
| 39>   H                      -8.600028            2.141304             -2.154189
| 40>   H                      -7.868140            1.741703             -3.848083
| 41>   C                    : -4.432749            -0.665005            -4.183704
| 42>   O                    : -5.511980            -0.222480            -3.434438
| 43>   H                    : -5.248983            0.389718             -2.720610
| 44>   H                    : -4.629903            -0.997595            -5.147036
| 45>   H                    : -3.745433            0.176684             -4.392793
| 46>   H                    : -3.865923            -1.420292            -3.627078
| 47> *
| 48>
| 49> #Run DFT-D3 single point of the particle with dimer basis set
| 50> $new_job
| 51> %base "15-117_DFT_B"
| 52> ! wB97X-D3 def2-TZVP TIGHTSCF CHELPG PMODEL
| 53>
| 54> %scf
| 55> MaxIter 1000
| 56> end
| 57>
| 58> * xyz 0 1
| 59>   C                    : -8.741298            2.011350             -3.240860
| 60>   O                    : -9.621524            0.943779             -3.563059
| 61>   H                    : -9.309505            0.156833             -3.162644
| 62>   H                    : -9.085731            2.993607             -3.654103
| 63>   H                    : -8.600028            2.141304             -2.154189
| 64>   H                    : -7.868140            1.741703             -3.848083
| 65>   C                      -4.432749            -0.665005            -4.183704
| 66>   O                      -5.511980            -0.222480            -3.434438
| 67>   H                      -5.248983            0.389718             -2.720610
| 68>   H                      -4.629903            -0.997595            -5.147036
| 69>   H                      -3.745433            0.176684             -4.392793
| 70>   H                      -3.865923            -1.420292            -3.627078
| 71> *
| 72>
| 73>                          ****END OF INPUT****
 Total Charge           Charge          ....    0
 Multiplicity           Mult            ....    1
 Number of Electrons    NEL             ....   36
Dispersion correction           -0.001149282
FINAL SINGLE POINT ENERGY      -231.461781179172
Dispersion correction           -0.000231632
FINAL SINGLE POINT ENERGY      -115.729680117468

CARTESIAN COORDINATES (ANGSTROEM)
---------------------------------
  C     -8.741298    2.011350   -3.240860
  O     -9.621524    0.943779   -3.563059
  H     -9.309505    0.156833   -3.162644
  H     -9.085731    2.993607   -3.654103
  H     -8.600028    2.141304   -2.154189
  H     -7.868140    1.741703   -3.848083
  C     -4.432749   -0.665005   -4.183704
  O     -5.511980   -0.222480   -3.434438
  H     -5.248983    0.389718   -2.720610
  H     -4.629903   -0.997595   -5.147036
  H     -3.745433    0.176684   -4.392793
  H     -3.865923   -1.420292   -3.627078

 Multiplicity           Mult            ....    1
 Number of Electrons    NEL             ....   18
 Basis Dimension        Dim             ....  172

ORBITAL ENERGIES
----------------

  NO   OCC          E(Eh)            E(eV)
   0   2.0000     -19.229996      -523.2748
   1   2.0000     -10.307252      -280.4746
   2   2.0000      -1.138990       -30.9935
   3   2.0000      -0.800389       -21.7797
   4   2.0000      -0.615022       -16.7356
   5   2.0000      -0.551445       -15.0056
   6   2.0000      -0.533854       -14.5269
   7   2.0000      -0.421693       -11.4748
   8   2.0000      -0.371383       -10.1058
   9   0.0000       0.091975         2.5028
  10   0.0000       0.120915         3.2903
  11   0.0000       0.154666         4.2087
  12   0.0000       0.174371         4.7449
  13   0.0000       0.199484         5.4282

MULLIKEN ATOMIC CHARGES
-----------------------
   0 C :    0.003573
   1 O :    0.000032
   2 H :   -0.000808
   3 H :   -0.000192
   4 H :   -0.000005
   5 H :   -0.008770
   6 C :   -0.149761
   7 O :   -0.479437
   8 H :    0.325140
   9 H :    0.121043
  10 H :    0.093819
  11 H :    0.095366
Sum of atomic charges:   -0.0000000

LOEWDIN ATOMIC CHARGES
----------------------
   0 C :   -0.001991
   1 O :   -0.000035
   2 H :   -0.000451
   3 H :   -0.000014
   4 H :   -0.000045
   5 H :   -0.004625
   6 C :   -0.399836
   7 O :   -0.062754
   8 H :    0.182872
   9 H :    0.093929
  10 H :    0.097834
  11 H :    0.095117

  Mayer bond orders larger than 0.1
B(  6-C ,  7-O ) :   0.9994 B(  6-C ,  9-H ) :   0.9707 B(  6-C , 10-H ) :   0.9860
B(  6-C , 11-H ) :   0.9777 B(  7-O ,  8-H ) :   0.8872

Dispersion correction           -0.000235534
FINAL SINGLE POINT ENERGY      -115.730340205073

DIPOLE MOMENT
-------------
                                X             Y             Z
Electronic contribution:     -1.61035       0.39205       0.84423
Nuclear contribution   :      2.21158      -0.16320      -0.70392
                        -----------------------------------------
Total Dipole Moment    :      0.60123       0.22885       0.14031
                        -----------------------------------------
Magnitude (a.u.)       :      0.65844
Magnitude (Debye)      :      1.67361

Rotational constants in cm-1:     4.495062     0.843899     0.823758
Rotational constants in MHz : 134758.567962 25299.452294 24695.657946

                             ****ORCA TERMINATED NORMALLY****
TOTAL RUN TIME: 0 days 0 hours 0 minutes 57 seconds 263 msec
