                         Program Version 4.1.2  - RELEASE  -
|  1> #Run DFT-D3 single point of the dimer
|  2> ! wB97X-D3 def2-TZVP TIGHTSCF CHELPG PMODEL PAL8
|  3>
|  4> %base "4-14_DFT_AB"
|  5>
|  6> %scf
|  7> MaxIter 1000
|  8> end
|  9>
| 10> * xyz 0 1
| 11>   C                      -3.440480            1.608124             -5.363870
| 12>   O                      -4.023051            1.698251             -6.686188
| 13>   H                      -4.350094            0.892071             -7.073146
| 14>   H                      -4.299878            1.217766             -4.707092
| 15>   H                      -2.598717            0.960056             -5.139841
| 16>   H                      -3.210669            2.597576             -4.898620
| 17>   C                      -0.204486            2.809993             -7.175567
| 18>   O                      0.584612             2.610216             -8.350348
| 19>   H                      0.384452             3.321043             -8.939273
| 20>   H                      -1.255863            2.672547             -7.339492
| 21>   H                      0.018764             2.055456             -6.448996
| 22>   H                      -0.074043            3.873915             -6.807843
| 23> *
| 24>
| 25> #Run DFT-D3 single point of the molecule with dimer basis set
| 26> $new_job
| 27> %base "4-14_DFT_A"
| 28> ! wB97X-D3 def2-TZVP TIGHTSCF CHELPG PMODEL
| 29>
| 30> %scf
| 31> MaxIter 1000
| 32> end
| 33>
| 34> * xyz 0 1
| 35>   C                      -3.440480            1.608124             -5.363870
| 36>   O                      -4.023051            1.698251             -6.686188
| 37>   H                      -4.350094            0.892071             -7.073146
| 38>   H                      -4.299878            1.217766             -4.707092
| 39>   H                      -2.598717            0.960056             -5.139841
| 40>   H                      -3.210669            2.597576             -4.898620
| 41>   C                    : -0.204486            2.809993             -7.175567
| 42>   O                    : 0.584612             2.610216             -8.350348
| 43>   H                    : 0.384452             3.321043             -8.939273
| 44>   H                    : -1.255863            2.672547             -7.339492
| 45>   H                    : 0.018764             2.055456             -6.448996
| 46>   H                    : -0.074043            3.873915             -6.807843
| 47> *
| 48>
| 49> #Run DFT-D3 single point of the particle with dimer basis set
| 50> $new_job
| 51> %base "4-14_DFT_B"
| 52> ! wB97X-D3 def2-TZVP TIGHTSCF CHELPG PMODEL
| 53>
| 54> %scf
| 55> MaxIter 1000
| 56> end
| 57>
| 58> * xyz 0 1
| 59>   C                    : -3.440480            1.608124             -5.363870
| 60>   O                    : -4.023051            1.698251             -6.686188
| 61>   H                    : -4.350094            0.892071             -7.073146
| 62>   H                    : -4.299878            1.217766             -4.707092
| 63>   H                    : -2.598717            0.960056             -5.139841
| 64>   H                    : -3.210669            2.597576             -4.898620
| 65>   C                      -0.204486            2.809993             -7.175567
| 66>   O                      0.584612             2.610216             -8.350348
| 67>   H                      0.384452             3.321043             -8.939273
| 68>   H                      -1.255863            2.672547             -7.339492
| 69>   H                      0.018764             2.055456             -6.448996
| 70>   H                      -0.074043            3.873915             -6.807843
| 71> *
| 72>
| 73>                          ****END OF INPUT****
 Total Charge           Charge          ....    0
 Multiplicity           Mult            ....    1
 Number of Electrons    NEL             ....   36
Dispersion correction           -0.001612016
FINAL SINGLE POINT ENERGY      -231.459880713476
Dispersion correction           -0.000299515
FINAL SINGLE POINT ENERGY      -115.724466436936

CARTESIAN COORDINATES (ANGSTROEM)
---------------------------------
  C     -3.440480    1.608124   -5.363870
  O     -4.023051    1.698251   -6.686188
  H     -4.350094    0.892071   -7.073146
  H     -4.299878    1.217766   -4.707092
  H     -2.598717    0.960056   -5.139841
  H     -3.210669    2.597576   -4.898620
  C     -0.204486    2.809993   -7.175567
  O      0.584612    2.610216   -8.350348
  H      0.384452    3.321043   -8.939273
  H     -1.255863    2.672547   -7.339492
  H      0.018764    2.055456   -6.448996
  H     -0.074043    3.873915   -6.807843

 Multiplicity           Mult            ....    1
 Number of Electrons    NEL             ....   18
 Basis Dimension        Dim             ....  172

ORBITAL ENERGIES
----------------

  NO   OCC          E(Eh)            E(eV)
   0   2.0000     -19.228799      -523.2422
   1   2.0000     -10.314188      -280.6633
   2   2.0000      -1.135180       -30.8898
   3   2.0000      -0.798650       -21.7324
   4   2.0000      -0.609885       -16.5958
   5   2.0000      -0.542175       -14.7533
   6   2.0000      -0.524209       -14.2645
   7   2.0000      -0.439122       -11.9491
   8   2.0000      -0.372922       -10.1477
   9   0.0000       0.079902         2.1742
  10   0.0000       0.117438         3.1957
  11   0.0000       0.148361         4.0371
  12   0.0000       0.165370         4.5000
  13   0.0000       0.180709         4.9173

MULLIKEN ATOMIC CHARGES
-----------------------
   0 C :   -0.002107
   1 O :    0.000505
   2 H :    0.000015
   3 H :   -0.000080
   4 H :   -0.000361
   5 H :    0.000282
   6 C :   -0.173685
   7 O :   -0.472385
   8 H :    0.311193
   9 H :    0.108874
  10 H :    0.126885
  11 H :    0.100863
Sum of atomic charges:   -0.0000000

LOEWDIN ATOMIC CHARGES
----------------------
   0 C :   -0.004688
   1 O :   -0.001090
   2 H :   -0.000139
   3 H :   -0.000069
   4 H :   -0.000628
   5 H :   -0.000356
   6 C :   -0.372299
   7 O :   -0.079327
   8 H :    0.157480
   9 H :    0.091671
  10 H :    0.105729
  11 H :    0.103716

  Mayer bond orders larger than 0.1
B(  6-C ,  7-O ) :   0.9915 B(  6-C ,  9-H ) :   0.9713 B(  6-C , 10-H ) :   0.9723
B(  6-C , 11-H ) :   0.9780 B(  7-O ,  8-H ) :   0.9047

Dispersion correction           -0.000240100
FINAL SINGLE POINT ENERGY      -115.733602117930

DIPOLE MOMENT
-------------
                                X             Y             Z
Electronic contribution:      1.10077      -0.42615      -1.41562
Nuclear contribution   :     -1.56188       0.93267       1.50953
                        -----------------------------------------
Total Dipole Moment    :     -0.46112       0.50652       0.09391
                        -----------------------------------------
Magnitude (a.u.)       :      0.69139
Magnitude (Debye)      :      1.75737

Rotational constants in cm-1:     4.321692     0.821796     0.786519
Rotational constants in MHz : 129561.068466 24636.827421 23579.257666

                             ****ORCA TERMINATED NORMALLY****
TOTAL RUN TIME: 0 days 0 hours 1 minutes 29 seconds 398 msec
