                         Program Version 4.1.2  - RELEASE  -
|  1> #Run DFT-D3 single point of the dimer
|  2> ! wB97X-D3 def2-TZVP TIGHTSCF CHELPG PMODEL PAL8
|  3>
|  4> %base "21-53_DFT_AB"
|  5>
|  6> %scf
|  7> MaxIter 1000
|  8> end
|  9>
| 10> * xyz 0 1
| 11>   C                      -5.021241            -8.045832            2.494545
| 12>   O                      -5.989247            -7.308026            3.203133
| 13>   H                      -6.772489            -7.218520            2.640288
| 14>   H                      -4.100609            -8.060883            3.101031
| 15>   H                      -5.262900            -9.056602            2.291049
| 16>   H                      -4.833772            -7.685138            1.454732
| 17>   C                      -9.148478            -7.699592            3.750944
| 18>   O                      -8.768307            -7.188692            2.457517
| 19>   H                      -9.539388            -7.228703            1.924182
| 20>   H                      -9.498770            -8.728555            3.697572
| 21>   H                      -8.469807            -7.543474            4.609705
| 22>   H                      -10.003615           -7.123015            4.042330
| 23> *
| 24>
| 25> #Run DFT-D3 single point of the molecule with dimer basis set
| 26> $new_job
| 27> %base "21-53_DFT_A"
| 28> ! wB97X-D3 def2-TZVP TIGHTSCF CHELPG PMODEL
| 29>
| 30> %scf
| 31> MaxIter 1000
| 32> end
| 33>
| 34> * xyz 0 1
| 35>   C                      -5.021241            -8.045832            2.494545
| 36>   O                      -5.989247            -7.308026            3.203133
| 37>   H                      -6.772489            -7.218520            2.640288
| 38>   H                      -4.100609            -8.060883            3.101031
| 39>   H                      -5.262900            -9.056602            2.291049
| 40>   H                      -4.833772            -7.685138            1.454732
| 41>   C                    : -9.148478            -7.699592            3.750944
| 42>   O                    : -8.768307            -7.188692            2.457517
| 43>   H                    : -9.539388            -7.228703            1.924182
| 44>   H                    : -9.498770            -8.728555            3.697572
| 45>   H                    : -8.469807            -7.543474            4.609705
| 46>   H                    : -10.003615           -7.123015            4.042330
| 47> *
| 48>
| 49> #Run DFT-D3 single point of the particle with dimer basis set
| 50> $new_job
| 51> %base "21-53_DFT_B"
| 52> ! wB97X-D3 def2-TZVP TIGHTSCF CHELPG PMODEL
| 53>
| 54> %scf
| 55> MaxIter 1000
| 56> end
| 57>
| 58> * xyz 0 1
| 59>   C                    : -5.021241            -8.045832            2.494545
| 60>   O                    : -5.989247            -7.308026            3.203133
| 61>   H                    : -6.772489            -7.218520            2.640288
| 62>   H                    : -4.100609            -8.060883            3.101031
| 63>   H                    : -5.262900            -9.056602            2.291049
| 64>   H                    : -4.833772            -7.685138            1.454732
| 65>   C                      -9.148478            -7.699592            3.750944
| 66>   O                      -8.768307            -7.188692            2.457517
| 67>   H                      -9.539388            -7.228703            1.924182
| 68>   H                      -9.498770            -8.728555            3.697572
| 69>   H                      -8.469807            -7.543474            4.609705
| 70>   H                      -10.003615           -7.123015            4.042330
| 71> *
| 72>
| 73>                          ****END OF INPUT****
 Total Charge           Charge          ....    0
 Multiplicity           Mult            ....    1
 Number of Electrons    NEL             ....   36
Dispersion correction           -0.001707156
FINAL SINGLE POINT ENERGY      -231.471148612949
Dispersion correction           -0.000248837
FINAL SINGLE POINT ENERGY      -115.734045783673

CARTESIAN COORDINATES (ANGSTROEM)
---------------------------------
  C     -5.021241   -8.045832    2.494545
  O     -5.989247   -7.308026    3.203133
  H     -6.772489   -7.218520    2.640288
  H     -4.100609   -8.060883    3.101031
  H     -5.262900   -9.056602    2.291049
  H     -4.833772   -7.685138    1.454732
  C     -9.148478   -7.699592    3.750944
  O     -8.768307   -7.188692    2.457517
  H     -9.539388   -7.228703    1.924182
  H     -9.498770   -8.728555    3.697572
  H     -8.469807   -7.543474    4.609705
  H    -10.003615   -7.123015    4.042330

 Multiplicity           Mult            ....    1
 Number of Electrons    NEL             ....   18
 Basis Dimension        Dim             ....  172

ORBITAL ENERGIES
----------------

  NO   OCC          E(Eh)            E(eV)
   0   2.0000     -19.228993      -523.2475
   1   2.0000     -10.314478      -280.6712
   2   2.0000      -1.134210       -30.8634
   3   2.0000      -0.800227       -21.7753
   4   2.0000      -0.608587       -16.5605
   5   2.0000      -0.543047       -14.7770
   6   2.0000      -0.528865       -14.3912
   7   2.0000      -0.434193       -11.8150
   8   2.0000      -0.374035       -10.1780
   9   0.0000       0.098477         2.6797
  10   0.0000       0.122192         3.3250
  11   0.0000       0.149256         4.0615
  12   0.0000       0.188748         5.1361
  13   0.0000       0.202316         5.5053

MULLIKEN ATOMIC CHARGES
-----------------------
   0 C :   -0.001219
   1 O :    0.001290
   2 H :   -0.007817
   3 H :   -0.000114
   4 H :   -0.000085
   5 H :   -0.000012
   6 C :   -0.181805
   7 O :   -0.465084
   8 H :    0.308206
   9 H :    0.108356
  10 H :    0.129326
  11 H :    0.108957
Sum of atomic charges:    0.0000000

LOEWDIN ATOMIC CHARGES
----------------------
   0 C :   -0.001226
   1 O :   -0.004392
   2 H :   -0.032277
   3 H :   -0.000023
   4 H :   -0.000094
   5 H :   -0.000039
   6 C :   -0.361159
   7 O :   -0.059226
   8 H :    0.154229
   9 H :    0.095299
  10 H :    0.114736
  11 H :    0.094172

  Mayer bond orders larger than 0.1
B(  6-C ,  7-O ) :   0.9764 B(  6-C ,  9-H ) :   0.9721 B(  6-C , 10-H ) :   0.9710
B(  6-C , 11-H ) :   0.9849 B(  7-O ,  8-H ) :   0.9034

Dispersion correction           -0.000236910
FINAL SINGLE POINT ENERGY      -115.728958191621

DIPOLE MOMENT
-------------
                                X             Y             Z
Electronic contribution:      0.77823       0.59731      -1.59532
Nuclear contribution   :     -1.46171      -0.81040       1.81568
                        -----------------------------------------
Total Dipole Moment    :     -0.68348      -0.21309       0.22036
                        -----------------------------------------
Magnitude (a.u.)       :      0.74908
Magnitude (Debye)      :      1.90401

Rotational constants in cm-1:     4.459614     0.804303     0.775306
Rotational constants in MHz : 133695.861506 24112.411915 23243.103366

                             ****ORCA TERMINATED NORMALLY****
TOTAL RUN TIME: 0 days 0 hours 1 minutes 6 seconds 404 msec
