                         Program Version 4.1.2  - RELEASE  -
|  1> #Run DFT-D3 single point of the dimer
|  2> ! wB97X-D3 def2-TZVP TIGHTSCF CHELPG PMODEL PAL8
|  3>
|  4> %base "1-40_DFT_AB"
|  5>
|  6> %scf
|  7> MaxIter 1000
|  8> end
|  9>
| 10> * xyz 0 1
| 11>   C                      -2.553089            -9.341690            7.829840
| 12>   O                      -3.202982            -9.262673            6.528423
| 13>   H                      -3.995979            -9.807772            6.501171
| 14>   H                      -1.675079            -8.720392            7.907150
| 15>   H                      -3.152298            -8.937749            8.646217
| 16>   H                      -2.217675            -10.345372           8.116701
| 17>   C                      0.144095             -7.252960            6.891746
| 18>   O                      0.342838             -6.072351            7.719867
| 19>   H                      0.144008             -6.243576            8.650731
| 20>   H                      -0.412885            -7.910515            7.511644
| 21>   H                      -0.473165            -7.072138            6.063705
| 22>   H                      1.048022             -7.622503            6.470122
| 23> *
| 24>
| 25> #Run DFT-D3 single point of the molecule with dimer basis set
| 26> $new_job
| 27> %base "1-40_DFT_A"
| 28> ! wB97X-D3 def2-TZVP TIGHTSCF CHELPG PMODEL
| 29>
| 30> %scf
| 31> MaxIter 1000
| 32> end
| 33>
| 34> * xyz 0 1
| 35>   C                      -2.553089            -9.341690            7.829840
| 36>   O                      -3.202982            -9.262673            6.528423
| 37>   H                      -3.995979            -9.807772            6.501171
| 38>   H                      -1.675079            -8.720392            7.907150
| 39>   H                      -3.152298            -8.937749            8.646217
| 40>   H                      -2.217675            -10.345372           8.116701
| 41>   C                    : 0.144095             -7.252960            6.891746
| 42>   O                    : 0.342838             -6.072351            7.719867
| 43>   H                    : 0.144008             -6.243576            8.650731
| 44>   H                    : -0.412885            -7.910515            7.511644
| 45>   H                    : -0.473165            -7.072138            6.063705
| 46>   H                    : 1.048022             -7.622503            6.470122
| 47> *
| 48>
| 49> #Run DFT-D3 single point of the particle with dimer basis set
| 50> $new_job
| 51> %base "1-40_DFT_B"
| 52> ! wB97X-D3 def2-TZVP TIGHTSCF CHELPG PMODEL
| 53>
| 54> %scf
| 55> MaxIter 1000
| 56> end
| 57>
| 58> * xyz 0 1
| 59>   C                    : -2.553089            -9.341690            7.829840
| 60>   O                    : -3.202982            -9.262673            6.528423
| 61>   H                    : -3.995979            -9.807772            6.501171
| 62>   H                    : -1.675079            -8.720392            7.907150
| 63>   H                    : -3.152298            -8.937749            8.646217
| 64>   H                    : -2.217675            -10.345372           8.116701
| 65>   C                      0.144095             -7.252960            6.891746
| 66>   O                      0.342838             -6.072351            7.719867
| 67>   H                      0.144008             -6.243576            8.650731
| 68>   H                      -0.412885            -7.910515            7.511644
| 69>   H                      -0.473165            -7.072138            6.063705
| 70>   H                      1.048022             -7.622503            6.470122
| 71> *
| 72>
| 73>                          ****END OF INPUT****
 Total Charge           Charge          ....    0
 Multiplicity           Mult            ....    1
 Number of Electrons    NEL             ....   36
Dispersion correction           -0.001789863
FINAL SINGLE POINT ENERGY      -231.454465497286
Dispersion correction           -0.000288248
FINAL SINGLE POINT ENERGY      -115.732457908079

CARTESIAN COORDINATES (ANGSTROEM)
---------------------------------
  C     -2.553089   -9.341690    7.829840
  O     -3.202982   -9.262673    6.528423
  H     -3.995979   -9.807772    6.501171
  H     -1.675079   -8.720392    7.907150
  H     -3.152298   -8.937749    8.646217
  H     -2.217675  -10.345372    8.116701
  C      0.144095   -7.252960    6.891746
  O      0.342838   -6.072351    7.719867
  H      0.144008   -6.243576    8.650731
  H     -0.412885   -7.910515    7.511644
  H     -0.473165   -7.072138    6.063705
  H      1.048022   -7.622503    6.470122

 Multiplicity           Mult            ....    1
 Number of Electrons    NEL             ....   18
 Basis Dimension        Dim             ....  172

ORBITAL ENERGIES
----------------

  NO   OCC          E(Eh)            E(eV)
   0   2.0000     -19.224645      -523.1292
   1   2.0000     -10.306155      -280.4447
   2   2.0000      -1.117894       -30.4195
   3   2.0000      -0.806778       -21.9536
   4   2.0000      -0.601504       -16.3678
   5   2.0000      -0.548537       -14.9264
   6   2.0000      -0.532275       -14.4839
   7   2.0000      -0.423744       -11.5307
   8   2.0000      -0.373768       -10.1708
   9   0.0000       0.081463         2.2167
  10   0.0000       0.115838         3.1521
  11   0.0000       0.155967         4.2441
  12   0.0000       0.164971         4.4891
  13   0.0000       0.192715         5.2440

MULLIKEN ATOMIC CHARGES
-----------------------
   0 C :   -0.011958
   1 O :    0.000325
   2 H :   -0.000014
   3 H :    0.019807
   4 H :   -0.000031
   5 H :    0.000627
   6 C :   -0.120041
   7 O :   -0.499016
   8 H :    0.318962
   9 H :    0.067123
  10 H :    0.114035
  11 H :    0.110180
Sum of atomic charges:    0.0000000

LOEWDIN ATOMIC CHARGES
----------------------
   0 C :   -0.011198
   1 O :   -0.000228
   2 H :   -0.000020
   3 H :   -0.026441
   4 H :   -0.000140
   5 H :   -0.000184
   6 C :   -0.321527
   7 O :   -0.113437
   8 H :    0.168156
   9 H :    0.114079
  10 H :    0.095817
  11 H :    0.095122

  Mayer bond orders larger than 0.1
B(  6-C ,  7-O ) :   1.0092 B(  6-C ,  9-H ) :   1.0154 B(  6-C , 10-H ) :   0.9807
B(  6-C , 11-H ) :   0.9758 B(  7-O ,  8-H ) :   0.8987

Dispersion correction           -0.000249000
FINAL SINGLE POINT ENERGY      -115.727432158252

DIPOLE MOMENT
-------------
                                X             Y             Z
Electronic contribution:      0.35163       1.44133       0.84922
Nuclear contribution   :     -0.59256      -2.06976      -0.62001
                        -----------------------------------------
Total Dipole Moment    :     -0.24093      -0.62843       0.22921
                        -----------------------------------------
Magnitude (a.u.)       :      0.71100
Magnitude (Debye)      :      1.80721

Rotational constants in cm-1:     4.572660     0.798259     0.767757
Rotational constants in MHz : 137084.893761 23931.196493 23016.766495

                             ****ORCA TERMINATED NORMALLY****
TOTAL RUN TIME: 0 days 0 hours 6 minutes 9 seconds 776 msec
