                         Program Version 4.1.2  - RELEASE  -
|  1> #Run DFT-D3 single point of the dimer
|  2> ! wB97X-D3 def2-TZVP TIGHTSCF CHELPG PMODEL PAL8
|  3>
|  4> %base "4-142_DFT_AB"
|  5>
|  6> %scf
|  7> MaxIter 1000
|  8> end
|  9>
| 10> * xyz 0 1
| 11>   C                      5.575884             3.455816             2.278661
| 12>   O                      5.570222             4.240747             1.097227
| 13>   H                      5.316256             5.104723             1.255462
| 14>   H                      6.440792             2.781911             2.223781
| 15>   H                      5.662425             4.071573             3.151950
| 16>   H                      4.681182             2.723832             2.396170
| 17>   C                      5.195705             -0.195321            0.932936
| 18>   O                      6.574999             -0.265906            0.859164
| 19>   H                      6.862757             0.404760             0.288852
| 20>   H                      4.796757             -0.787250            0.115151
| 21>   H                      4.839255             -0.751149            1.843127
| 22>   H                      4.779891             0.802732             0.921515
| 23> *
| 24>
| 25> #Run DFT-D3 single point of the molecule with dimer basis set
| 26> $new_job
| 27> %base "4-142_DFT_A"
| 28> ! wB97X-D3 def2-TZVP TIGHTSCF CHELPG PMODEL
| 29>
| 30> %scf
| 31> MaxIter 1000
| 32> end
| 33>
| 34> * xyz 0 1
| 35>   C                      5.575884             3.455816             2.278661
| 36>   O                      5.570222             4.240747             1.097227
| 37>   H                      5.316256             5.104723             1.255462
| 38>   H                      6.440792             2.781911             2.223781
| 39>   H                      5.662425             4.071573             3.151950
| 40>   H                      4.681182             2.723832             2.396170
| 41>   C                    : 5.195705             -0.195321            0.932936
| 42>   O                    : 6.574999             -0.265906            0.859164
| 43>   H                    : 6.862757             0.404760             0.288852
| 44>   H                    : 4.796757             -0.787250            0.115151
| 45>   H                    : 4.839255             -0.751149            1.843127
| 46>   H                    : 4.779891             0.802732             0.921515
| 47> *
| 48>
| 49> #Run DFT-D3 single point of the particle with dimer basis set
| 50> $new_job
| 51> %base "4-142_DFT_B"
| 52> ! wB97X-D3 def2-TZVP TIGHTSCF CHELPG PMODEL
| 53>
| 54> %scf
| 55> MaxIter 1000
| 56> end
| 57>
| 58> * xyz 0 1
| 59>   C                    : 5.575884             3.455816             2.278661
| 60>   O                    : 5.570222             4.240747             1.097227
| 61>   H                    : 5.316256             5.104723             1.255462
| 62>   H                    : 6.440792             2.781911             2.223781
| 63>   H                    : 5.662425             4.071573             3.151950
| 64>   H                    : 4.681182             2.723832             2.396170
| 65>   C                      5.195705             -0.195321            0.932936
| 66>   O                      6.574999             -0.265906            0.859164
| 67>   H                      6.862757             0.404760             0.288852
| 68>   H                      4.796757             -0.787250            0.115151
| 69>   H                      4.839255             -0.751149            1.843127
| 70>   H                      4.779891             0.802732             0.921515
| 71> *
| 72>
| 73>                          ****END OF INPUT****
 Total Charge           Charge          ....    0
 Multiplicity           Mult            ....    1
 Number of Electrons    NEL             ....   36
Dispersion correction           -0.001673944
FINAL SINGLE POINT ENERGY      -231.465572369437
Dispersion correction           -0.000266053
FINAL SINGLE POINT ENERGY      -115.730475225058

CARTESIAN COORDINATES (ANGSTROEM)
---------------------------------
  C      5.575884    3.455816    2.278661
  O      5.570222    4.240747    1.097227
  H      5.316256    5.104723    1.255462
  H      6.440792    2.781911    2.223781
  H      5.662425    4.071573    3.151950
  H      4.681182    2.723832    2.396170
  C      5.195705   -0.195321    0.932936
  O      6.574999   -0.265906    0.859164
  H      6.862757    0.404760    0.288852
  H      4.796757   -0.787250    0.115151
  H      4.839255   -0.751149    1.843127
  H      4.779891    0.802732    0.921515

 Multiplicity           Mult            ....    1
 Number of Electrons    NEL             ....   18
 Basis Dimension        Dim             ....  172

ORBITAL ENERGIES
----------------

  NO   OCC          E(Eh)            E(eV)
   0   2.0000     -19.227001      -523.1933
   1   2.0000     -10.310572      -280.5649
   2   2.0000      -1.153488       -31.3880
   3   2.0000      -0.796776       -21.6814
   4   2.0000      -0.621702       -16.9174
   5   2.0000      -0.547030       -14.8854
   6   2.0000      -0.529418       -14.4062
   7   2.0000      -0.435096       -11.8396
   8   2.0000      -0.370567       -10.0836
   9   0.0000       0.082030         2.2321
  10   0.0000       0.126578         3.4444
  11   0.0000       0.152583         4.1520
  12   0.0000       0.167970         4.5707
  13   0.0000       0.187567         5.1040

MULLIKEN ATOMIC CHARGES
-----------------------
   0 C :    0.003853
   1 O :   -0.000226
   2 H :   -0.000004
   3 H :   -0.004643
   4 H :    0.000157
   5 H :   -0.001042
   6 C :   -0.171780
   7 O :   -0.455349
   8 H :    0.308394
   9 H :    0.106528
  10 H :    0.112145
  11 H :    0.101967
Sum of atomic charges:    0.0000000

LOEWDIN ATOMIC CHARGES
----------------------
   0 C :   -0.003713
   1 O :   -0.000042
   2 H :   -0.000004
   3 H :   -0.002144
   4 H :   -0.000014
   5 H :   -0.003519
   6 C :   -0.406075
   7 O :   -0.035595
   8 H :    0.149307
   9 H :    0.093656
  10 H :    0.114338
  11 H :    0.093805

  Mayer bond orders larger than 0.1
B(  6-C ,  7-O ) :   0.9979 B(  6-C ,  9-H ) :   0.9844 B(  6-C , 10-H ) :   0.9758
B(  6-C , 11-H ) :   0.9724 B(  7-O ,  8-H ) :   0.9073

Dispersion correction           -0.000224120
FINAL SINGLE POINT ENERGY      -115.733082548188

DIPOLE MOMENT
-------------
                                X             Y             Z
Electronic contribution:      1.83469      -0.03811      -0.02277
Nuclear contribution   :     -2.16786       0.50089      -0.32386
                        -----------------------------------------
Total Dipole Moment    :     -0.33317       0.46278      -0.34663
                        -----------------------------------------
Magnitude (a.u.)       :      0.66732
Magnitude (Debye)      :      1.69620

Rotational constants in cm-1:     4.343646     0.865726     0.830660
Rotational constants in MHz : 130219.234669 25953.818331 24902.546152

                             ****ORCA TERMINATED NORMALLY****
TOTAL RUN TIME: 0 days 0 hours 1 minutes 35 seconds 89 msec
