                         Program Version 4.1.2  - RELEASE  -
|  1> #Run DFT geometry optimization
|  2> ! wB97X-D3 def2-TZVP TIGHTSCF Grid5 FinalGrid6 Opt CHELPG PAL4
|  3>
|  4> %base "10_geo_opt"
|  5> %geom MaxIter 500
|  6> end
|  7>
|  8> %geom
|  9>   Constraints
| 10>     { A 2 1 0 C }
| 11>   end
| 12> end
| 13>
| 14>
| 15> * xyz 0 1
| 16>   C                    3.011836             -1.175887            0.594949
| 17>   O                    4.394673             -1.128050            0.874308
| 18>   H                    4.768428             -0.378085            0.410951
| 19>   H                    2.806434             -1.318965            -0.469350
| 20>   H                    2.611632             -2.040265            1.135898
| 21>   H                    2.484757             -0.284491            0.945659
| 22> *
| 23>
| 24>                          ****END OF INPUT****
 Total Charge           Charge          ....    0
 Multiplicity           Mult            ....    1
 Number of Electrons    NEL             ....   18
Dispersion correction           -0.000238532
FINAL SINGLE POINT ENERGY      -115.738004186259
Dispersion correction            ... done
Dispersion correction           -0.000238506
FINAL SINGLE POINT ENERGY      -115.738041609172
Dispersion correction            ... done
Dispersion correction           -0.000238239
FINAL SINGLE POINT ENERGY      -115.738044746030
Dispersion correction            ... done
                    ***********************HURRAY********************

CARTESIAN COORDINATES (ANGSTROEM)
---------------------------------
  C      3.011837   -1.180176    0.598082
  O      4.395665   -1.128005    0.874483
  H      4.766208   -0.377127    0.409767
  H      2.807787   -1.318028   -0.469961
  H      2.610209   -2.039071    1.134708
  H      2.486054   -0.283336    0.945336

 Multiplicity           Mult            ....    1
 Number of Electrons    NEL             ....   18
 Basis Dimension        Dim             ....   86

ORBITAL ENERGIES
----------------

  NO   OCC          E(Eh)            E(eV)
   0   2.0000     -19.228304      -523.2287
   1   2.0000     -10.315135      -280.6891
   2   2.0000      -1.136972       -30.9386
   3   2.0000      -0.795132       -21.6366
   4   2.0000      -0.611400       -16.6370
   5   2.0000      -0.541872       -14.7451
   6   2.0000      -0.526174       -14.3179
   7   2.0000      -0.434385       -11.8202
   8   2.0000      -0.373708       -10.1691
   9   0.0000       0.116525         3.1708
  10   0.0000       0.156724         4.2647
  11   0.0000       0.202544         5.5115
  12   0.0000       0.205006         5.5785
  13   0.0000       0.226220         6.1558

MULLIKEN ATOMIC CHARGES
-----------------------
   0 C :   -0.152039
   1 O :   -0.476656
   2 H :    0.312880
   3 H :    0.098813
   4 H :    0.118185
   5 H :    0.098816
Sum of atomic charges:   -0.0000000

LOEWDIN ATOMIC CHARGES
----------------------
   0 C :   -0.385131
   1 O :   -0.076391
   2 H :    0.166061
   3 H :    0.093437
   4 H :    0.108589
   5 H :    0.093435

  Mayer bond orders larger than 0.1
B(  0-C ,  1-O ) :   0.9988 B(  0-C ,  3-H ) :   0.9755 B(  0-C ,  4-H ) :   0.9750
B(  0-C ,  5-H ) :   0.9755 B(  1-O ,  2-H ) :   0.9006

Dispersion correction           -0.000238123
FINAL SINGLE POINT ENERGY      -115.738045062218

DIPOLE MOMENT
-------------
                                X             Y             Z
Electronic contribution:      1.75801      -0.03108       0.42234
Nuclear contribution   :     -2.07217       0.47896      -0.82117
                        -----------------------------------------
Total Dipole Moment    :     -0.31416       0.44788      -0.39884
                        -----------------------------------------
Magnitude (a.u.)       :      0.67702
Magnitude (Debye)      :      1.72086

Rotational constants in cm-1:     4.287301     0.833866     0.804828
Rotational constants in MHz : 128530.047784 24998.682627 24128.127593

                             ****ORCA TERMINATED NORMALLY****
TOTAL RUN TIME: 0 days 0 hours 0 minutes 49 seconds 963 msec
