                         Program Version 4.1.2  - RELEASE  -
|  1> #Run DFT-D3 single point of the dimer
|  2> ! wB97X-D3 def2-TZVP TIGHTSCF CHELPG PMODEL PAL8
|  3>
|  4> %base "4-192_DFT_AB"
|  5>
|  6> %scf
|  7> MaxIter 1000
|  8> end
|  9>
| 10> * xyz 0 1
| 11>   C                      4.010603             -3.531085            -6.215756
| 12>   O                      4.091302             -4.986165            -6.041362
| 13>   H                      4.959154             -5.245191            -5.658056
| 14>   H                      3.124131             -3.367573            -6.796884
| 15>   H                      3.952099             -2.997035            -5.248406
| 16>   H                      4.785231             -3.048308            -6.736867
| 17>   C                      6.653464             -6.406812            -3.520357
| 18>   O                      6.886541             -5.325754            -4.405372
| 19>   H                      7.348178             -4.703357            -3.858006
| 20>   H                      6.387846             -7.279987            -4.088439
| 21>   H                      7.540144             -6.632166            -2.917996
| 22>   H                      5.851907             -6.189772            -2.805827
| 23> *
| 24>
| 25> #Run DFT-D3 single point of the molecule with dimer basis set
| 26> $new_job
| 27> %base "4-192_DFT_A"
| 28> ! wB97X-D3 def2-TZVP TIGHTSCF CHELPG PMODEL
| 29>
| 30> %scf
| 31> MaxIter 1000
| 32> end
| 33>
| 34> * xyz 0 1
| 35>   C                      4.010603             -3.531085            -6.215756
| 36>   O                      4.091302             -4.986165            -6.041362
| 37>   H                      4.959154             -5.245191            -5.658056
| 38>   H                      3.124131             -3.367573            -6.796884
| 39>   H                      3.952099             -2.997035            -5.248406
| 40>   H                      4.785231             -3.048308            -6.736867
| 41>   C                    : 6.653464             -6.406812            -3.520357
| 42>   O                    : 6.886541             -5.325754            -4.405372
| 43>   H                    : 7.348178             -4.703357            -3.858006
| 44>   H                    : 6.387846             -7.279987            -4.088439
| 45>   H                    : 7.540144             -6.632166            -2.917996
| 46>   H                    : 5.851907             -6.189772            -2.805827
| 47> *
| 48>
| 49> #Run DFT-D3 single point of the particle with dimer basis set
| 50> $new_job
| 51> %base "4-192_DFT_B"
| 52> ! wB97X-D3 def2-TZVP TIGHTSCF CHELPG PMODEL
| 53>
| 54> %scf
| 55> MaxIter 1000
| 56> end
| 57>
| 58> * xyz 0 1
| 59>   C                    : 4.010603             -3.531085            -6.215756
| 60>   O                    : 4.091302             -4.986165            -6.041362
| 61>   H                    : 4.959154             -5.245191            -5.658056
| 62>   H                    : 3.124131             -3.367573            -6.796884
| 63>   H                    : 3.952099             -2.997035            -5.248406
| 64>   H                    : 4.785231             -3.048308            -6.736867
| 65>   C                      6.653464             -6.406812            -3.520357
| 66>   O                      6.886541             -5.325754            -4.405372
| 67>   H                      7.348178             -4.703357            -3.858006
| 68>   H                      6.387846             -7.279987            -4.088439
| 69>   H                      7.540144             -6.632166            -2.917996
| 70>   H                      5.851907             -6.189772            -2.805827
| 71> *
| 72>
| 73>                          ****END OF INPUT****
 Total Charge           Charge          ....    0
 Multiplicity           Mult            ....    1
 Number of Electrons    NEL             ....   36
Dispersion correction           -0.001613844
FINAL SINGLE POINT ENERGY      -231.474369647777
Dispersion correction           -0.000283270
FINAL SINGLE POINT ENERGY      -115.731733044835

CARTESIAN COORDINATES (ANGSTROEM)
---------------------------------
  C      4.010603   -3.531085   -6.215756
  O      4.091302   -4.986165   -6.041362
  H      4.959154   -5.245191   -5.658056
  H      3.124131   -3.367573   -6.796884
  H      3.952099   -2.997035   -5.248406
  H      4.785231   -3.048308   -6.736867
  C      6.653464   -6.406812   -3.520357
  O      6.886541   -5.325754   -4.405372
  H      7.348178   -4.703357   -3.858006
  H      6.387846   -7.279987   -4.088439
  H      7.540144   -6.632166   -2.917996
  H      5.851907   -6.189772   -2.805827

 Multiplicity           Mult            ....    1
 Number of Electrons    NEL             ....   18
 Basis Dimension        Dim             ....  172

ORBITAL ENERGIES
----------------

  NO   OCC          E(Eh)            E(eV)
   0   2.0000     -19.231445      -523.3142
   1   2.0000     -10.311507      -280.5904
   2   2.0000      -1.141945       -31.0739
   3   2.0000      -0.795760       -21.6537
   4   2.0000      -0.613583       -16.6964
   5   2.0000      -0.540224       -14.7002
   6   2.0000      -0.528411       -14.3788
   7   2.0000      -0.443954       -12.0806
   8   2.0000      -0.374396       -10.1878
   9   0.0000       0.096246         2.6190
  10   0.0000       0.122773         3.3408
  11   0.0000       0.154610         4.2072
  12   0.0000       0.184752         5.0274
  13   0.0000       0.197553         5.3757

MULLIKEN ATOMIC CHARGES
-----------------------
   0 C :   -0.001697
   1 O :   -0.001071
   2 H :    0.000097
   3 H :   -0.000234
   4 H :   -0.000742
   5 H :   -0.000395
   6 C :   -0.177218
   7 O :   -0.461731
   8 H :    0.309546
   9 H :    0.124827
  10 H :    0.106239
  11 H :    0.102378
Sum of atomic charges:   -0.0000000

LOEWDIN ATOMIC CHARGES
----------------------
   0 C :   -0.002621
   1 O :   -0.001427
   2 H :   -0.017066
   3 H :   -0.000055
   4 H :   -0.000342
   5 H :   -0.000183
   6 C :   -0.382989
   7 O :   -0.055628
   8 H :    0.163548
   9 H :    0.105147
  10 H :    0.096878
  11 H :    0.094737

  Mayer bond orders larger than 0.1
B(  6-C ,  7-O ) :   0.9912 B(  6-C ,  9-H ) :   0.9772 B(  6-C , 10-H ) :   0.9748
B(  6-C , 11-H ) :   0.9729 B(  7-O ,  8-H ) :   0.9049

Dispersion correction           -0.000223797
FINAL SINGLE POINT ENERGY      -115.736281831873

DIPOLE MOMENT
-------------
                                X             Y             Z
Electronic contribution:      0.22902       1.29455      -1.30035
Nuclear contribution   :     -0.01353      -1.34393       1.98878
                        -----------------------------------------
Total Dipole Moment    :      0.21550      -0.04937       0.68843
                        -----------------------------------------
Magnitude (a.u.)       :      0.72306
Magnitude (Debye)      :      1.83787

Rotational constants in cm-1:     4.300083     0.837780     0.804539
Rotational constants in MHz : 128913.233073 25116.007835 24119.460077

                             ****ORCA TERMINATED NORMALLY****
TOTAL RUN TIME: 0 days 0 hours 1 minutes 34 seconds 594 msec
