                         Program Version 4.1.2  - RELEASE  -
|  1> #Run DFT-D3 single point of the dimer
|  2> ! wB97X-D3 def2-TZVP TIGHTSCF CHELPG PMODEL PAL8
|  3>
|  4> %base "2-69_DFT_AB"
|  5>
|  6> %scf
|  7> MaxIter 1000
|  8> end
|  9>
| 10> * xyz 0 1
| 11>   C                      2.216168             -10.583670           6.792271
| 12>   O                      1.676542             -10.073466           5.612727
| 13>   H                      2.289929             -10.296612           4.873086
| 14>   H                      1.920652             -11.635590           6.979439
| 15>   H                      3.230282             -10.410300           6.926087
| 16>   H                      1.813010             -10.092693           7.607417
| 17>   C                      -1.232197            -11.339457           8.355118
| 18>   O                      -0.823738            -11.457842           9.715667
| 19>   H                      0.054975             -11.806867           9.743181
| 20>   H                      -1.531797            -12.314419           8.017743
| 21>   H                      -2.087334            -10.664813           8.160535
| 22>   H                      -0.398975            -10.977467           7.677247
| 23> *
| 24>
| 25> #Run DFT-D3 single point of the molecule with dimer basis set
| 26> $new_job
| 27> %base "2-69_DFT_A"
| 28> ! wB97X-D3 def2-TZVP TIGHTSCF CHELPG PMODEL
| 29>
| 30> %scf
| 31> MaxIter 1000
| 32> end
| 33>
| 34> * xyz 0 1
| 35>   C                      2.216168             -10.583670           6.792271
| 36>   O                      1.676542             -10.073466           5.612727
| 37>   H                      2.289929             -10.296612           4.873086
| 38>   H                      1.920652             -11.635590           6.979439
| 39>   H                      3.230282             -10.410300           6.926087
| 40>   H                      1.813010             -10.092693           7.607417
| 41>   C                    : -1.232197            -11.339457           8.355118
| 42>   O                    : -0.823738            -11.457842           9.715667
| 43>   H                    : 0.054975             -11.806867           9.743181
| 44>   H                    : -1.531797            -12.314419           8.017743
| 45>   H                    : -2.087334            -10.664813           8.160535
| 46>   H                    : -0.398975            -10.977467           7.677247
| 47> *
| 48>
| 49> #Run DFT-D3 single point of the particle with dimer basis set
| 50> $new_job
| 51> %base "2-69_DFT_B"
| 52> ! wB97X-D3 def2-TZVP TIGHTSCF CHELPG PMODEL
| 53>
| 54> %scf
| 55> MaxIter 1000
| 56> end
| 57>
| 58> * xyz 0 1
| 59>   C                    : 2.216168             -10.583670           6.792271
| 60>   O                    : 1.676542             -10.073466           5.612727
| 61>   H                    : 2.289929             -10.296612           4.873086
| 62>   H                    : 1.920652             -11.635590           6.979439
| 63>   H                    : 3.230282             -10.410300           6.926087
| 64>   H                    : 1.813010             -10.092693           7.607417
| 65>   C                      -1.232197            -11.339457           8.355118
| 66>   O                      -0.823738            -11.457842           9.715667
| 67>   H                      0.054975             -11.806867           9.743181
| 68>   H                      -1.531797            -12.314419           8.017743
| 69>   H                      -2.087334            -10.664813           8.160535
| 70>   H                      -0.398975            -10.977467           7.677247
| 71> *
| 72>
| 73>                          ****END OF INPUT****
 Total Charge           Charge          ....    0
 Multiplicity           Mult            ....    1
 Number of Electrons    NEL             ....   36
Dispersion correction           -0.001689583
FINAL SINGLE POINT ENERGY      -231.462708427758
Dispersion correction           -0.000238871
FINAL SINGLE POINT ENERGY      -115.728929311365

CARTESIAN COORDINATES (ANGSTROEM)
---------------------------------
  C      2.216168  -10.583670    6.792271
  O      1.676542  -10.073466    5.612727
  H      2.289929  -10.296612    4.873086
  H      1.920652  -11.635590    6.979439
  H      3.230282  -10.410300    6.926087
  H      1.813010  -10.092693    7.607417
  C     -1.232197  -11.339457    8.355118
  O     -0.823738  -11.457842    9.715667
  H      0.054975  -11.806867    9.743181
  H     -1.531797  -12.314419    8.017743
  H     -2.087334  -10.664813    8.160535
  H     -0.398975  -10.977467    7.677247

 Multiplicity           Mult            ....    1
 Number of Electrons    NEL             ....   18
 Basis Dimension        Dim             ....  172

ORBITAL ENERGIES
----------------

  NO   OCC          E(Eh)            E(eV)
   0   2.0000     -19.229253      -523.2546
   1   2.0000     -10.318426      -280.7787
   2   2.0000      -1.135355       -30.8946
   3   2.0000      -0.796086       -21.6626
   4   2.0000      -0.609123       -16.5751
   5   2.0000      -0.540764       -14.7149
   6   2.0000      -0.528400       -14.3785
   7   2.0000      -0.430485       -11.7141
   8   2.0000      -0.373821       -10.1722
   9   0.0000       0.077298         2.1034
  10   0.0000       0.122349         3.3293
  11   0.0000       0.151599         4.1252
  12   0.0000       0.176222         4.7952
  13   0.0000       0.185331         5.0431

MULLIKEN ATOMIC CHARGES
-----------------------
   0 C :    0.001571
   1 O :   -0.000081
   2 H :    0.000014
   3 H :   -0.000715
   4 H :    0.000560
   5 H :    0.001578
   6 C :   -0.153763
   7 O :   -0.477834
   8 H :    0.315682
   9 H :    0.107895
  10 H :    0.121234
  11 H :    0.083859
Sum of atomic charges:   -0.0000000

LOEWDIN ATOMIC CHARGES
----------------------
   0 C :   -0.009974
   1 O :   -0.000554
   2 H :   -0.000035
   3 H :   -0.002166
   4 H :   -0.000087
   5 H :   -0.002734
   6 C :   -0.375140
   7 O :   -0.079244
   8 H :    0.159927
   9 H :    0.091119
  10 H :    0.110188
  11 H :    0.108700

  Mayer bond orders larger than 0.1
B(  6-C ,  7-O ) :   0.9900 B(  6-C ,  9-H ) :   0.9862 B(  6-C , 10-H ) :   0.9695
B(  6-C , 11-H ) :   0.9805 B(  7-O ,  8-H ) :   0.9005

Dispersion correction           -0.000252187
FINAL SINGLE POINT ENERGY      -115.732909787297

DIPOLE MOMENT
-------------
                                X             Y             Z
Electronic contribution:      0.36166      -0.06711       1.85952
Nuclear contribution   :      0.02917      -0.11162      -2.39320
                        -----------------------------------------
Total Dipole Moment    :      0.39083      -0.17873      -0.53368
                        -----------------------------------------
Magnitude (a.u.)       :      0.68520
Magnitude (Debye)      :      1.74164

Rotational constants in cm-1:     4.343982     0.812127     0.783531
Rotational constants in MHz : 130229.292642 24346.962347 23489.676258

                             ****ORCA TERMINATED NORMALLY****
TOTAL RUN TIME: 0 days 0 hours 5 minutes 57 seconds 766 msec
