                         Program Version 4.1.2  - RELEASE  -
|  1> #Run DFT-D3 single point of the dimer
|  2> ! wB97X-D3 def2-TZVP TIGHTSCF CHELPG PMODEL PAL8
|  3>
|  4> %base "1-77_DFT_AB"
|  5>
|  6> %scf
|  7> MaxIter 1000
|  8> end
|  9>
| 10> * xyz 0 1
| 11>   C                      -2.564663            -10.829491           0.819036
| 12>   O                      -1.332082            -11.025152           1.444712
| 13>   H                      -1.579110            -11.609815           2.161669
| 14>   H                      -2.334350            -10.176657           -0.055430
| 15>   H                      -2.996839            -11.752730           0.453297
| 16>   H                      -3.253794            -10.236978           1.399588
| 17>   C                      -2.402393            -10.278773           -3.280738
| 18>   O                      -1.721454            -10.813631           -4.440282
| 19>   H                      -2.355756            -11.155104           -5.064941
| 20>   H                      -1.851665            -10.416140           -2.347565
| 21>   H                      -2.501331            -9.212577            -3.385509
| 22>   H                      -3.410301            -10.670817           -3.273811
| 23> *
| 24>
| 25> #Run DFT-D3 single point of the molecule with dimer basis set
| 26> $new_job
| 27> %base "1-77_DFT_A"
| 28> ! wB97X-D3 def2-TZVP TIGHTSCF CHELPG PMODEL
| 29>
| 30> %scf
| 31> MaxIter 1000
| 32> end
| 33>
| 34> * xyz 0 1
| 35>   C                      -2.564663            -10.829491           0.819036
| 36>   O                      -1.332082            -11.025152           1.444712
| 37>   H                      -1.579110            -11.609815           2.161669
| 38>   H                      -2.334350            -10.176657           -0.055430
| 39>   H                      -2.996839            -11.752730           0.453297
| 40>   H                      -3.253794            -10.236978           1.399588
| 41>   C                    : -2.402393            -10.278773           -3.280738
| 42>   O                    : -1.721454            -10.813631           -4.440282
| 43>   H                    : -2.355756            -11.155104           -5.064941
| 44>   H                    : -1.851665            -10.416140           -2.347565
| 45>   H                    : -2.501331            -9.212577            -3.385509
| 46>   H                    : -3.410301            -10.670817           -3.273811
| 47> *
| 48>
| 49> #Run DFT-D3 single point of the particle with dimer basis set
| 50> $new_job
| 51> %base "1-77_DFT_B"
| 52> ! wB97X-D3 def2-TZVP TIGHTSCF CHELPG PMODEL
| 53>
| 54> %scf
| 55> MaxIter 1000
| 56> end
| 57>
| 58> * xyz 0 1
| 59>   C                    : -2.564663            -10.829491           0.819036
| 60>   O                    : -1.332082            -11.025152           1.444712
| 61>   H                    : -1.579110            -11.609815           2.161669
| 62>   H                    : -2.334350            -10.176657           -0.055430
| 63>   H                    : -2.996839            -11.752730           0.453297
| 64>   H                    : -3.253794            -10.236978           1.399588
| 65>   C                      -2.402393            -10.278773           -3.280738
| 66>   O                      -1.721454            -10.813631           -4.440282
| 67>   H                      -2.355756            -11.155104           -5.064941
| 68>   H                      -1.851665            -10.416140           -2.347565
| 69>   H                      -2.501331            -9.212577            -3.385509
| 70>   H                      -3.410301            -10.670817           -3.273811
| 71> *
| 72>
| 73>                          ****END OF INPUT****
 Total Charge           Charge          ....    0
 Multiplicity           Mult            ....    1
 Number of Electrons    NEL             ....   36
Dispersion correction           -0.001218421
FINAL SINGLE POINT ENERGY      -231.466421906791
Dispersion correction           -0.000214971
FINAL SINGLE POINT ENERGY      -115.733731349128

CARTESIAN COORDINATES (ANGSTROEM)
---------------------------------
  C     -2.564663  -10.829491    0.819036
  O     -1.332082  -11.025152    1.444712
  H     -1.579110  -11.609815    2.161669
  H     -2.334350  -10.176657   -0.055430
  H     -2.996839  -11.752730    0.453297
  H     -3.253794  -10.236978    1.399588
  C     -2.402393  -10.278773   -3.280738
  O     -1.721454  -10.813631   -4.440282
  H     -2.355756  -11.155104   -5.064941
  H     -1.851665  -10.416140   -2.347565
  H     -2.501331   -9.212577   -3.385509
  H     -3.410301  -10.670817   -3.273811

 Multiplicity           Mult            ....    1
 Number of Electrons    NEL             ....   18
 Basis Dimension        Dim             ....  172

ORBITAL ENERGIES
----------------

  NO   OCC          E(Eh)            E(eV)
   0   2.0000     -19.225878      -523.1627
   1   2.0000     -10.313069      -280.6329
   2   2.0000      -1.124925       -30.6108
   3   2.0000      -0.800294       -21.7771
   4   2.0000      -0.606367       -16.5001
   5   2.0000      -0.536805       -14.6072
   6   2.0000      -0.531067       -14.4511
   7   2.0000      -0.433385       -11.7930
   8   2.0000      -0.371138       -10.0992
   9   0.0000       0.085008         2.3132
  10   0.0000       0.114423         3.1136
  11   0.0000       0.145948         3.9715
  12   0.0000       0.176007         4.7894
  13   0.0000       0.190445         5.1823

MULLIKEN ATOMIC CHARGES
-----------------------
   0 C :   -0.000788
   1 O :   -0.000005
   2 H :   -0.000006
   3 H :    0.000182
   4 H :   -0.000051
   5 H :   -0.000049
   6 C :   -0.164775
   7 O :   -0.486387
   8 H :    0.313969
   9 H :    0.122887
  10 H :    0.108274
  11 H :    0.106749
Sum of atomic charges:   -0.0000000

LOEWDIN ATOMIC CHARGES
----------------------
   0 C :   -0.002520
   1 O :   -0.000005
   2 H :   -0.000002
   3 H :   -0.004108
   4 H :   -0.000225
   5 H :   -0.000013
   6 C :   -0.351752
   7 O :   -0.101774
   8 H :    0.160848
   9 H :    0.108253
  10 H :    0.094386
  11 H :    0.096913

  Mayer bond orders larger than 0.1
B(  6-C ,  7-O ) :   1.0037 B(  6-C ,  9-H ) :   0.9728 B(  6-C , 10-H ) :   0.9735
B(  6-C , 11-H ) :   0.9876 B(  7-O ,  8-H ) :   0.9018

Dispersion correction           -0.000249700
FINAL SINGLE POINT ENERGY      -115.732537343537

DIPOLE MOMENT
-------------
                                X             Y             Z
Electronic contribution:      0.97530      -0.70460      -1.30057
Nuclear contribution   :     -1.68848       0.71993       1.38639
                        -----------------------------------------
Total Dipole Moment    :     -0.71318       0.01533       0.08582
                        -----------------------------------------
Magnitude (a.u.)       :      0.71849
Magnitude (Debye)      :      1.82627

Rotational constants in cm-1:     4.395504     0.805685     0.769833
Rotational constants in MHz : 131773.900248 24153.828780 23079.007874

                             ****ORCA TERMINATED NORMALLY****
TOTAL RUN TIME: 0 days 0 hours 5 minutes 43 seconds 333 msec
