                         Program Version 4.1.2  - RELEASE  -
|  1> #Run DFT-D3 single point of the dimer
|  2> ! wB97X-D3 def2-TZVP TIGHTSCF CHELPG PMODEL PAL8
|  3>
|  4> %base "16-17_DFT_AB"
|  5>
|  6> %scf
|  7> MaxIter 1000
|  8> end
|  9>
| 10> * xyz 0 1
| 11>   C                      4.271779             4.712240             5.343485
| 12>   O                      4.861457             5.690898             4.454410
| 13>   H                      4.587557             5.662843             3.570705
| 14>   H                      4.713760             3.664029             5.121006
| 15>   H                      4.705710             4.923602             6.335144
| 16>   H                      3.190266             4.808637             5.377588
| 17>   C                      7.981455             6.285149             6.688696
| 18>   O                      7.320770             5.234666             7.420826
| 19>   H                      8.008159             4.788623             7.945116
| 20>   H                      8.256039             5.923979             5.743816
| 21>   H                      7.261805             7.101432             6.695755
| 22>   H                      8.826434             6.675996             7.248663
| 23> *
| 24>
| 25> #Run DFT-D3 single point of the molecule with dimer basis set
| 26> $new_job
| 27> %base "16-17_DFT_A"
| 28> ! wB97X-D3 def2-TZVP TIGHTSCF CHELPG PMODEL
| 29>
| 30> %scf
| 31> MaxIter 1000
| 32> end
| 33>
| 34> * xyz 0 1
| 35>   C                      4.271779             4.712240             5.343485
| 36>   O                      4.861457             5.690898             4.454410
| 37>   H                      4.587557             5.662843             3.570705
| 38>   H                      4.713760             3.664029             5.121006
| 39>   H                      4.705710             4.923602             6.335144
| 40>   H                      3.190266             4.808637             5.377588
| 41>   C                    : 7.981455             6.285149             6.688696
| 42>   O                    : 7.320770             5.234666             7.420826
| 43>   H                    : 8.008159             4.788623             7.945116
| 44>   H                    : 8.256039             5.923979             5.743816
| 45>   H                    : 7.261805             7.101432             6.695755
| 46>   H                    : 8.826434             6.675996             7.248663
| 47> *
| 48>
| 49> #Run DFT-D3 single point of the particle with dimer basis set
| 50> $new_job
| 51> %base "16-17_DFT_B"
| 52> ! wB97X-D3 def2-TZVP TIGHTSCF CHELPG PMODEL
| 53>
| 54> %scf
| 55> MaxIter 1000
| 56> end
| 57>
| 58> * xyz 0 1
| 59>   C                    : 4.271779             4.712240             5.343485
| 60>   O                    : 4.861457             5.690898             4.454410
| 61>   H                    : 4.587557             5.662843             3.570705
| 62>   H                    : 4.713760             3.664029             5.121006
| 63>   H                    : 4.705710             4.923602             6.335144
| 64>   H                    : 3.190266             4.808637             5.377588
| 65>   C                      7.981455             6.285149             6.688696
| 66>   O                      7.320770             5.234666             7.420826
| 67>   H                      8.008159             4.788623             7.945116
| 68>   H                      8.256039             5.923979             5.743816
| 69>   H                      7.261805             7.101432             6.695755
| 70>   H                      8.826434             6.675996             7.248663
| 71> *
| 72>
| 73>                          ****END OF INPUT****
 Total Charge           Charge          ....    0
 Multiplicity           Mult            ....    1
 Number of Electrons    NEL             ....   36
Dispersion correction           -0.001631080
FINAL SINGLE POINT ENERGY      -231.464357839307
Dispersion correction           -0.000280228
FINAL SINGLE POINT ENERGY      -115.729307324402

CARTESIAN COORDINATES (ANGSTROEM)
---------------------------------
  C      4.271779    4.712240    5.343485
  O      4.861457    5.690898    4.454410
  H      4.587557    5.662843    3.570705
  H      4.713760    3.664029    5.121006
  H      4.705710    4.923602    6.335144
  H      3.190266    4.808637    5.377588
  C      7.981455    6.285149    6.688696
  O      7.320770    5.234666    7.420826
  H      8.008159    4.788623    7.945116
  H      8.256039    5.923979    5.743816
  H      7.261805    7.101432    6.695755
  H      8.826434    6.675996    7.248663

 Multiplicity           Mult            ....    1
 Number of Electrons    NEL             ....   18
 Basis Dimension        Dim             ....  172

ORBITAL ENERGIES
----------------

  NO   OCC          E(Eh)            E(eV)
   0   2.0000     -19.226946      -523.1918
   1   2.0000     -10.308390      -280.5055
   2   2.0000      -1.124645       -30.6031
   3   2.0000      -0.797578       -21.7032
   4   2.0000      -0.602958       -16.4073
   5   2.0000      -0.557234       -15.1631
   6   2.0000      -0.513420       -13.9709
   7   2.0000      -0.433372       -11.7927
   8   2.0000      -0.375425       -10.2158
   9   0.0000       0.093751         2.5511
  10   0.0000       0.119119         3.2414
  11   0.0000       0.154061         4.1922
  12   0.0000       0.180097         4.9007
  13   0.0000       0.189180         5.1478

MULLIKEN ATOMIC CHARGES
-----------------------
   0 C :    0.001791
   1 O :   -0.000014
   2 H :   -0.000013
   3 H :   -0.000714
   4 H :   -0.005759
   5 H :   -0.000217
   6 C :   -0.156698
   7 O :   -0.479428
   8 H :    0.309388
   9 H :    0.108658
  10 H :    0.116682
  11 H :    0.106324
Sum of atomic charges:   -0.0000000

LOEWDIN ATOMIC CHARGES
----------------------
   0 C :   -0.002920
   1 O :   -0.000164
   2 H :   -0.000012
   3 H :   -0.000309
   4 H :   -0.004979
   5 H :   -0.000024
   6 C :   -0.354903
   7 O :   -0.100866
   8 H :    0.171454
   9 H :    0.087486
  10 H :    0.108161
  11 H :    0.097077

  Mayer bond orders larger than 0.1
B(  6-C ,  7-O ) :   0.9878 B(  6-C ,  9-H ) :   0.9759 B(  6-C , 10-H ) :   0.9794
B(  6-C , 11-H ) :   0.9788 B(  7-O ,  8-H ) :   0.9026

Dispersion correction           -0.000230315
FINAL SINGLE POINT ENERGY      -115.732901830857

DIPOLE MOMENT
-------------
                                X             Y             Z
Electronic contribution:     -0.85755      -1.25657       0.69332
Nuclear contribution   :      1.58276       1.42735      -0.64630
                        -----------------------------------------
Total Dipole Moment    :      0.72521       0.17078       0.04702
                        -----------------------------------------
Magnitude (a.u.)       :      0.74653
Magnitude (Debye)      :      1.89752

Rotational constants in cm-1:     4.259520     0.818429     0.795363
Rotational constants in MHz : 127697.192503 24535.893381 23844.391892

                             ****ORCA TERMINATED NORMALLY****
TOTAL RUN TIME: 0 days 0 hours 1 minutes 0 seconds 946 msec
