                         Program Version 4.1.2  - RELEASE  -
|  1> #Run DFT-D3 single point of the dimer
|  2> ! wB97X-D3 def2-TZVP TIGHTSCF CHELPG PMODEL PAL8
|  3>
|  4> %base "14-127_DFT_AB"
|  5>
|  6> %scf
|  7> MaxIter 1000
|  8> end
|  9>
| 10> * xyz 0 1
| 11>   C                      -4.769766            -3.580536            9.570225
| 12>   O                      -4.512011            -2.670247            8.537336
| 13>   H                      -4.507633            -1.874928            9.074293
| 14>   H                      -4.004359            -3.378747            10.345685
| 15>   H                      -5.746053            -3.566870            10.002338
| 16>   H                      -4.559165            -4.618552            9.236661
| 17>   C                      -0.478926            -1.224034            7.517796
| 18>   O                      -0.887550            -0.137277            6.675063
| 19>   H                      -0.301585            -0.075655            5.910543
| 20>   H                      -1.273776            -1.963109            7.510648
| 21>   H                      0.407688             -1.674293            7.115746
| 22>   H                      -0.179908            -0.907772            8.530023
| 23> *
| 24>
| 25> #Run DFT-D3 single point of the molecule with dimer basis set
| 26> $new_job
| 27> %base "14-127_DFT_A"
| 28> ! wB97X-D3 def2-TZVP TIGHTSCF CHELPG PMODEL
| 29>
| 30> %scf
| 31> MaxIter 1000
| 32> end
| 33>
| 34> * xyz 0 1
| 35>   C                      -4.769766            -3.580536            9.570225
| 36>   O                      -4.512011            -2.670247            8.537336
| 37>   H                      -4.507633            -1.874928            9.074293
| 38>   H                      -4.004359            -3.378747            10.345685
| 39>   H                      -5.746053            -3.566870            10.002338
| 40>   H                      -4.559165            -4.618552            9.236661
| 41>   C                    : -0.478926            -1.224034            7.517796
| 42>   O                    : -0.887550            -0.137277            6.675063
| 43>   H                    : -0.301585            -0.075655            5.910543
| 44>   H                    : -1.273776            -1.963109            7.510648
| 45>   H                    : 0.407688             -1.674293            7.115746
| 46>   H                    : -0.179908            -0.907772            8.530023
| 47> *
| 48>
| 49> #Run DFT-D3 single point of the particle with dimer basis set
| 50> $new_job
| 51> %base "14-127_DFT_B"
| 52> ! wB97X-D3 def2-TZVP TIGHTSCF CHELPG PMODEL
| 53>
| 54> %scf
| 55> MaxIter 1000
| 56> end
| 57>
| 58> * xyz 0 1
| 59>   C                    : -4.769766            -3.580536            9.570225
| 60>   O                    : -4.512011            -2.670247            8.537336
| 61>   H                    : -4.507633            -1.874928            9.074293
| 62>   H                    : -4.004359            -3.378747            10.345685
| 63>   H                    : -5.746053            -3.566870            10.002338
| 64>   H                    : -4.559165            -4.618552            9.236661
| 65>   C                      -0.478926            -1.224034            7.517796
| 66>   O                      -0.887550            -0.137277            6.675063
| 67>   H                      -0.301585            -0.075655            5.910543
| 68>   H                      -1.273776            -1.963109            7.510648
| 69>   H                      0.407688             -1.674293            7.115746
| 70>   H                      -0.179908            -0.907772            8.530023
| 71> *
| 72>
| 73>                          ****END OF INPUT****
 Total Charge           Charge          ....    0
 Multiplicity           Mult            ....    1
 Number of Electrons    NEL             ....   36
Dispersion correction           -0.000872398
FINAL SINGLE POINT ENERGY      -231.464647743183
Dispersion correction           -0.000208334
FINAL SINGLE POINT ENERGY      -115.730413675288

CARTESIAN COORDINATES (ANGSTROEM)
---------------------------------
  C     -4.769766   -3.580536    9.570225
  O     -4.512011   -2.670247    8.537336
  H     -4.507633   -1.874928    9.074293
  H     -4.004359   -3.378747   10.345685
  H     -5.746053   -3.566870   10.002338
  H     -4.559165   -4.618552    9.236661
  C     -0.478926   -1.224034    7.517796
  O     -0.887550   -0.137277    6.675063
  H     -0.301585   -0.075655    5.910543
  H     -1.273776   -1.963109    7.510648
  H      0.407688   -1.674293    7.115746
  H     -0.179908   -0.907772    8.530023

 Multiplicity           Mult            ....    1
 Number of Electrons    NEL             ....   18
 Basis Dimension        Dim             ....  172

ORBITAL ENERGIES
----------------

  NO   OCC          E(Eh)            E(eV)
   0   2.0000     -19.226998      -523.1932
   1   2.0000     -10.313167      -280.6356
   2   2.0000      -1.126439       -30.6520
   3   2.0000      -0.797466       -21.7001
   4   2.0000      -0.608729       -16.5644
   5   2.0000      -0.543849       -14.7989
   6   2.0000      -0.522334       -14.2134
   7   2.0000      -0.428980       -11.6731
   8   2.0000      -0.374518       -10.1911
   9   0.0000       0.086383         2.3506
  10   0.0000       0.113975         3.1014
  11   0.0000       0.151198         4.1143
  12   0.0000       0.170473         4.6388
  13   0.0000       0.186619         5.0781

MULLIKEN ATOMIC CHARGES
-----------------------
   0 C :   -0.000053
   1 O :    0.000056
   2 H :    0.000077
   3 H :   -0.000016
   4 H :   -0.000005
   5 H :   -0.000019
   6 C :   -0.155168
   7 O :   -0.486281
   8 H :    0.316886
   9 H :    0.113699
  10 H :    0.104460
  11 H :    0.106364
Sum of atomic charges:   -0.0000000

LOEWDIN ATOMIC CHARGES
----------------------
   0 C :   -0.000137
   1 O :   -0.000237
   2 H :   -0.000083
   3 H :   -0.000019
   4 H :   -0.000003
   5 H :   -0.000007
   6 C :   -0.363765
   7 O :   -0.099166
   8 H :    0.169224
   9 H :    0.099534
  10 H :    0.092574
  11 H :    0.102085

  Mayer bond orders larger than 0.1
B(  6-C ,  7-O ) :   1.0043 B(  6-C ,  9-H ) :   0.9769 B(  6-C , 10-H ) :   0.9883
B(  6-C , 11-H ) :   0.9704 B(  7-O ,  8-H ) :   0.8994

Dispersion correction           -0.000250938
FINAL SINGLE POINT ENERGY      -115.733518962697

DIPOLE MOMENT
-------------
                                X             Y             Z
Electronic contribution:     -0.64676       1.38148      -0.91512
Nuclear contribution   :      1.22831      -1.80264       0.74973
                        -----------------------------------------
Total Dipole Moment    :      0.58155      -0.42116      -0.16539
                        -----------------------------------------
Magnitude (a.u.)       :      0.73684
Magnitude (Debye)      :      1.87289

Rotational constants in cm-1:     4.332316     0.808551     0.788552
Rotational constants in MHz : 129879.562664 24239.749045 23640.206746

                             ****ORCA TERMINATED NORMALLY****
TOTAL RUN TIME: 0 days 0 hours 1 minutes 4 seconds 431 msec
