                         Program Version 4.1.2  - RELEASE  -
|  1> #Run DFT-D3 single point of the dimer
|  2> ! wB97X-D3 def2-TZVP TIGHTSCF CHELPG PMODEL PAL8
|  3>
|  4> %base "6-165_DFT_AB"
|  5>
|  6> %scf
|  7> MaxIter 1000
|  8> end
|  9>
| 10> * xyz 0 1
| 11>   C                      5.890683             -3.792645            -3.899730
| 12>   O                      7.139683             -3.398593            -4.503209
| 13>   H                      7.846260             -3.774391            -3.995121
| 14>   H                      5.910107             -3.919907            -2.837656
| 15>   H                      5.013322             -3.162493            -3.961290
| 16>   H                      5.576193             -4.798254            -4.168236
| 17>   C                      7.901909             0.421615             -1.397861
| 18>   O                      8.388678             -0.903477            -1.645681
| 19>   H                      8.347794             -1.011711            -2.624478
| 20>   H                      6.789285             0.488096             -1.529645
| 21>   H                      8.017625             0.587816             -0.284820
| 22>   H                      8.198702             1.272218             -2.006417
| 23> *
| 24>
| 25> #Run DFT-D3 single point of the molecule with dimer basis set
| 26> $new_job
| 27> %base "6-165_DFT_A"
| 28> ! wB97X-D3 def2-TZVP TIGHTSCF CHELPG PMODEL
| 29>
| 30> %scf
| 31> MaxIter 1000
| 32> end
| 33>
| 34> * xyz 0 1
| 35>   C                      5.890683             -3.792645            -3.899730
| 36>   O                      7.139683             -3.398593            -4.503209
| 37>   H                      7.846260             -3.774391            -3.995121
| 38>   H                      5.910107             -3.919907            -2.837656
| 39>   H                      5.013322             -3.162493            -3.961290
| 40>   H                      5.576193             -4.798254            -4.168236
| 41>   C                    : 7.901909             0.421615             -1.397861
| 42>   O                    : 8.388678             -0.903477            -1.645681
| 43>   H                    : 8.347794             -1.011711            -2.624478
| 44>   H                    : 6.789285             0.488096             -1.529645
| 45>   H                    : 8.017625             0.587816             -0.284820
| 46>   H                    : 8.198702             1.272218             -2.006417
| 47> *
| 48>
| 49> #Run DFT-D3 single point of the particle with dimer basis set
| 50> $new_job
| 51> %base "6-165_DFT_B"
| 52> ! wB97X-D3 def2-TZVP TIGHTSCF CHELPG PMODEL
| 53>
| 54> %scf
| 55> MaxIter 1000
| 56> end
| 57>
| 58> * xyz 0 1
| 59>   C                    : 5.890683             -3.792645            -3.899730
| 60>   O                    : 7.139683             -3.398593            -4.503209
| 61>   H                    : 7.846260             -3.774391            -3.995121
| 62>   H                    : 5.910107             -3.919907            -2.837656
| 63>   H                    : 5.013322             -3.162493            -3.961290
| 64>   H                    : 5.576193             -4.798254            -4.168236
| 65>   C                      7.901909             0.421615             -1.397861
| 66>   O                      8.388678             -0.903477            -1.645681
| 67>   H                      8.347794             -1.011711            -2.624478
| 68>   H                      6.789285             0.488096             -1.529645
| 69>   H                      8.017625             0.587816             -0.284820
| 70>   H                      8.198702             1.272218             -2.006417
| 71> *
| 72>
| 73>                          ****END OF INPUT****
 Total Charge           Charge          ....    0
 Multiplicity           Mult            ....    1
 Number of Electrons    NEL             ....   36
Dispersion correction           -0.001178317
FINAL SINGLE POINT ENERGY      -231.456812615136
Dispersion correction           -0.000275265
FINAL SINGLE POINT ENERGY      -115.725606816171

CARTESIAN COORDINATES (ANGSTROEM)
---------------------------------
  C      5.890683   -3.792645   -3.899730
  O      7.139683   -3.398593   -4.503209
  H      7.846260   -3.774391   -3.995121
  H      5.910107   -3.919907   -2.837656
  H      5.013322   -3.162493   -3.961290
  H      5.576193   -4.798254   -4.168236
  C      7.901909    0.421615   -1.397861
  O      8.388678   -0.903477   -1.645681
  H      8.347794   -1.011711   -2.624478
  H      6.789285    0.488096   -1.529645
  H      8.017625    0.587816   -0.284820
  H      8.198702    1.272218   -2.006417

 Multiplicity           Mult            ....    1
 Number of Electrons    NEL             ....   18
 Basis Dimension        Dim             ....  172

ORBITAL ENERGIES
----------------

  NO   OCC          E(Eh)            E(eV)
   0   2.0000     -19.239970      -523.5462
   1   2.0000     -10.320455      -280.8339
   2   2.0000      -1.130734       -30.7688
   3   2.0000      -0.791447       -21.5364
   4   2.0000      -0.613951       -16.7065
   5   2.0000      -0.525449       -14.2982
   6   2.0000      -0.516418       -14.0524
   7   2.0000      -0.446961       -12.1624
   8   2.0000      -0.372009       -10.1229
   9   0.0000       0.078325         2.1313
  10   0.0000       0.120461         3.2779
  11   0.0000       0.142789         3.8855
  12   0.0000       0.172281         4.6880
  13   0.0000       0.191243         5.2040

MULLIKEN ATOMIC CHARGES
-----------------------
   0 C :   -0.001170
   1 O :   -0.000043
   2 H :   -0.000123
   3 H :   -0.000459
   4 H :    0.000179
   5 H :   -0.000089
   6 C :   -0.190866
   7 O :   -0.460060
   8 H :    0.314553
   9 H :    0.099740
  10 H :    0.123895
  11 H :    0.114441
Sum of atomic charges:    0.0000000

LOEWDIN ATOMIC CHARGES
----------------------
   0 C :   -0.000873
   1 O :   -0.000409
   2 H :   -0.000436
   3 H :   -0.000297
   4 H :   -0.000012
   5 H :   -0.000028
   6 C :   -0.396011
   7 O :   -0.093831
   8 H :    0.183355
   9 H :    0.097043
  10 H :    0.118305
  11 H :    0.093194

  Mayer bond orders larger than 0.1
B(  6-C ,  7-O ) :   1.0100 B(  6-C ,  9-H ) :   0.9733 B(  6-C , 10-H ) :   0.9762
B(  6-C , 11-H ) :   0.9618 B(  7-O ,  8-H ) :   0.8974

Dispersion correction           -0.000274097
FINAL SINGLE POINT ENERGY      -115.728539158711

DIPOLE MOMENT
-------------
                                X             Y             Z
Electronic contribution:      0.89716      -1.73477      -0.27773
Nuclear contribution   :     -1.11687       2.18620      -0.23739
                        -----------------------------------------
Total Dipole Moment    :     -0.21971       0.45143      -0.51512
                        -----------------------------------------
Magnitude (a.u.)       :      0.71932
Magnitude (Debye)      :      1.82835

Rotational constants in cm-1:     4.229235     0.809252     0.766146
Rotational constants in MHz : 126789.286649 24260.768713 22968.464863

                             ****ORCA TERMINATED NORMALLY****
TOTAL RUN TIME: 0 days 0 hours 0 minutes 57 seconds 496 msec
