                         Program Version 4.1.2  - RELEASE  -
|  1> #Run DFT-D3 single point of the dimer
|  2> ! wB97X-D3 def2-TZVP TIGHTSCF CHELPG PMODEL PAL8
|  3>
|  4> %base "19-194_DFT_AB"
|  5>
|  6> %scf
|  7> MaxIter 1000
|  8> end
|  9>
| 10> * xyz 0 1
| 11>   C                      -4.297405            5.894942             -4.474710
| 12>   O                      -4.426902            6.358698             -5.799278
| 13>   H                      -3.533513            6.095699             -6.062029
| 14>   H                      -3.252572            6.108950             -4.223089
| 15>   H                      -4.995818            6.315973             -3.816453
| 16>   H                      -4.302503            4.738694             -4.403813
| 17>   C                      -7.953406            5.982523             -7.280825
| 18>   O                      -7.359437            5.843078             -5.989491
| 19>   H                      -6.422112            5.970046             -6.083202
| 20>   H                      -7.363661            5.353396             -8.045738
| 21>   H                      -8.952876            5.610469             -7.321396
| 22>   H                      -8.057900            7.016053             -7.638671
| 23> *
| 24>
| 25> #Run DFT-D3 single point of the molecule with dimer basis set
| 26> $new_job
| 27> %base "19-194_DFT_A"
| 28> ! wB97X-D3 def2-TZVP TIGHTSCF CHELPG PMODEL
| 29>
| 30> %scf
| 31> MaxIter 1000
| 32> end
| 33>
| 34> * xyz 0 1
| 35>   C                      -4.297405            5.894942             -4.474710
| 36>   O                      -4.426902            6.358698             -5.799278
| 37>   H                      -3.533513            6.095699             -6.062029
| 38>   H                      -3.252572            6.108950             -4.223089
| 39>   H                      -4.995818            6.315973             -3.816453
| 40>   H                      -4.302503            4.738694             -4.403813
| 41>   C                    : -7.953406            5.982523             -7.280825
| 42>   O                    : -7.359437            5.843078             -5.989491
| 43>   H                    : -6.422112            5.970046             -6.083202
| 44>   H                    : -7.363661            5.353396             -8.045738
| 45>   H                    : -8.952876            5.610469             -7.321396
| 46>   H                    : -8.057900            7.016053             -7.638671
| 47> *
| 48>
| 49> #Run DFT-D3 single point of the particle with dimer basis set
| 50> $new_job
| 51> %base "19-194_DFT_B"
| 52> ! wB97X-D3 def2-TZVP TIGHTSCF CHELPG PMODEL
| 53>
| 54> %scf
| 55> MaxIter 1000
| 56> end
| 57>
| 58> * xyz 0 1
| 59>   C                    : -4.297405            5.894942             -4.474710
| 60>   O                    : -4.426902            6.358698             -5.799278
| 61>   H                    : -3.533513            6.095699             -6.062029
| 62>   H                    : -3.252572            6.108950             -4.223089
| 63>   H                    : -4.995818            6.315973             -3.816453
| 64>   H                    : -4.302503            4.738694             -4.403813
| 65>   C                      -7.953406            5.982523             -7.280825
| 66>   O                      -7.359437            5.843078             -5.989491
| 67>   H                      -6.422112            5.970046             -6.083202
| 68>   H                      -7.363661            5.353396             -8.045738
| 69>   H                      -8.952876            5.610469             -7.321396
| 70>   H                      -8.057900            7.016053             -7.638671
| 71> *
| 72>
| 73>                          ****END OF INPUT****
 Total Charge           Charge          ....    0
 Multiplicity           Mult            ....    1
 Number of Electrons    NEL             ....   36
Dispersion correction           -0.001605637
FINAL SINGLE POINT ENERGY      -231.463820677185
Dispersion correction           -0.000201115
FINAL SINGLE POINT ENERGY      -115.723220750493

CARTESIAN COORDINATES (ANGSTROEM)
---------------------------------
  C     -4.297405    5.894942   -4.474710
  O     -4.426902    6.358698   -5.799278
  H     -3.533513    6.095699   -6.062029
  H     -3.252572    6.108950   -4.223089
  H     -4.995818    6.315973   -3.816453
  H     -4.302503    4.738694   -4.403813
  C     -7.953406    5.982523   -7.280825
  O     -7.359437    5.843078   -5.989491
  H     -6.422112    5.970046   -6.083202
  H     -7.363661    5.353396   -8.045738
  H     -8.952876    5.610469   -7.321396
  H     -8.057900    7.016053   -7.638671

 Multiplicity           Mult            ....    1
 Number of Electrons    NEL             ....   18
 Basis Dimension        Dim             ....  172

ORBITAL ENERGIES
----------------

  NO   OCC          E(Eh)            E(eV)
   0   2.0000     -19.232295      -523.3373
   1   2.0000     -10.319139      -280.7980
   2   2.0000      -1.135058       -30.8865
   3   2.0000      -0.796948       -21.6860
   4   2.0000      -0.607067       -16.5191
   5   2.0000      -0.538450       -14.6520
   6   2.0000      -0.530562       -14.4373
   7   2.0000      -0.431326       -11.7370
   8   2.0000      -0.376401       -10.2424
   9   0.0000       0.075373         2.0510
  10   0.0000       0.129189         3.5154
  11   0.0000       0.154805         4.2125
  12   0.0000       0.168680         4.5900
  13   0.0000       0.192175         5.2293

MULLIKEN ATOMIC CHARGES
-----------------------
   0 C :    0.000166
   1 O :   -0.001745
   2 H :   -0.000089
   3 H :    0.000159
   4 H :   -0.001240
   5 H :   -0.000304
   6 C :   -0.171188
   7 O :   -0.464473
   8 H :    0.311596
   9 H :    0.097777
  10 H :    0.125455
  11 H :    0.103886
Sum of atomic charges:    0.0000000

LOEWDIN ATOMIC CHARGES
----------------------
   0 C :   -0.007281
   1 O :   -0.013960
   2 H :   -0.000551
   3 H :   -0.000073
   4 H :   -0.001061
   5 H :   -0.000409
   6 C :   -0.379425
   7 O :   -0.070480
   8 H :    0.171072
   9 H :    0.105768
  10 H :    0.101272
  11 H :    0.095128

  Mayer bond orders larger than 0.1
B(  6-C ,  7-O ) :   0.9996 B(  6-C ,  9-H ) :   0.9831 B(  6-C , 10-H ) :   0.9738
B(  6-C , 11-H ) :   0.9684 B(  7-O ,  8-H ) :   0.9062

Dispersion correction           -0.000262245
FINAL SINGLE POINT ENERGY      -115.733187902169

DIPOLE MOMENT
-------------
                                X             Y             Z
Electronic contribution:      0.59487      -0.14655       1.81189
Nuclear contribution   :     -0.27492       0.27654      -2.38200
                        -----------------------------------------
Total Dipole Moment    :      0.31996       0.13000      -0.57011
                        -----------------------------------------
Magnitude (a.u.)       :      0.66655
Magnitude (Debye)      :      1.69424

Rotational constants in cm-1:     4.313031     0.806482     0.782974
Rotational constants in MHz : 129301.427001 24177.714584 23472.979380

                             ****ORCA TERMINATED NORMALLY****
TOTAL RUN TIME: 0 days 0 hours 1 minutes 48 seconds 350 msec
