                         Program Version 4.1.2  - RELEASE  -
|  1> #Run DFT-D3 single point of the dimer
|  2> ! wB97X-D3 def2-TZVP TIGHTSCF CHELPG PMODEL PAL8
|  3>
|  4> %base "8-171_DFT_AB"
|  5>
|  6> %scf
|  7> MaxIter 1000
|  8> end
|  9>
| 10> * xyz 0 1
| 11>   C                      -1.927420            -4.681478            -0.819635
| 12>   O                      -1.601244            -3.450223            -0.213688
| 13>   H                      -0.920131            -3.522494            0.448102
| 14>   H                      -0.976342            -5.266866            -0.868850
| 15>   H                      -2.627015            -5.271775            -0.204945
| 16>   H                      -2.341092            -4.634469            -1.832706
| 17>   C                      1.148353             -5.134750            1.359061
| 18>   O                      0.677754             -3.844119            1.665310
| 19>   H                      1.365600             -3.185171            1.347727
| 20>   H                      2.072571             -5.434069            1.815294
| 21>   H                      0.388310             -5.865048            1.713499
| 22>   H                      1.217598             -5.345474            0.267756
| 23> *
| 24>
| 25> #Run DFT-D3 single point of the molecule with dimer basis set
| 26> $new_job
| 27> %base "8-171_DFT_A"
| 28> ! wB97X-D3 def2-TZVP TIGHTSCF CHELPG PMODEL
| 29>
| 30> %scf
| 31> MaxIter 1000
| 32> end
| 33>
| 34> * xyz 0 1
| 35>   C                      -1.927420            -4.681478            -0.819635
| 36>   O                      -1.601244            -3.450223            -0.213688
| 37>   H                      -0.920131            -3.522494            0.448102
| 38>   H                      -0.976342            -5.266866            -0.868850
| 39>   H                      -2.627015            -5.271775            -0.204945
| 40>   H                      -2.341092            -4.634469            -1.832706
| 41>   C                    : 1.148353             -5.134750            1.359061
| 42>   O                    : 0.677754             -3.844119            1.665310
| 43>   H                    : 1.365600             -3.185171            1.347727
| 44>   H                    : 2.072571             -5.434069            1.815294
| 45>   H                    : 0.388310             -5.865048            1.713499
| 46>   H                    : 1.217598             -5.345474            0.267756
| 47> *
| 48>
| 49> #Run DFT-D3 single point of the particle with dimer basis set
| 50> $new_job
| 51> %base "8-171_DFT_B"
| 52> ! wB97X-D3 def2-TZVP TIGHTSCF CHELPG PMODEL
| 53>
| 54> %scf
| 55> MaxIter 1000
| 56> end
| 57>
| 58> * xyz 0 1
| 59>   C                    : -1.927420            -4.681478            -0.819635
| 60>   O                    : -1.601244            -3.450223            -0.213688
| 61>   H                    : -0.920131            -3.522494            0.448102
| 62>   H                    : -0.976342            -5.266866            -0.868850
| 63>   H                    : -2.627015            -5.271775            -0.204945
| 64>   H                    : -2.341092            -4.634469            -1.832706
| 65>   C                      1.148353             -5.134750            1.359061
| 66>   O                      0.677754             -3.844119            1.665310
| 67>   H                      1.365600             -3.185171            1.347727
| 68>   H                      2.072571             -5.434069            1.815294
| 69>   H                      0.388310             -5.865048            1.713499
| 70>   H                      1.217598             -5.345474            0.267756
| 71> *
| 72>
| 73>                          ****END OF INPUT****
 Total Charge           Charge          ....    0
 Multiplicity           Mult            ....    1
 Number of Electrons    NEL             ....   36
Dispersion correction           -0.002176359
FINAL SINGLE POINT ENERGY      -231.475070182944
Dispersion correction           -0.000250231
FINAL SINGLE POINT ENERGY      -115.732644787946

CARTESIAN COORDINATES (ANGSTROEM)
---------------------------------
  C     -1.927420   -4.681478   -0.819635
  O     -1.601244   -3.450223   -0.213688
  H     -0.920131   -3.522494    0.448102
  H     -0.976342   -5.266866   -0.868850
  H     -2.627015   -5.271775   -0.204945
  H     -2.341092   -4.634469   -1.832706
  C      1.148353   -5.134750    1.359061
  O      0.677754   -3.844119    1.665310
  H      1.365600   -3.185171    1.347727
  H      2.072571   -5.434069    1.815294
  H      0.388310   -5.865048    1.713499
  H      1.217598   -5.345474    0.267756

 Multiplicity           Mult            ....    1
 Number of Electrons    NEL             ....   18
 Basis Dimension        Dim             ....  172

ORBITAL ENERGIES
----------------

  NO   OCC          E(Eh)            E(eV)
   0   2.0000     -19.238818      -523.5149
   1   2.0000     -10.313160      -280.6354
   2   2.0000      -1.132585       -30.8192
   3   2.0000      -0.792081       -21.5536
   4   2.0000      -0.609780       -16.5930
   5   2.0000      -0.540959       -14.7202
   6   2.0000      -0.523064       -14.2333
   7   2.0000      -0.431314       -11.7366
   8   2.0000      -0.376180       -10.2364
   9   0.0000       0.093184         2.5357
  10   0.0000       0.120262         3.2725
  11   0.0000       0.150690         4.1005
  12   0.0000       0.183091         4.9822
  13   0.0000       0.196105         5.3363

MULLIKEN ATOMIC CHARGES
-----------------------
   0 C :    0.000793
   1 O :   -0.002109
   2 H :   -0.008730
   3 H :    0.000993
   4 H :   -0.000327
   5 H :    0.000113
   6 C :   -0.172563
   7 O :   -0.467463
   8 H :    0.318754
   9 H :    0.111460
  10 H :    0.117905
  11 H :    0.101173
Sum of atomic charges:    0.0000000

LOEWDIN ATOMIC CHARGES
----------------------
   0 C :   -0.002661
   1 O :   -0.004438
   2 H :   -0.036932
   3 H :   -0.003258
   4 H :   -0.000083
   5 H :   -0.000010
   6 C :   -0.400725
   7 O :   -0.051711
   8 H :    0.195986
   9 H :    0.089927
  10 H :    0.115075
  11 H :    0.098830

  Mayer bond orders larger than 0.1
B(  6-C ,  7-O ) :   0.9949 B(  6-C ,  9-H ) :   0.9644 B(  6-C , 10-H ) :   0.9778
B(  6-C , 11-H ) :   0.9755 B(  7-O ,  8-H ) :   0.8900

Dispersion correction           -0.000260212
FINAL SINGLE POINT ENERGY      -115.734290806404

DIPOLE MOMENT
-------------
                                X             Y             Z
Electronic contribution:     -0.63908       1.72450       0.51449
Nuclear contribution   :      1.24770      -1.82747      -0.81089
                        -----------------------------------------
Total Dipole Moment    :      0.60862      -0.10297      -0.29640
                        -----------------------------------------
Magnitude (a.u.)       :      0.68475
Magnitude (Debye)      :      1.74049

Rotational constants in cm-1:     4.284000     0.826012     0.795883
Rotational constants in MHz : 128431.100120 24763.215473 23859.969349

                             ****ORCA TERMINATED NORMALLY****
TOTAL RUN TIME: 0 days 0 hours 0 minutes 46 seconds 680 msec
