                         Program Version 4.1.2  - RELEASE  -
|  1> #Run DFT-D3 single point of the dimer
|  2> ! wB97X-D3 def2-TZVP TIGHTSCF CHELPG PMODEL PAL8
|  3>
|  4> %base "10-20_DFT_AB"
|  5>
|  6> %scf
|  7> MaxIter 1000
|  8> end
|  9>
| 10> * xyz 0 1
| 11>   C                      9.584878             9.486159             -2.318972
| 12>   O                      8.406559             10.126476            -2.024404
| 13>   H                      7.795485             9.747395             -2.700372
| 14>   H                      9.401391             8.478447             -2.650509
| 15>   H                      10.200250            10.016750            -3.046298
| 16>   H                      10.196088            9.389947             -1.386170
| 17>   C                      5.659546             11.230194            -4.392080
| 18>   O                      6.737436             10.250714            -4.419518
| 19>   H                      7.273776             10.297701            -5.275005
| 20>   H                      4.710570             10.953789            -4.917331
| 21>   H                      5.374451             11.441516            -3.366620
| 22>   H                      5.938988             12.174493            -4.886099
| 23> *
| 24>
| 25> #Run DFT-D3 single point of the molecule with dimer basis set
| 26> $new_job
| 27> %base "10-20_DFT_A"
| 28> ! wB97X-D3 def2-TZVP TIGHTSCF CHELPG PMODEL
| 29>
| 30> %scf
| 31> MaxIter 1000
| 32> end
| 33>
| 34> * xyz 0 1
| 35>   C                      9.584878             9.486159             -2.318972
| 36>   O                      8.406559             10.126476            -2.024404
| 37>   H                      7.795485             9.747395             -2.700372
| 38>   H                      9.401391             8.478447             -2.650509
| 39>   H                      10.200250            10.016750            -3.046298
| 40>   H                      10.196088            9.389947             -1.386170
| 41>   C                    : 5.659546             11.230194            -4.392080
| 42>   O                    : 6.737436             10.250714            -4.419518
| 43>   H                    : 7.273776             10.297701            -5.275005
| 44>   H                    : 4.710570             10.953789            -4.917331
| 45>   H                    : 5.374451             11.441516            -3.366620
| 46>   H                    : 5.938988             12.174493            -4.886099
| 47> *
| 48>
| 49> #Run DFT-D3 single point of the particle with dimer basis set
| 50> $new_job
| 51> %base "10-20_DFT_B"
| 52> ! wB97X-D3 def2-TZVP TIGHTSCF CHELPG PMODEL
| 53>
| 54> %scf
| 55> MaxIter 1000
| 56> end
| 57>
| 58> * xyz 0 1
| 59>   C                    : 9.584878             9.486159             -2.318972
| 60>   O                    : 8.406559             10.126476            -2.024404
| 61>   H                    : 7.795485             9.747395             -2.700372
| 62>   H                    : 9.401391             8.478447             -2.650509
| 63>   H                    : 10.200250            10.016750            -3.046298
| 64>   H                    : 10.196088            9.389947             -1.386170
| 65>   C                      5.659546             11.230194            -4.392080
| 66>   O                      6.737436             10.250714            -4.419518
| 67>   H                      7.273776             10.297701            -5.275005
| 68>   H                      4.710570             10.953789            -4.917331
| 69>   H                      5.374451             11.441516            -3.366620
| 70>   H                      5.938988             12.174493            -4.886099
| 71> *
| 72>
| 73>                          ****END OF INPUT****
 Total Charge           Charge          ....    0
 Multiplicity           Mult            ....    1
 Number of Electrons    NEL             ....   36
Dispersion correction           -0.001671233
FINAL SINGLE POINT ENERGY      -231.470082120815
Dispersion correction           -0.000216259
FINAL SINGLE POINT ENERGY      -115.732717161457

CARTESIAN COORDINATES (ANGSTROEM)
---------------------------------
  C      9.584878    9.486159   -2.318972
  O      8.406559   10.126476   -2.024404
  H      7.795485    9.747395   -2.700372
  H      9.401391    8.478447   -2.650509
  H     10.200250   10.016750   -3.046298
  H     10.196088    9.389947   -1.386170
  C      5.659546   11.230194   -4.392080
  O      6.737436   10.250714   -4.419518
  H      7.273776   10.297701   -5.275005
  H      4.710570   10.953789   -4.917331
  H      5.374451   11.441516   -3.366620
  H      5.938988   12.174493   -4.886099

 Multiplicity           Mult            ....    1
 Number of Electrons    NEL             ....   18
 Basis Dimension        Dim             ....  172

ORBITAL ENERGIES
----------------

  NO   OCC          E(Eh)            E(eV)
   0   2.0000     -19.237206      -523.4710
   1   2.0000     -10.320060      -280.8231
   2   2.0000      -1.113526       -30.3006
   3   2.0000      -0.795207       -21.6387
   4   2.0000      -0.602456       -16.3937
   5   2.0000      -0.526335       -14.3223
   6   2.0000      -0.523382       -14.2420
   7   2.0000      -0.433858       -11.8059
   8   2.0000      -0.373667       -10.1680
   9   0.0000       0.094050         2.5592
  10   0.0000       0.121784         3.3139
  11   0.0000       0.144449         3.9307
  12   0.0000       0.182707         4.9717
  13   0.0000       0.203893         5.5482

MULLIKEN ATOMIC CHARGES
-----------------------
   0 C :   -0.002963
   1 O :   -0.000014
   2 H :   -0.004102
   3 H :   -0.000412
   4 H :   -0.000508
   5 H :   -0.000205
   6 C :   -0.162756
   7 O :   -0.481415
   8 H :    0.319710
   9 H :    0.101674
  10 H :    0.125444
  11 H :    0.105546
Sum of atomic charges:   -0.0000000

LOEWDIN ATOMIC CHARGES
----------------------
   0 C :   -0.003521
   1 O :   -0.005831
   2 H :   -0.030384
   3 H :   -0.000206
   4 H :   -0.000357
   5 H :   -0.000071
   6 C :   -0.363016
   7 O :   -0.093716
   8 H :    0.194331
   9 H :    0.099590
  10 H :    0.106087
  11 H :    0.097093

  Mayer bond orders larger than 0.1
B(  6-C ,  7-O ) :   0.9987 B(  6-C ,  9-H ) :   0.9661 B(  6-C , 10-H ) :   0.9764
B(  6-C , 11-H ) :   0.9767 B(  7-O ,  8-H ) :   0.8872

Dispersion correction           -0.000294766
FINAL SINGLE POINT ENERGY      -115.730529464615

DIPOLE MOMENT
-------------
                                X             Y             Z
Electronic contribution:      1.35412      -1.32322       0.14069
Nuclear contribution   :     -1.47110       1.78440      -0.66741
                        -----------------------------------------
Total Dipole Moment    :     -0.11697       0.46118      -0.52672
                        -----------------------------------------
Magnitude (a.u.)       :      0.70979
Magnitude (Debye)      :      1.80415

Rotational constants in cm-1:     4.321599     0.775835     0.744922
Rotational constants in MHz : 129558.289121 23258.943986 22332.200547

                             ****ORCA TERMINATED NORMALLY****
TOTAL RUN TIME: 0 days 0 hours 1 minutes 9 seconds 768 msec
