                         Program Version 4.1.2  - RELEASE  -
|  1> #Run DFT-D3 single point of the dimer
|  2> ! wB97X-D3 def2-TZVP TIGHTSCF CHELPG PMODEL PAL8
|  3>
|  4> %base "8-98_DFT_AB"
|  5>
|  6> %scf
|  7> MaxIter 1000
|  8> end
|  9>
| 10> * xyz 0 1
| 11>   C                      -5.195719            -0.427144            9.365506
| 12>   O                      -6.124433            -1.080566            10.163934
| 13>   H                      -6.539004            -1.747450            9.631112
| 14>   H                      -5.596017            -0.049719            8.423426
| 15>   H                      -4.831508            0.366167             9.977338
| 16>   H                      -4.342301            -1.112926            9.156067
| 17>   C                      -0.275978            -1.399052            9.199394
| 18>   O                      -0.958128            -2.355190            10.019750
| 19>   H                      -0.339695            -3.022243            10.280683
| 20>   H                      -0.951116            -1.011180            8.357782
| 21>   H                      0.011920             -0.481083            9.730996
| 22>   H                      0.554783             -1.852173            8.677638
| 23> *
| 24>
| 25> #Run DFT-D3 single point of the molecule with dimer basis set
| 26> $new_job
| 27> %base "8-98_DFT_A"
| 28> ! wB97X-D3 def2-TZVP TIGHTSCF CHELPG PMODEL
| 29>
| 30> %scf
| 31> MaxIter 1000
| 32> end
| 33>
| 34> * xyz 0 1
| 35>   C                      -5.195719            -0.427144            9.365506
| 36>   O                      -6.124433            -1.080566            10.163934
| 37>   H                      -6.539004            -1.747450            9.631112
| 38>   H                      -5.596017            -0.049719            8.423426
| 39>   H                      -4.831508            0.366167             9.977338
| 40>   H                      -4.342301            -1.112926            9.156067
| 41>   C                    : -0.275978            -1.399052            9.199394
| 42>   O                    : -0.958128            -2.355190            10.019750
| 43>   H                    : -0.339695            -3.022243            10.280683
| 44>   H                    : -0.951116            -1.011180            8.357782
| 45>   H                    : 0.011920             -0.481083            9.730996
| 46>   H                    : 0.554783             -1.852173            8.677638
| 47> *
| 48>
| 49> #Run DFT-D3 single point of the particle with dimer basis set
| 50> $new_job
| 51> %base "8-98_DFT_B"
| 52> ! wB97X-D3 def2-TZVP TIGHTSCF CHELPG PMODEL
| 53>
| 54> %scf
| 55> MaxIter 1000
| 56> end
| 57>
| 58> * xyz 0 1
| 59>   C                    : -5.195719            -0.427144            9.365506
| 60>   O                    : -6.124433            -1.080566            10.163934
| 61>   H                    : -6.539004            -1.747450            9.631112
| 62>   H                    : -5.596017            -0.049719            8.423426
| 63>   H                    : -4.831508            0.366167             9.977338
| 64>   H                    : -4.342301            -1.112926            9.156067
| 65>   C                      -0.275978            -1.399052            9.199394
| 66>   O                      -0.958128            -2.355190            10.019750
| 67>   H                      -0.339695            -3.022243            10.280683
| 68>   H                      -0.951116            -1.011180            8.357782
| 69>   H                      0.011920             -0.481083            9.730996
| 70>   H                      0.554783             -1.852173            8.677638
| 71> *
| 72>
| 73>                          ****END OF INPUT****
 Total Charge           Charge          ....    0
 Multiplicity           Mult            ....    1
 Number of Electrons    NEL             ....   36
Dispersion correction           -0.000875928
FINAL SINGLE POINT ENERGY      -231.468838686653
Dispersion correction           -0.000220311
FINAL SINGLE POINT ENERGY      -115.735529798570

CARTESIAN COORDINATES (ANGSTROEM)
---------------------------------
  C     -5.195719   -0.427144    9.365506
  O     -6.124433   -1.080566   10.163934
  H     -6.539004   -1.747450    9.631112
  H     -5.596017   -0.049719    8.423426
  H     -4.831508    0.366167    9.977338
  H     -4.342301   -1.112926    9.156067
  C     -0.275978   -1.399052    9.199394
  O     -0.958128   -2.355190   10.019750
  H     -0.339695   -3.022243   10.280683
  H     -0.951116   -1.011180    8.357782
  H      0.011920   -0.481083    9.730996
  H      0.554783   -1.852173    8.677638

 Multiplicity           Mult            ....    1
 Number of Electrons    NEL             ....   18
 Basis Dimension        Dim             ....  172

ORBITAL ENERGIES
----------------

  NO   OCC          E(Eh)            E(eV)
   0   2.0000     -19.230741      -523.2951
   1   2.0000     -10.319503      -280.8079
   2   2.0000      -1.133952       -30.8564
   3   2.0000      -0.795155       -21.6373
   4   2.0000      -0.610807       -16.6209
   5   2.0000      -0.541391       -14.7320
   6   2.0000      -0.520349       -14.1594
   7   2.0000      -0.432091       -11.7578
   8   2.0000      -0.375620       -10.2211
   9   0.0000       0.093725         2.5504
  10   0.0000       0.117542         3.1985
  11   0.0000       0.147756         4.0206
  12   0.0000       0.172315         4.6889
  13   0.0000       0.188148         5.1198

MULLIKEN ATOMIC CHARGES
-----------------------
   0 C :    0.000015
   1 O :    0.000012
   2 H :   -0.000003
   3 H :    0.000005
   4 H :    0.000014
   5 H :   -0.000896
   6 C :   -0.174716
   7 O :   -0.470170
   8 H :    0.313227
   9 H :    0.112551
  10 H :    0.109246
  11 H :    0.110715
Sum of atomic charges:   -0.0000000

LOEWDIN ATOMIC CHARGES
----------------------
   0 C :   -0.000194
   1 O :   -0.000006
   2 H :   -0.000000
   3 H :   -0.000004
   4 H :   -0.000010
   5 H :   -0.000423
   6 C :   -0.379820
   7 O :   -0.083280
   8 H :    0.159005
   9 H :    0.113956
  10 H :    0.096975
  11 H :    0.093801

  Mayer bond orders larger than 0.1
B(  6-C ,  7-O ) :   1.0074 B(  6-C ,  9-H ) :   0.9744 B(  6-C , 10-H ) :   0.9707
B(  6-C , 11-H ) :   0.9808 B(  7-O ,  8-H ) :   0.9026

Dispersion correction           -0.000267022
FINAL SINGLE POINT ENERGY      -115.732876141882

DIPOLE MOMENT
-------------
                                X             Y             Z
Electronic contribution:     -0.89428      -1.21403       1.14755
Nuclear contribution   :      1.58445       1.15299      -1.32657
                        -----------------------------------------
Total Dipole Moment    :      0.69017      -0.06104      -0.17902
                        -----------------------------------------
Magnitude (a.u.)       :      0.71562
Magnitude (Debye)      :      1.81896

Rotational constants in cm-1:     4.312756     0.803122     0.777682
Rotational constants in MHz : 129293.159840 24076.982983 23314.329378

                             ****ORCA TERMINATED NORMALLY****
TOTAL RUN TIME: 0 days 0 hours 0 minutes 33 seconds 106 msec
