                         Program Version 4.1.2  - RELEASE  -
|  1> #Run DFT-D3 single point of the dimer
|  2> ! wB97X-D3 def2-TZVP TIGHTSCF CHELPG PMODEL PAL8
|  3>
|  4> %base "17-172_DFT_AB"
|  5>
|  6> %scf
|  7> MaxIter 1000
|  8> end
|  9>
| 10> * xyz 0 1
| 11>   C                      -4.390305            -7.853721            -8.340512
| 12>   O                      -3.239923            -7.533643            -7.534374
| 13>   H                      -3.454352            -6.886440            -6.874207
| 14>   H                      -4.282908            -8.754104            -8.899500
| 15>   H                      -5.215125            -8.003807            -7.642085
| 16>   H                      -4.738968            -7.005567            -9.008015
| 17>   C                      1.133517             -8.147447            -8.000697
| 18>   O                      0.016639             -8.043199            -7.114052
| 19>   H                      -0.528439            -7.307788            -7.373907
| 20>   H                      0.753661             -8.090303            -9.044656
| 21>   H                      1.848554             -7.316792            -7.822672
| 22>   H                      1.715743             -9.115010            -7.891691
| 23> *
| 24>
| 25> #Run DFT-D3 single point of the molecule with dimer basis set
| 26> $new_job
| 27> %base "17-172_DFT_A"
| 28> ! wB97X-D3 def2-TZVP TIGHTSCF CHELPG PMODEL
| 29>
| 30> %scf
| 31> MaxIter 1000
| 32> end
| 33>
| 34> * xyz 0 1
| 35>   C                      -4.390305            -7.853721            -8.340512
| 36>   O                      -3.239923            -7.533643            -7.534374
| 37>   H                      -3.454352            -6.886440            -6.874207
| 38>   H                      -4.282908            -8.754104            -8.899500
| 39>   H                      -5.215125            -8.003807            -7.642085
| 40>   H                      -4.738968            -7.005567            -9.008015
| 41>   C                    : 1.133517             -8.147447            -8.000697
| 42>   O                    : 0.016639             -8.043199            -7.114052
| 43>   H                    : -0.528439            -7.307788            -7.373907
| 44>   H                    : 0.753661             -8.090303            -9.044656
| 45>   H                    : 1.848554             -7.316792            -7.822672
| 46>   H                    : 1.715743             -9.115010            -7.891691
| 47> *
| 48>
| 49> #Run DFT-D3 single point of the particle with dimer basis set
| 50> $new_job
| 51> %base "17-172_DFT_B"
| 52> ! wB97X-D3 def2-TZVP TIGHTSCF CHELPG PMODEL
| 53>
| 54> %scf
| 55> MaxIter 1000
| 56> end
| 57>
| 58> * xyz 0 1
| 59>   C                    : -4.390305            -7.853721            -8.340512
| 60>   O                    : -3.239923            -7.533643            -7.534374
| 61>   H                    : -3.454352            -6.886440            -6.874207
| 62>   H                    : -4.282908            -8.754104            -8.899500
| 63>   H                    : -5.215125            -8.003807            -7.642085
| 64>   H                    : -4.738968            -7.005567            -9.008015
| 65>   C                      1.133517             -8.147447            -8.000697
| 66>   O                      0.016639             -8.043199            -7.114052
| 67>   H                      -0.528439            -7.307788            -7.373907
| 68>   H                      0.753661             -8.090303            -9.044656
| 69>   H                      1.848554             -7.316792            -7.822672
| 70>   H                      1.715743             -9.115010            -7.891691
| 71> *
| 72>
| 73>                          ****END OF INPUT****
 Total Charge           Charge          ....    0
 Multiplicity           Mult            ....    1
 Number of Electrons    NEL             ....   36
Dispersion correction           -0.001184267
FINAL SINGLE POINT ENERGY      -231.467747646370
Dispersion correction           -0.000256504
FINAL SINGLE POINT ENERGY      -115.732223559754

CARTESIAN COORDINATES (ANGSTROEM)
---------------------------------
  C     -4.390305   -7.853721   -8.340512
  O     -3.239923   -7.533643   -7.534374
  H     -3.454352   -6.886440   -6.874207
  H     -4.282908   -8.754104   -8.899500
  H     -5.215125   -8.003807   -7.642085
  H     -4.738968   -7.005567   -9.008015
  C      1.133517   -8.147447   -8.000697
  O      0.016639   -8.043199   -7.114052
  H     -0.528439   -7.307788   -7.373907
  H      0.753661   -8.090303   -9.044656
  H      1.848554   -7.316792   -7.822672
  H      1.715743   -9.115010   -7.891691

 Multiplicity           Mult            ....    1
 Number of Electrons    NEL             ....   18
 Basis Dimension        Dim             ....  172

ORBITAL ENERGIES
----------------

  NO   OCC          E(Eh)            E(eV)
   0   2.0000     -19.228597      -523.2367
   1   2.0000     -10.323430      -280.9148
   2   2.0000      -1.132340       -30.8125
   3   2.0000      -0.791409       -21.5353
   4   2.0000      -0.606617       -16.5069
   5   2.0000      -0.539342       -14.6762
   6   2.0000      -0.526119       -14.3164
   7   2.0000      -0.428788       -11.6679
   8   2.0000      -0.373277       -10.1574
   9   0.0000       0.080461         2.1894
  10   0.0000       0.119601         3.2545
  11   0.0000       0.145242         3.9522
  12   0.0000       0.177134         4.8201
  13   0.0000       0.196411         5.3446

MULLIKEN ATOMIC CHARGES
-----------------------
   0 C :   -0.001040
   1 O :   -0.001363
   2 H :   -0.000123
   3 H :    0.000021
   4 H :    0.000039
   5 H :    0.000027
   6 C :   -0.174640
   7 O :   -0.476817
   8 H :    0.316280
   9 H :    0.105904
  10 H :    0.107198
  11 H :    0.124514
Sum of atomic charges:   -0.0000000

LOEWDIN ATOMIC CHARGES
----------------------
   0 C :   -0.000454
   1 O :   -0.003275
   2 H :   -0.000429
   3 H :   -0.000029
   4 H :   -0.000009
   5 H :   -0.000006
   6 C :   -0.381399
   7 O :   -0.086874
   8 H :    0.161674
   9 H :    0.098258
  10 H :    0.096434
  11 H :    0.116108

  Mayer bond orders larger than 0.1
B(  6-C ,  7-O ) :   0.9920 B(  6-C ,  9-H ) :   0.9801 B(  6-C , 10-H ) :   0.9745
B(  6-C , 11-H ) :   0.9683 B(  7-O ,  8-H ) :   0.8976

Dispersion correction           -0.000252619
FINAL SINGLE POINT ENERGY      -115.733990604080

DIPOLE MOMENT
-------------
                                X             Y             Z
Electronic contribution:     -1.36304      -0.00818       1.22827
Nuclear contribution   :      1.47424       0.42829      -1.76148
                        -----------------------------------------
Total Dipole Moment    :      0.11120       0.42011      -0.53320
                        -----------------------------------------
Magnitude (a.u.)       :      0.68787
Magnitude (Debye)      :      1.74842

Rotational constants in cm-1:     4.184745     0.808837     0.781678
Rotational constants in MHz : 125455.488854 24248.332754 23434.118155

                             ****ORCA TERMINATED NORMALLY****
TOTAL RUN TIME: 0 days 0 hours 1 minutes 0 seconds 442 msec
