                         Program Version 4.1.2  - RELEASE  -
|  1> #Run DFT-D3 single point of the dimer
|  2> ! wB97X-D3 def2-TZVP TIGHTSCF CHELPG PMODEL PAL8
|  3>
|  4> %base "14-111_DFT_AB"
|  5>
|  6> %scf
|  7> MaxIter 1000
|  8> end
|  9>
| 10> * xyz 0 1
| 11>   C                      10.107105            -5.583094            0.898709
| 12>   O                      9.277626             -4.510390            1.399296
| 13>   H                      9.836118             -3.927165            1.959038
| 14>   H                      11.109694            -5.474125            1.303897
| 15>   H                      9.825191             -6.604012            1.214564
| 16>   H                      10.273370            -5.608392            -0.218637
| 17>   C                      6.240257             -3.486396            0.328244
| 18>   O                      7.407682             -3.671008            -0.383972
| 19>   H                      7.952128             -4.335552            -0.003175
| 20>   H                      6.224370             -4.059562            1.284200
| 21>   H                      6.097100             -2.413471            0.559097
| 22>   H                      5.374843             -3.919506            -0.240133
| 23> *
| 24>
| 25> #Run DFT-D3 single point of the molecule with dimer basis set
| 26> $new_job
| 27> %base "14-111_DFT_A"
| 28> ! wB97X-D3 def2-TZVP TIGHTSCF CHELPG PMODEL
| 29>
| 30> %scf
| 31> MaxIter 1000
| 32> end
| 33>
| 34> * xyz 0 1
| 35>   C                      10.107105            -5.583094            0.898709
| 36>   O                      9.277626             -4.510390            1.399296
| 37>   H                      9.836118             -3.927165            1.959038
| 38>   H                      11.109694            -5.474125            1.303897
| 39>   H                      9.825191             -6.604012            1.214564
| 40>   H                      10.273370            -5.608392            -0.218637
| 41>   C                    : 6.240257             -3.486396            0.328244
| 42>   O                    : 7.407682             -3.671008            -0.383972
| 43>   H                    : 7.952128             -4.335552            -0.003175
| 44>   H                    : 6.224370             -4.059562            1.284200
| 45>   H                    : 6.097100             -2.413471            0.559097
| 46>   H                    : 5.374843             -3.919506            -0.240133
| 47> *
| 48>
| 49> #Run DFT-D3 single point of the particle with dimer basis set
| 50> $new_job
| 51> %base "14-111_DFT_B"
| 52> ! wB97X-D3 def2-TZVP TIGHTSCF CHELPG PMODEL
| 53>
| 54> %scf
| 55> MaxIter 1000
| 56> end
| 57>
| 58> * xyz 0 1
| 59>   C                    : 10.107105            -5.583094            0.898709
| 60>   O                    : 9.277626             -4.510390            1.399296
| 61>   H                    : 9.836118             -3.927165            1.959038
| 62>   H                    : 11.109694            -5.474125            1.303897
| 63>   H                    : 9.825191             -6.604012            1.214564
| 64>   H                    : 10.273370            -5.608392            -0.218637
| 65>   C                      6.240257             -3.486396            0.328244
| 66>   O                      7.407682             -3.671008            -0.383972
| 67>   H                      7.952128             -4.335552            -0.003175
| 68>   H                      6.224370             -4.059562            1.284200
| 69>   H                      6.097100             -2.413471            0.559097
| 70>   H                      5.374843             -3.919506            -0.240133
| 71> *
| 72>
| 73>                          ****END OF INPUT****
 Total Charge           Charge          ....    0
 Multiplicity           Mult            ....    1
 Number of Electrons    NEL             ....   36
Dispersion correction           -0.001814616
FINAL SINGLE POINT ENERGY      -231.467418961040
Dispersion correction           -0.000280399
FINAL SINGLE POINT ENERGY      -115.729980338969

CARTESIAN COORDINATES (ANGSTROEM)
---------------------------------
  C     10.107105   -5.583094    0.898709
  O      9.277626   -4.510390    1.399296
  H      9.836118   -3.927165    1.959038
  H     11.109694   -5.474125    1.303897
  H      9.825191   -6.604012    1.214564
  H     10.273370   -5.608392   -0.218637
  C      6.240257   -3.486396    0.328244
  O      7.407682   -3.671008   -0.383972
  H      7.952128   -4.335552   -0.003175
  H      6.224370   -4.059562    1.284200
  H      6.097100   -2.413471    0.559097
  H      5.374843   -3.919506   -0.240133

 Multiplicity           Mult            ....    1
 Number of Electrons    NEL             ....   18
 Basis Dimension        Dim             ....  172

ORBITAL ENERGIES
----------------

  NO   OCC          E(Eh)            E(eV)
   0   2.0000     -19.228150      -523.2246
   1   2.0000     -10.317013      -280.7402
   2   2.0000      -1.149455       -31.2783
   3   2.0000      -0.793667       -21.5968
   4   2.0000      -0.621914       -16.9231
   5   2.0000      -0.545603       -14.8466
   6   2.0000      -0.526959       -14.3393
   7   2.0000      -0.426103       -11.5949
   8   2.0000      -0.372192       -10.1279
   9   0.0000       0.071007         1.9322
  10   0.0000       0.131934         3.5901
  11   0.0000       0.158204         4.3049
  12   0.0000       0.162284         4.4160
  13   0.0000       0.186015         5.0617

MULLIKEN ATOMIC CHARGES
-----------------------
   0 C :   -0.002145
   1 O :   -0.008199
   2 H :   -0.000981
   3 H :    0.000161
   4 H :    0.000108
   5 H :   -0.000035
   6 C :   -0.151406
   7 O :   -0.461744
   8 H :    0.314919
   9 H :    0.096834
  10 H :    0.110773
  11 H :    0.101714
Sum of atomic charges:    0.0000000

LOEWDIN ATOMIC CHARGES
----------------------
   0 C :   -0.006783
   1 O :   -0.022907
   2 H :   -0.001469
   3 H :   -0.000117
   4 H :   -0.000125
   5 H :   -0.000619
   6 C :   -0.412248
   7 O :   -0.027077
   8 H :    0.166345
   9 H :    0.098356
  10 H :    0.104637
  11 H :    0.102009

  Mayer bond orders larger than 0.1
B(  6-C ,  7-O ) :   0.9964 B(  6-C ,  9-H ) :   0.9823 B(  6-C , 10-H ) :   0.9709
B(  6-C , 11-H ) :   0.9776 B(  7-O ,  8-H ) :   0.9055

Dispersion correction           -0.000246373
FINAL SINGLE POINT ENERGY      -115.733980679101

DIPOLE MOMENT
-------------
                                X             Y             Z
Electronic contribution:      1.53879      -0.08040      -1.02597
Nuclear contribution   :     -1.61541      -0.29683       1.56451
                        -----------------------------------------
Total Dipole Moment    :     -0.07662      -0.37724       0.53854
                        -----------------------------------------
Magnitude (a.u.)       :      0.66197
Magnitude (Debye)      :      1.68259

Rotational constants in cm-1:     4.242801     0.854097     0.829415
Rotational constants in MHz : 127195.987047 25605.188121 24865.241607

                             ****ORCA TERMINATED NORMALLY****
TOTAL RUN TIME: 0 days 0 hours 0 minutes 58 seconds 948 msec
