                         Program Version 4.1.2  - RELEASE  -
|  1> #Run DFT-D3 single point of the dimer
|  2> ! wB97X-D3 def2-TZVP TIGHTSCF CHELPG PMODEL PAL8
|  3>
|  4> %base "20-159_DFT_AB"
|  5>
|  6> %scf
|  7> MaxIter 1000
|  8> end
|  9>
| 10> * xyz 0 1
| 11>   C                      2.228465             3.519173             4.443829
| 12>   O                      3.320479             2.858309             5.078403
| 13>   H                      4.130458             3.343269             4.846252
| 14>   H                      2.522161             3.844523             3.450730
| 15>   H                      1.422132             2.903265             4.368014
| 16>   H                      1.893552             4.378098             4.980760
| 17>   C                      4.331359             3.746377             1.493355
| 18>   O                      4.162242             5.019234             2.100119
| 19>   H                      4.643756             5.060123             2.951238
| 20>   H                      3.428837             3.307980             1.033165
| 21>   H                      5.152220             3.725037             0.727727
| 22>   H                      4.740385             3.024724             2.196490
| 23> *
| 24>
| 25> #Run DFT-D3 single point of the molecule with dimer basis set
| 26> $new_job
| 27> %base "20-159_DFT_A"
| 28> ! wB97X-D3 def2-TZVP TIGHTSCF CHELPG PMODEL
| 29>
| 30> %scf
| 31> MaxIter 1000
| 32> end
| 33>
| 34> * xyz 0 1
| 35>   C                      2.228465             3.519173             4.443829
| 36>   O                      3.320479             2.858309             5.078403
| 37>   H                      4.130458             3.343269             4.846252
| 38>   H                      2.522161             3.844523             3.450730
| 39>   H                      1.422132             2.903265             4.368014
| 40>   H                      1.893552             4.378098             4.980760
| 41>   C                    : 4.331359             3.746377             1.493355
| 42>   O                    : 4.162242             5.019234             2.100119
| 43>   H                    : 4.643756             5.060123             2.951238
| 44>   H                    : 3.428837             3.307980             1.033165
| 45>   H                    : 5.152220             3.725037             0.727727
| 46>   H                    : 4.740385             3.024724             2.196490
| 47> *
| 48>
| 49> #Run DFT-D3 single point of the particle with dimer basis set
| 50> $new_job
| 51> %base "20-159_DFT_B"
| 52> ! wB97X-D3 def2-TZVP TIGHTSCF CHELPG PMODEL
| 53>
| 54> %scf
| 55> MaxIter 1000
| 56> end
| 57>
| 58> * xyz 0 1
| 59>   C                    : 2.228465             3.519173             4.443829
| 60>   O                    : 3.320479             2.858309             5.078403
| 61>   H                    : 4.130458             3.343269             4.846252
| 62>   H                    : 2.522161             3.844523             3.450730
| 63>   H                    : 1.422132             2.903265             4.368014
| 64>   H                    : 1.893552             4.378098             4.980760
| 65>   C                      4.331359             3.746377             1.493355
| 66>   O                      4.162242             5.019234             2.100119
| 67>   H                      4.643756             5.060123             2.951238
| 68>   H                      3.428837             3.307980             1.033165
| 69>   H                      5.152220             3.725037             0.727727
| 70>   H                      4.740385             3.024724             2.196490
| 71> *
| 72>
| 73>                          ****END OF INPUT****
 Total Charge           Charge          ....    0
 Multiplicity           Mult            ....    1
 Number of Electrons    NEL             ....   36
Dispersion correction           -0.002332795
FINAL SINGLE POINT ENERGY      -231.464013088594
Dispersion correction           -0.000231367
FINAL SINGLE POINT ENERGY      -115.732207852428

CARTESIAN COORDINATES (ANGSTROEM)
---------------------------------
  C      2.228465    3.519173    4.443829
  O      3.320479    2.858309    5.078403
  H      4.130458    3.343269    4.846252
  H      2.522161    3.844523    3.450730
  H      1.422132    2.903265    4.368014
  H      1.893552    4.378098    4.980760
  C      4.331359    3.746377    1.493355
  O      4.162242    5.019234    2.100119
  H      4.643756    5.060123    2.951238
  H      3.428837    3.307980    1.033165
  H      5.152220    3.725037    0.727727
  H      4.740385    3.024724    2.196490

 Multiplicity           Mult            ....    1
 Number of Electrons    NEL             ....   18
 Basis Dimension        Dim             ....  172

ORBITAL ENERGIES
----------------

  NO   OCC          E(Eh)            E(eV)
   0   2.0000     -19.235365      -523.4209
   1   2.0000     -10.318371      -280.7772
   2   2.0000      -1.131444       -30.7882
   3   2.0000      -0.795054       -21.6345
   4   2.0000      -0.614494       -16.7212
   5   2.0000      -0.535703       -14.5772
   6   2.0000      -0.524796       -14.2804
   7   2.0000      -0.431387       -11.7386
   8   2.0000      -0.373326       -10.1587
   9   0.0000       0.080726         2.1967
  10   0.0000       0.131044         3.5659
  11   0.0000       0.144688         3.9372
  12   0.0000       0.168215         4.5774
  13   0.0000       0.202057         5.4983

MULLIKEN ATOMIC CHARGES
-----------------------
   0 C :   -0.006494
   1 O :    0.000953
   2 H :   -0.001961
   3 H :   -0.001856
   4 H :   -0.000749
   5 H :    0.000673
   6 C :   -0.182512
   7 O :   -0.477803
   8 H :    0.324326
   9 H :    0.123803
  10 H :    0.109214
  11 H :    0.112407
Sum of atomic charges:    0.0000000

LOEWDIN ATOMIC CHARGES
----------------------
   0 C :   -0.009199
   1 O :   -0.000451
   2 H :   -0.002392
   3 H :   -0.013429
   4 H :   -0.000098
   5 H :   -0.000247
   6 C :   -0.387825
   7 O :   -0.075627
   8 H :    0.182770
   9 H :    0.108176
  10 H :    0.101774
  11 H :    0.096547

  Mayer bond orders larger than 0.1
B(  6-C ,  7-O ) :   0.9865 B(  6-C ,  9-H ) :   0.9755 B(  6-C , 10-H ) :   0.9723
B(  6-C , 11-H ) :   0.9834 B(  7-O ,  8-H ) :   0.8919

Dispersion correction           -0.000267917
FINAL SINGLE POINT ENERGY      -115.731895132383

DIPOLE MOMENT
-------------
                                X             Y             Z
Electronic contribution:     -0.44522       1.76752       0.68704
Nuclear contribution   :      0.84002      -2.26714      -0.36590
                        -----------------------------------------
Total Dipole Moment    :      0.39480      -0.49961       0.32114
                        -----------------------------------------
Magnitude (a.u.)       :      0.71317
Magnitude (Debye)      :      1.81273

Rotational constants in cm-1:     4.361447     0.809528     0.779716
Rotational constants in MHz : 130752.877147 24269.042413 23375.310686

                             ****ORCA TERMINATED NORMALLY****
TOTAL RUN TIME: 0 days 0 hours 1 minutes 4 seconds 444 msec
