                         Program Version 4.1.2  - RELEASE  -
|  1> #Run DFT-D3 single point of the dimer
|  2> ! wB97X-D3 def2-TZVP TIGHTSCF CHELPG PMODEL PAL8
|  3>
|  4> %base "10-212_DFT_AB"
|  5>
|  6> %scf
|  7> MaxIter 1000
|  8> end
|  9>
| 10> * xyz 0 1
| 11>   C                      1.367923             -6.330460            -10.176826
| 12>   O                      0.599920             -7.321826            -10.790082
| 13>   H                      -0.023357            -7.777559            -10.239975
| 14>   H                      2.408693             -6.273177            -10.548830
| 15>   H                      1.022412             -5.304323            -10.160422
| 16>   H                      1.565223             -6.564865            -9.102206
| 17>   C                      -1.628526            -10.375005           -9.102687
| 18>   O                      -1.132023            -9.083415            -9.327182
| 19>   H                      -1.163365            -8.582984            -8.526550
| 20>   H                      -2.603047            -10.197544           -8.616572
| 21>   H                      -1.761198            -10.908630           -10.061052
| 22>   H                      -0.896033            -10.918688           -8.564937
| 23> *
| 24>
| 25> #Run DFT-D3 single point of the molecule with dimer basis set
| 26> $new_job
| 27> %base "10-212_DFT_A"
| 28> ! wB97X-D3 def2-TZVP TIGHTSCF CHELPG PMODEL
| 29>
| 30> %scf
| 31> MaxIter 1000
| 32> end
| 33>
| 34> * xyz 0 1
| 35>   C                      1.367923             -6.330460            -10.176826
| 36>   O                      0.599920             -7.321826            -10.790082
| 37>   H                      -0.023357            -7.777559            -10.239975
| 38>   H                      2.408693             -6.273177            -10.548830
| 39>   H                      1.022412             -5.304323            -10.160422
| 40>   H                      1.565223             -6.564865            -9.102206
| 41>   C                    : -1.628526            -10.375005           -9.102687
| 42>   O                    : -1.132023            -9.083415            -9.327182
| 43>   H                    : -1.163365            -8.582984            -8.526550
| 44>   H                    : -2.603047            -10.197544           -8.616572
| 45>   H                    : -1.761198            -10.908630           -10.061052
| 46>   H                    : -0.896033            -10.918688           -8.564937
| 47> *
| 48>
| 49> #Run DFT-D3 single point of the particle with dimer basis set
| 50> $new_job
| 51> %base "10-212_DFT_B"
| 52> ! wB97X-D3 def2-TZVP TIGHTSCF CHELPG PMODEL
| 53>
| 54> %scf
| 55> MaxIter 1000
| 56> end
| 57>
| 58> * xyz 0 1
| 59>   C                    : 1.367923             -6.330460            -10.176826
| 60>   O                    : 0.599920             -7.321826            -10.790082
| 61>   H                    : -0.023357            -7.777559            -10.239975
| 62>   H                    : 2.408693             -6.273177            -10.548830
| 63>   H                    : 1.022412             -5.304323            -10.160422
| 64>   H                    : 1.565223             -6.564865            -9.102206
| 65>   C                      -1.628526            -10.375005           -9.102687
| 66>   O                      -1.132023            -9.083415            -9.327182
| 67>   H                      -1.163365            -8.582984            -8.526550
| 68>   H                      -2.603047            -10.197544           -8.616572
| 69>   H                      -1.761198            -10.908630           -10.061052
| 70>   H                      -0.896033            -10.918688           -8.564937
| 71> *
| 72>
| 73>                          ****END OF INPUT****
 Total Charge           Charge          ....    0
 Multiplicity           Mult            ....    1
 Number of Electrons    NEL             ....   36
Dispersion correction           -0.001425652
FINAL SINGLE POINT ENERGY      -231.467573217777
Dispersion correction           -0.000277199
FINAL SINGLE POINT ENERGY      -115.730019649499

CARTESIAN COORDINATES (ANGSTROEM)
---------------------------------
  C      1.367923   -6.330460  -10.176826
  O      0.599920   -7.321826  -10.790082
  H     -0.023357   -7.777559  -10.239975
  H      2.408693   -6.273177  -10.548830
  H      1.022412   -5.304323  -10.160422
  H      1.565223   -6.564865   -9.102206
  C     -1.628526  -10.375005   -9.102687
  O     -1.132023   -9.083415   -9.327182
  H     -1.163365   -8.582984   -8.526550
  H     -2.603047  -10.197544   -8.616572
  H     -1.761198  -10.908630  -10.061052
  H     -0.896033  -10.918688   -8.564937

 Multiplicity           Mult            ....    1
 Number of Electrons    NEL             ....   18
 Basis Dimension        Dim             ....  172

ORBITAL ENERGIES
----------------

  NO   OCC          E(Eh)            E(eV)
   0   2.0000     -19.222303      -523.0655
   1   2.0000     -10.310536      -280.5640
   2   2.0000      -1.140203       -31.0265
   3   2.0000      -0.796268       -21.6675
   4   2.0000      -0.606674       -16.5084
   5   2.0000      -0.559584       -15.2271
   6   2.0000      -0.530653       -14.4398
   7   2.0000      -0.422690       -11.5020
   8   2.0000      -0.371413       -10.1067
   9   0.0000       0.094091         2.5603
  10   0.0000       0.123307         3.3553
  11   0.0000       0.159818         4.3489
  12   0.0000       0.190856         5.1935
  13   0.0000       0.200075         5.4443

MULLIKEN ATOMIC CHARGES
-----------------------
   0 C :    0.001361
   1 O :    0.001525
   2 H :   -0.015250
   3 H :   -0.000045
   4 H :   -0.000112
   5 H :   -0.001075
   6 C :   -0.148708
   7 O :   -0.474169
   8 H :    0.314992
   9 H :    0.100460
  10 H :    0.116344
  11 H :    0.104677
Sum of atomic charges:    0.0000000

LOEWDIN ATOMIC CHARGES
----------------------
   0 C :   -0.001141
   1 O :   -0.005973
   2 H :   -0.042524
   3 H :   -0.000009
   4 H :   -0.000016
   5 H :   -0.000357
   6 C :   -0.380980
   7 O :   -0.032029
   8 H :    0.160752
   9 H :    0.102565
  10 H :    0.111308
  11 H :    0.088402

  Mayer bond orders larger than 0.1
B(  6-C ,  7-O ) :   0.9790 B(  6-C ,  9-H ) :   0.9852 B(  6-C , 10-H ) :   0.9756
B(  6-C , 11-H ) :   0.9771 B(  7-O ,  8-H ) :   0.8959

Dispersion correction           -0.000209502
FINAL SINGLE POINT ENERGY      -115.731613635791

DIPOLE MOMENT
-------------
                                X             Y             Z
Electronic contribution:      0.63102       1.46893      -0.34786
Nuclear contribution   :     -0.85251      -1.67931       0.94491
                        -----------------------------------------
Total Dipole Moment    :     -0.22150      -0.21039       0.59705
                        -----------------------------------------
Magnitude (a.u.)       :      0.67067
Magnitude (Debye)      :      1.70470

Rotational constants in cm-1:     4.255108     0.854519     0.828307
Rotational constants in MHz : 127564.936768 25617.845442 24832.004947

                             ****ORCA TERMINATED NORMALLY****
TOTAL RUN TIME: 0 days 0 hours 1 minutes 5 seconds 197 msec
