                         Program Version 4.1.2  - RELEASE  -
|  1> #Run DFT-D3 single point of the dimer
|  2> ! wB97X-D3 def2-TZVP TIGHTSCF CHELPG PMODEL PAL8
|  3>
|  4> %base "15-178_DFT_AB"
|  5>
|  6> %scf
|  7> MaxIter 1000
|  8> end
|  9>
| 10> * xyz 0 1
| 11>   C                      4.455608             -11.126271           -8.418548
| 12>   O                      4.524287             -9.968063            -7.603554
| 13>   H                      5.473500             -9.705386            -7.684851
| 14>   H                      4.463304             -10.877644           -9.503529
| 15>   H                      5.219588             -11.831956           -8.257477
| 16>   H                      3.472252             -11.506724           -8.212606
| 17>   C                      2.757700             -6.980673            -8.181021
| 18>   O                      2.189377             -8.202132            -7.664982
| 19>   H                      2.983104             -8.758184            -7.725552
| 20>   H                      1.987597             -6.160948            -8.253499
| 21>   H                      3.640232             -6.587683            -7.735363
| 22>   H                      3.130045             -7.106031            -9.263096
| 23> *
| 24>
| 25> #Run DFT-D3 single point of the molecule with dimer basis set
| 26> $new_job
| 27> %base "15-178_DFT_A"
| 28> ! wB97X-D3 def2-TZVP TIGHTSCF CHELPG PMODEL
| 29>
| 30> %scf
| 31> MaxIter 1000
| 32> end
| 33>
| 34> * xyz 0 1
| 35>   C                      4.455608             -11.126271           -8.418548
| 36>   O                      4.524287             -9.968063            -7.603554
| 37>   H                      5.473500             -9.705386            -7.684851
| 38>   H                      4.463304             -10.877644           -9.503529
| 39>   H                      5.219588             -11.831956           -8.257477
| 40>   H                      3.472252             -11.506724           -8.212606
| 41>   C                    : 2.757700             -6.980673            -8.181021
| 42>   O                    : 2.189377             -8.202132            -7.664982
| 43>   H                    : 2.983104             -8.758184            -7.725552
| 44>   H                    : 1.987597             -6.160948            -8.253499
| 45>   H                    : 3.640232             -6.587683            -7.735363
| 46>   H                    : 3.130045             -7.106031            -9.263096
| 47> *
| 48>
| 49> #Run DFT-D3 single point of the particle with dimer basis set
| 50> $new_job
| 51> %base "15-178_DFT_B"
| 52> ! wB97X-D3 def2-TZVP TIGHTSCF CHELPG PMODEL
| 53>
| 54> %scf
| 55> MaxIter 1000
| 56> end
| 57>
| 58> * xyz 0 1
| 59>   C                    : 4.455608             -11.126271           -8.418548
| 60>   O                    : 4.524287             -9.968063            -7.603554
| 61>   H                    : 5.473500             -9.705386            -7.684851
| 62>   H                    : 4.463304             -10.877644           -9.503529
| 63>   H                    : 5.219588             -11.831956           -8.257477
| 64>   H                    : 3.472252             -11.506724           -8.212606
| 65>   C                      2.757700             -6.980673            -8.181021
| 66>   O                      2.189377             -8.202132            -7.664982
| 67>   H                      2.983104             -8.758184            -7.725552
| 68>   H                      1.987597             -6.160948            -8.253499
| 69>   H                      3.640232             -6.587683            -7.735363
| 70>   H                      3.130045             -7.106031            -9.263096
| 71> *
| 72>
| 73>                          ****END OF INPUT****
 Total Charge           Charge          ....    0
 Multiplicity           Mult            ....    1
 Number of Electrons    NEL             ....   36
Dispersion correction           -0.001777449
FINAL SINGLE POINT ENERGY      -231.468848884647
Dispersion correction           -0.000226750
FINAL SINGLE POINT ENERGY      -115.733120056334

CARTESIAN COORDINATES (ANGSTROEM)
---------------------------------
  C      4.455608  -11.126271   -8.418548
  O      4.524287   -9.968063   -7.603554
  H      5.473500   -9.705386   -7.684851
  H      4.463304  -10.877644   -9.503529
  H      5.219588  -11.831956   -8.257477
  H      3.472252  -11.506724   -8.212606
  C      2.757700   -6.980673   -8.181021
  O      2.189377   -8.202132   -7.664982
  H      2.983104   -8.758184   -7.725552
  H      1.987597   -6.160948   -8.253499
  H      3.640232   -6.587683   -7.735363
  H      3.130045   -7.106031   -9.263096

 Multiplicity           Mult            ....    1
 Number of Electrons    NEL             ....   18
 Basis Dimension        Dim             ....  172

ORBITAL ENERGIES
----------------

  NO   OCC          E(Eh)            E(eV)
   0   2.0000     -19.242003      -523.6015
   1   2.0000     -10.322822      -280.8983
   2   2.0000      -1.136199       -30.9175
   3   2.0000      -0.791653       -21.5420
   4   2.0000      -0.610499       -16.6125
   5   2.0000      -0.527347       -14.3498
   6   2.0000      -0.521720       -14.1967
   7   2.0000      -0.450868       -12.2687
   8   2.0000      -0.375820       -10.2266
   9   0.0000       0.067367         1.8332
  10   0.0000       0.128966         3.5093
  11   0.0000       0.148324         4.0361
  12   0.0000       0.162066         4.4100
  13   0.0000       0.188955         5.1417

MULLIKEN ATOMIC CHARGES
-----------------------
   0 C :   -0.003391
   1 O :   -0.002223
   2 H :    0.000010
   3 H :    0.000179
   4 H :   -0.000080
   5 H :    0.000279
   6 C :   -0.201115
   7 O :   -0.447687
   8 H :    0.314888
   9 H :    0.124569
  10 H :    0.116995
  11 H :    0.097575
Sum of atomic charges:    0.0000000

LOEWDIN ATOMIC CHARGES
----------------------
   0 C :   -0.004482
   1 O :   -0.018287
   2 H :   -0.000872
   3 H :   -0.000190
   4 H :   -0.000112
   5 H :   -0.000563
   6 C :   -0.388344
   7 O :   -0.081492
   8 H :    0.188784
   9 H :    0.114865
  10 H :    0.087529
  11 H :    0.103164

  Mayer bond orders larger than 0.1
B(  6-C ,  7-O ) :   0.9998 B(  6-C ,  9-H ) :   0.9746 B(  6-C , 10-H ) :   0.9642
B(  6-C , 11-H ) :   0.9757 B(  7-O ,  8-H ) :   0.9096

Dispersion correction           -0.000255397
FINAL SINGLE POINT ENERGY      -115.727298790686

DIPOLE MOMENT
-------------
                                X             Y             Z
Electronic contribution:     -0.93761      -1.57335       0.94859
Nuclear contribution   :      1.64280       1.71401      -1.17084
                        -----------------------------------------
Total Dipole Moment    :      0.70519       0.14066      -0.22225
                        -----------------------------------------
Magnitude (a.u.)       :      0.75265
Magnitude (Debye)      :      1.91308

Rotational constants in cm-1:     4.226242     0.802923     0.763595
Rotational constants in MHz : 126699.561508 24071.011248 22892.008944

                             ****ORCA TERMINATED NORMALLY****
TOTAL RUN TIME: 0 days 0 hours 1 minutes 5 seconds 872 msec
