                         Program Version 4.1.2  - RELEASE  -
|  1> #Run DFT-D3 single point of the dimer
|  2> ! wB97X-D3 def2-TZVP TIGHTSCF CHELPG PMODEL PAL8
|  3>
|  4> %base "4-177_DFT_AB"
|  5>
|  6> %scf
|  7> MaxIter 1000
|  8> end
|  9>
| 10> * xyz 0 1
| 11>   C                      9.897088             -6.106647            -1.344404
| 12>   O                      8.894205             -6.210218            -0.357511
| 13>   H                      8.365926             -5.424265            -0.546781
| 14>   H                      9.837343             -6.958201            -2.012444
| 15>   H                      9.795360             -5.159881            -1.911323
| 16>   H                      10.927268            -6.047717            -0.936030
| 17>   C                      4.888690             -4.280673            -0.142843
| 18>   O                      5.918625             -5.159940            -0.551634
| 19>   H                      6.279421             -5.554795            0.254138
| 20>   H                      3.938232             -4.705192            -0.474654
| 21>   H                      4.930186             -4.239766            0.953528
| 22>   H                      5.005893             -3.193100            -0.442598
| 23> *
| 24>
| 25> #Run DFT-D3 single point of the molecule with dimer basis set
| 26> $new_job
| 27> %base "4-177_DFT_A"
| 28> ! wB97X-D3 def2-TZVP TIGHTSCF CHELPG PMODEL
| 29>
| 30> %scf
| 31> MaxIter 1000
| 32> end
| 33>
| 34> * xyz 0 1
| 35>   C                      9.897088             -6.106647            -1.344404
| 36>   O                      8.894205             -6.210218            -0.357511
| 37>   H                      8.365926             -5.424265            -0.546781
| 38>   H                      9.837343             -6.958201            -2.012444
| 39>   H                      9.795360             -5.159881            -1.911323
| 40>   H                      10.927268            -6.047717            -0.936030
| 41>   C                    : 4.888690             -4.280673            -0.142843
| 42>   O                    : 5.918625             -5.159940            -0.551634
| 43>   H                    : 6.279421             -5.554795            0.254138
| 44>   H                    : 3.938232             -4.705192            -0.474654
| 45>   H                    : 4.930186             -4.239766            0.953528
| 46>   H                    : 5.005893             -3.193100            -0.442598
| 47> *
| 48>
| 49> #Run DFT-D3 single point of the particle with dimer basis set
| 50> $new_job
| 51> %base "4-177_DFT_B"
| 52> ! wB97X-D3 def2-TZVP TIGHTSCF CHELPG PMODEL
| 53>
| 54> %scf
| 55> MaxIter 1000
| 56> end
| 57>
| 58> * xyz 0 1
| 59>   C                    : 9.897088             -6.106647            -1.344404
| 60>   O                    : 8.894205             -6.210218            -0.357511
| 61>   H                    : 8.365926             -5.424265            -0.546781
| 62>   H                    : 9.837343             -6.958201            -2.012444
| 63>   H                    : 9.795360             -5.159881            -1.911323
| 64>   H                    : 10.927268            -6.047717            -0.936030
| 65>   C                      4.888690             -4.280673            -0.142843
| 66>   O                      5.918625             -5.159940            -0.551634
| 67>   H                      6.279421             -5.554795            0.254138
| 68>   H                      3.938232             -4.705192            -0.474654
| 69>   H                      4.930186             -4.239766            0.953528
| 70>   H                      5.005893             -3.193100            -0.442598
| 71> *
| 72>
| 73>                          ****END OF INPUT****
 Total Charge           Charge          ....    0
 Multiplicity           Mult            ....    1
 Number of Electrons    NEL             ....   36
Dispersion correction           -0.001312096
FINAL SINGLE POINT ENERGY      -231.468677443207
Dispersion correction           -0.000237367
FINAL SINGLE POINT ENERGY      -115.732968436167

CARTESIAN COORDINATES (ANGSTROEM)
---------------------------------
  C      9.897088   -6.106647   -1.344404
  O      8.894205   -6.210218   -0.357511
  H      8.365926   -5.424265   -0.546781
  H      9.837343   -6.958201   -2.012444
  H      9.795360   -5.159881   -1.911323
  H     10.927268   -6.047717   -0.936030
  C      4.888690   -4.280673   -0.142843
  O      5.918625   -5.159940   -0.551634
  H      6.279421   -5.554795    0.254138
  H      3.938232   -4.705192   -0.474654
  H      4.930186   -4.239766    0.953528
  H      5.005893   -3.193100   -0.442598

 Multiplicity           Mult            ....    1
 Number of Electrons    NEL             ....   18
 Basis Dimension        Dim             ....  172

ORBITAL ENERGIES
----------------

  NO   OCC          E(Eh)            E(eV)
   0   2.0000     -19.231031      -523.3030
   1   2.0000     -10.318977      -280.7936
   2   2.0000      -1.136841       -30.9350
   3   2.0000      -0.790194       -21.5023
   4   2.0000      -0.611799       -16.6479
   5   2.0000      -0.543942       -14.8014
   6   2.0000      -0.526613       -14.3299
   7   2.0000      -0.427620       -11.6361
   8   2.0000      -0.375236       -10.2107
   9   0.0000       0.091648         2.4939
  10   0.0000       0.115634         3.1466
  11   0.0000       0.150624         4.0987
  12   0.0000       0.189169         5.1476
  13   0.0000       0.198491         5.4012

MULLIKEN ATOMIC CHARGES
-----------------------
   0 C :    0.001375
   1 O :    0.001249
   2 H :   -0.013651
   3 H :    0.000026
   4 H :   -0.000391
   5 H :   -0.000055
   6 C :   -0.168272
   7 O :   -0.462414
   8 H :    0.322913
   9 H :    0.109582
  10 H :    0.100308
  11 H :    0.109331
Sum of atomic charges:    0.0000000

LOEWDIN ATOMIC CHARGES
----------------------
   0 C :   -0.000457
   1 O :   -0.002447
   2 H :   -0.014800
   3 H :   -0.000006
   4 H :   -0.000084
   5 H :   -0.000007
   6 C :   -0.388899
   7 O :   -0.074103
   8 H :    0.177768
   9 H :    0.099324
  10 H :    0.096418
  11 H :    0.107293

  Mayer bond orders larger than 0.1
B(  6-C ,  7-O ) :   1.0089 B(  6-C ,  9-H ) :   0.9742 B(  6-C , 10-H ) :   0.9938
B(  6-C , 11-H ) :   0.9664 B(  7-O ,  8-H ) :   0.8948

Dispersion correction           -0.000243808
FINAL SINGLE POINT ENERGY      -115.731454880263

DIPOLE MOMENT
-------------
                                X             Y             Z
Electronic contribution:      1.25118      -1.08598      -0.76240
Nuclear contribution   :     -1.43129       1.17370       1.46932
                        -----------------------------------------
Total Dipole Moment    :     -0.18011       0.08772       0.70693
                        -----------------------------------------
Magnitude (a.u.)       :      0.73476
Magnitude (Debye)      :      1.86762

Rotational constants in cm-1:     4.181385     0.828066     0.804450
Rotational constants in MHz : 125354.782100 24824.807418 24116.792239

                             ****ORCA TERMINATED NORMALLY****
TOTAL RUN TIME: 0 days 0 hours 1 minutes 31 seconds 746 msec
