                         Program Version 4.1.2  - RELEASE  -
|  1> #Run DFT-D3 single point of the dimer
|  2> ! wB97X-D3 def2-TZVP TIGHTSCF CHELPG PMODEL PAL8
|  3>
|  4> %base "8-207_DFT_AB"
|  5>
|  6> %scf
|  7> MaxIter 1000
|  8> end
|  9>
| 10> * xyz 0 1
| 11>   C                      -3.435710            10.324235            1.939552
| 12>   O                      -3.963342            9.668011             0.767450
| 13>   H                      -3.207545            9.471691             0.170943
| 14>   H                      -3.833382            9.944569             2.858912
| 15>   H                      -2.375822            10.071224            2.080466
| 16>   H                      -3.681451            11.376608            2.054490
| 17>   C                      -5.698905            6.472710             -0.050581
| 18>   O                      -6.167140            7.758519             -0.349432
| 19>   H                      -5.604538            8.434394             0.014177
| 20>   H                      -5.887236            6.185308             0.984061
| 21>   H                      -6.249780            5.744899             -0.681023
| 22>   H                      -4.697418            6.409595             -0.437304
| 23> *
| 24>
| 25> #Run DFT-D3 single point of the molecule with dimer basis set
| 26> $new_job
| 27> %base "8-207_DFT_A"
| 28> ! wB97X-D3 def2-TZVP TIGHTSCF CHELPG PMODEL
| 29>
| 30> %scf
| 31> MaxIter 1000
| 32> end
| 33>
| 34> * xyz 0 1
| 35>   C                      -3.435710            10.324235            1.939552
| 36>   O                      -3.963342            9.668011             0.767450
| 37>   H                      -3.207545            9.471691             0.170943
| 38>   H                      -3.833382            9.944569             2.858912
| 39>   H                      -2.375822            10.071224            2.080466
| 40>   H                      -3.681451            11.376608            2.054490
| 41>   C                    : -5.698905            6.472710             -0.050581
| 42>   O                    : -6.167140            7.758519             -0.349432
| 43>   H                    : -5.604538            8.434394             0.014177
| 44>   H                    : -5.887236            6.185308             0.984061
| 45>   H                    : -6.249780            5.744899             -0.681023
| 46>   H                    : -4.697418            6.409595             -0.437304
| 47> *
| 48>
| 49> #Run DFT-D3 single point of the particle with dimer basis set
| 50> $new_job
| 51> %base "8-207_DFT_B"
| 52> ! wB97X-D3 def2-TZVP TIGHTSCF CHELPG PMODEL
| 53>
| 54> %scf
| 55> MaxIter 1000
| 56> end
| 57>
| 58> * xyz 0 1
| 59>   C                    : -3.435710            10.324235            1.939552
| 60>   O                    : -3.963342            9.668011             0.767450
| 61>   H                    : -3.207545            9.471691             0.170943
| 62>   H                    : -3.833382            9.944569             2.858912
| 63>   H                    : -2.375822            10.071224            2.080466
| 64>   H                    : -3.681451            11.376608            2.054490
| 65>   C                      -5.698905            6.472710             -0.050581
| 66>   O                      -6.167140            7.758519             -0.349432
| 67>   H                      -5.604538            8.434394             0.014177
| 68>   H                      -5.887236            6.185308             0.984061
| 69>   H                      -6.249780            5.744899             -0.681023
| 70>   H                      -4.697418            6.409595             -0.437304
| 71> *
| 72>
| 73>                          ****END OF INPUT****
 Total Charge           Charge          ....    0
 Multiplicity           Mult            ....    1
 Number of Electrons    NEL             ....   36
Dispersion correction           -0.001494257
FINAL SINGLE POINT ENERGY      -231.469143672532
Dispersion correction           -0.000271323
FINAL SINGLE POINT ENERGY      -115.728829389291

CARTESIAN COORDINATES (ANGSTROEM)
---------------------------------
  C     -3.435710   10.324235    1.939552
  O     -3.963342    9.668011    0.767450
  H     -3.207545    9.471691    0.170943
  H     -3.833382    9.944569    2.858912
  H     -2.375822   10.071224    2.080466
  H     -3.681451   11.376608    2.054490
  C     -5.698905    6.472710   -0.050581
  O     -6.167140    7.758519   -0.349432
  H     -5.604538    8.434394    0.014177
  H     -5.887236    6.185308    0.984061
  H     -6.249780    5.744899   -0.681023
  H     -4.697418    6.409595   -0.437304

 Multiplicity           Mult            ....    1
 Number of Electrons    NEL             ....   18
 Basis Dimension        Dim             ....  172

ORBITAL ENERGIES
----------------

  NO   OCC          E(Eh)            E(eV)
   0   2.0000     -19.225151      -523.1430
   1   2.0000     -10.310655      -280.5672
   2   2.0000      -1.138197       -30.9719
   3   2.0000      -0.797412       -21.6987
   4   2.0000      -0.608123       -16.5479
   5   2.0000      -0.558127       -15.1874
   6   2.0000      -0.525641       -14.3034
   7   2.0000      -0.418604       -11.3908
   8   2.0000      -0.375393       -10.2150
   9   0.0000       0.071390         1.9426
  10   0.0000       0.125837         3.4242
  11   0.0000       0.153718         4.1829
  12   0.0000       0.166983         4.5438
  13   0.0000       0.193822         5.2742

MULLIKEN ATOMIC CHARGES
-----------------------
   0 C :   -0.000789
   1 O :   -0.002730
   2 H :   -0.000549
   3 H :    0.000001
   4 H :    0.000009
   5 H :    0.000058
   6 C :   -0.145427
   7 O :   -0.480761
   8 H :    0.312792
   9 H :    0.101334
  10 H :    0.110286
  11 H :    0.105775
Sum of atomic charges:   -0.0000000

LOEWDIN ATOMIC CHARGES
----------------------
   0 C :   -0.000957
   1 O :   -0.011110
   2 H :   -0.001250
   3 H :   -0.000056
   4 H :   -0.000020
   5 H :   -0.000018
   6 C :   -0.391126
   7 O :   -0.062146
   8 H :    0.164648
   9 H :    0.094871
  10 H :    0.112109
  11 H :    0.095053

  Mayer bond orders larger than 0.1
B(  6-C ,  7-O ) :   0.9886 B(  6-C ,  9-H ) :   0.9731 B(  6-C , 10-H ) :   0.9738
B(  6-C , 11-H ) :   0.9847 B(  7-O ,  8-H ) :   0.9069

Dispersion correction           -0.000234944
FINAL SINGLE POINT ENERGY      -115.733304113370

DIPOLE MOMENT
-------------
                                X             Y             Z
Electronic contribution:     -0.61911       1.58516      -0.29619
Nuclear contribution   :      1.16623      -1.67575       0.62517
                        -----------------------------------------
Total Dipole Moment    :      0.54712      -0.09059       0.32898
                        -----------------------------------------
Magnitude (a.u.)       :      0.64481
Magnitude (Debye)      :      1.63897

Rotational constants in cm-1:     4.330138     0.838544     0.823596
Rotational constants in MHz : 129814.284684 25138.909484 24690.791745

                             ****ORCA TERMINATED NORMALLY****
TOTAL RUN TIME: 0 days 0 hours 0 minutes 45 seconds 134 msec
