                         Program Version 4.1.2  - RELEASE  -
|  1> #Run DFT-D3 single point of the dimer
|  2> ! wB97X-D3 def2-TZVP TIGHTSCF CHELPG PMODEL PAL8
|  3>
|  4> %base "17-60_DFT_AB"
|  5>
|  6> %scf
|  7> MaxIter 1000
|  8> end
|  9>
| 10> * xyz 0 1
| 11>   C                      -8.719428            -0.806688            2.256153
| 12>   O                      -10.041191           -1.234781            2.494380
| 13>   H                      -10.144787           -1.521010            3.361301
| 14>   H                      -8.220031            -0.383521            3.209562
| 15>   H                      -8.128405            -1.587988            1.732554
| 16>   H                      -8.726105            0.059084             1.528395
| 17>   C                      -8.534168            3.696952             1.856179
| 18>   O                      -7.577338            2.626221             1.875263
| 19>   H                      -6.930689            2.746772             1.202161
| 20>   H                      -9.595451            3.480452             2.208527
| 21>   H                      -8.258490            4.538307             2.495209
| 22>   H                      -8.667133            4.095393             0.883659
| 23> *
| 24>
| 25> #Run DFT-D3 single point of the molecule with dimer basis set
| 26> $new_job
| 27> %base "17-60_DFT_A"
| 28> ! wB97X-D3 def2-TZVP TIGHTSCF CHELPG PMODEL
| 29>
| 30> %scf
| 31> MaxIter 1000
| 32> end
| 33>
| 34> * xyz 0 1
| 35>   C                      -8.719428            -0.806688            2.256153
| 36>   O                      -10.041191           -1.234781            2.494380
| 37>   H                      -10.144787           -1.521010            3.361301
| 38>   H                      -8.220031            -0.383521            3.209562
| 39>   H                      -8.128405            -1.587988            1.732554
| 40>   H                      -8.726105            0.059084             1.528395
| 41>   C                    : -8.534168            3.696952             1.856179
| 42>   O                    : -7.577338            2.626221             1.875263
| 43>   H                    : -6.930689            2.746772             1.202161
| 44>   H                    : -9.595451            3.480452             2.208527
| 45>   H                    : -8.258490            4.538307             2.495209
| 46>   H                    : -8.667133            4.095393             0.883659
| 47> *
| 48>
| 49> #Run DFT-D3 single point of the particle with dimer basis set
| 50> $new_job
| 51> %base "17-60_DFT_B"
| 52> ! wB97X-D3 def2-TZVP TIGHTSCF CHELPG PMODEL
| 53>
| 54> %scf
| 55> MaxIter 1000
| 56> end
| 57>
| 58> * xyz 0 1
| 59>   C                    : -8.719428            -0.806688            2.256153
| 60>   O                    : -10.041191           -1.234781            2.494380
| 61>   H                    : -10.144787           -1.521010            3.361301
| 62>   H                    : -8.220031            -0.383521            3.209562
| 63>   H                    : -8.128405            -1.587988            1.732554
| 64>   H                    : -8.726105            0.059084             1.528395
| 65>   C                      -8.534168            3.696952             1.856179
| 66>   O                      -7.577338            2.626221             1.875263
| 67>   H                      -6.930689            2.746772             1.202161
| 68>   H                      -9.595451            3.480452             2.208527
| 69>   H                      -8.258490            4.538307             2.495209
| 70>   H                      -8.667133            4.095393             0.883659
| 71> *
| 72>
| 73>                          ****END OF INPUT****
 Total Charge           Charge          ....    0
 Multiplicity           Mult            ....    1
 Number of Electrons    NEL             ....   36
Dispersion correction           -0.001414229
FINAL SINGLE POINT ENERGY      -231.461453702951
Dispersion correction           -0.000267392
FINAL SINGLE POINT ENERGY      -115.730474228944

CARTESIAN COORDINATES (ANGSTROEM)
---------------------------------
  C     -8.719428   -0.806688    2.256153
  O    -10.041191   -1.234781    2.494380
  H    -10.144787   -1.521010    3.361301
  H     -8.220031   -0.383521    3.209562
  H     -8.128405   -1.587988    1.732554
  H     -8.726105    0.059084    1.528395
  C     -8.534168    3.696952    1.856179
  O     -7.577338    2.626221    1.875263
  H     -6.930689    2.746772    1.202161
  H     -9.595451    3.480452    2.208527
  H     -8.258490    4.538307    2.495209
  H     -8.667133    4.095393    0.883659

 Multiplicity           Mult            ....    1
 Number of Electrons    NEL             ....   18
 Basis Dimension        Dim             ....  172

ORBITAL ENERGIES
----------------

  NO   OCC          E(Eh)            E(eV)
   0   2.0000     -19.232208      -523.3350
   1   2.0000     -10.317000      -280.7398
   2   2.0000      -1.133805       -30.8524
   3   2.0000      -0.801718       -21.8159
   4   2.0000      -0.615715       -16.7545
   5   2.0000      -0.537503       -14.6262
   6   2.0000      -0.524230       -14.2650
   7   2.0000      -0.431331       -11.7371
   8   2.0000      -0.376522       -10.2457
   9   0.0000       0.097772         2.6605
  10   0.0000       0.122004         3.3199
  11   0.0000       0.144248         3.9252
  12   0.0000       0.181615         4.9420
  13   0.0000       0.194945         5.3047

MULLIKEN ATOMIC CHARGES
-----------------------
   0 C :    0.004578
   1 O :   -0.000085
   2 H :   -0.000010
   3 H :   -0.001991
   4 H :   -0.000389
   5 H :   -0.008828
   6 C :   -0.177734
   7 O :   -0.468173
   8 H :    0.315075
   9 H :    0.117386
  10 H :    0.109022
  11 H :    0.111149
Sum of atomic charges:    0.0000000

LOEWDIN ATOMIC CHARGES
----------------------
   0 C :   -0.004540
   1 O :   -0.000036
   2 H :   -0.000004
   3 H :   -0.001227
   4 H :   -0.000037
   5 H :   -0.006847
   6 C :   -0.374538
   7 O :   -0.070287
   8 H :    0.156647
   9 H :    0.115905
  10 H :    0.096024
  11 H :    0.088939

  Mayer bond orders larger than 0.1
B(  6-C ,  7-O ) :   0.9995 B(  6-C ,  9-H ) :   0.9732 B(  6-C , 10-H ) :   0.9724
B(  6-C , 11-H ) :   0.9809 B(  7-O ,  8-H ) :   0.8994

Dispersion correction           -0.000274917
FINAL SINGLE POINT ENERGY      -115.729418559922

DIPOLE MOMENT
-------------
                                X             Y             Z
Electronic contribution:      1.25129      -1.50941       0.08298
Nuclear contribution   :     -1.22441       2.05831      -0.55623
                        -----------------------------------------
Total Dipole Moment    :      0.02688       0.54890      -0.47325
                        -----------------------------------------
Magnitude (a.u.)       :      0.72524
Magnitude (Debye)      :      1.84343

Rotational constants in cm-1:     4.572553     0.791222     0.766165
Rotational constants in MHz : 137081.694470 23720.252570 22969.040607

                             ****ORCA TERMINATED NORMALLY****
TOTAL RUN TIME: 0 days 0 hours 1 minutes 10 seconds 746 msec
