                         Program Version 4.1.2  - RELEASE  -
|  1> #Run DFT-D3 single point of the dimer
|  2> ! wB97X-D3 def2-TZVP TIGHTSCF CHELPG PMODEL PAL8
|  3>
|  4> %base "15-83_DFT_AB"
|  5>
|  6> %scf
|  7> MaxIter 1000
|  8> end
|  9>
| 10> * xyz 0 1
| 11>   C                      3.160590             5.904719             1.409526
| 12>   O                      1.952229             6.513314             1.905539
| 13>   H                      2.203480             7.011722             2.707374
| 14>   H                      3.131705             5.037513             0.685736
| 15>   H                      3.800379             6.728786             1.090960
| 16>   H                      3.782874             5.542182             2.299754
| 17>   C                      5.256442             3.173701             4.330914
| 18>   O                      5.647779             3.333847             5.672779
| 19>   H                      4.899699             3.045901             6.165063
| 20>   H                      5.243303             4.136426             3.826357
| 21>   H                      5.965825             2.565790             3.787552
| 22>   H                      4.380051             2.629932             4.138270
| 23> *
| 24>
| 25> #Run DFT-D3 single point of the molecule with dimer basis set
| 26> $new_job
| 27> %base "15-83_DFT_A"
| 28> ! wB97X-D3 def2-TZVP TIGHTSCF CHELPG PMODEL
| 29>
| 30> %scf
| 31> MaxIter 1000
| 32> end
| 33>
| 34> * xyz 0 1
| 35>   C                      3.160590             5.904719             1.409526
| 36>   O                      1.952229             6.513314             1.905539
| 37>   H                      2.203480             7.011722             2.707374
| 38>   H                      3.131705             5.037513             0.685736
| 39>   H                      3.800379             6.728786             1.090960
| 40>   H                      3.782874             5.542182             2.299754
| 41>   C                    : 5.256442             3.173701             4.330914
| 42>   O                    : 5.647779             3.333847             5.672779
| 43>   H                    : 4.899699             3.045901             6.165063
| 44>   H                    : 5.243303             4.136426             3.826357
| 45>   H                    : 5.965825             2.565790             3.787552
| 46>   H                    : 4.380051             2.629932             4.138270
| 47> *
| 48>
| 49> #Run DFT-D3 single point of the particle with dimer basis set
| 50> $new_job
| 51> %base "15-83_DFT_B"
| 52> ! wB97X-D3 def2-TZVP TIGHTSCF CHELPG PMODEL
| 53>
| 54> %scf
| 55> MaxIter 1000
| 56> end
| 57>
| 58> * xyz 0 1
| 59>   C                    : 3.160590             5.904719             1.409526
| 60>   O                    : 1.952229             6.513314             1.905539
| 61>   H                    : 2.203480             7.011722             2.707374
| 62>   H                    : 3.131705             5.037513             0.685736
| 63>   H                    : 3.800379             6.728786             1.090960
| 64>   H                    : 3.782874             5.542182             2.299754
| 65>   C                      5.256442             3.173701             4.330914
| 66>   O                      5.647779             3.333847             5.672779
| 67>   H                      4.899699             3.045901             6.165063
| 68>   H                      5.243303             4.136426             3.826357
| 69>   H                      5.965825             2.565790             3.787552
| 70>   H                      4.380051             2.629932             4.138270
| 71> *
| 72>
| 73>                          ****END OF INPUT****
 Total Charge           Charge          ....    0
 Multiplicity           Mult            ....    1
 Number of Electrons    NEL             ....   36
Dispersion correction           -0.001070013
FINAL SINGLE POINT ENERGY      -231.454837222395
Dispersion correction           -0.000248475
FINAL SINGLE POINT ENERGY      -115.723602922210

CARTESIAN COORDINATES (ANGSTROEM)
---------------------------------
  C      3.160590    5.904719    1.409526
  O      1.952229    6.513314    1.905539
  H      2.203480    7.011722    2.707374
  H      3.131705    5.037513    0.685736
  H      3.800379    6.728786    1.090960
  H      3.782874    5.542182    2.299754
  C      5.256442    3.173701    4.330914
  O      5.647779    3.333847    5.672779
  H      4.899699    3.045901    6.165063
  H      5.243303    4.136426    3.826357
  H      5.965825    2.565790    3.787552
  H      4.380051    2.629932    4.138270

 Multiplicity           Mult            ....    1
 Number of Electrons    NEL             ....   18
 Basis Dimension        Dim             ....  172

ORBITAL ENERGIES
----------------

  NO   OCC          E(Eh)            E(eV)
   0   2.0000     -19.230660      -523.2929
   1   2.0000     -10.304342      -280.3954
   2   2.0000      -1.145180       -31.1619
   3   2.0000      -0.802540       -21.8382
   4   2.0000      -0.621187       -16.9034
   5   2.0000      -0.541839       -14.7442
   6   2.0000      -0.525775       -14.3071
   7   2.0000      -0.442734       -12.0474
   8   2.0000      -0.373786       -10.1712
   9   0.0000       0.084935         2.3112
  10   0.0000       0.119302         3.2464
  11   0.0000       0.150565         4.0971
  12   0.0000       0.167604         4.5607
  13   0.0000       0.185202         5.0396

MULLIKEN ATOMIC CHARGES
-----------------------
   0 C :    0.001567
   1 O :   -0.000033
   2 H :   -0.000030
   3 H :    0.000005
   4 H :   -0.000164
   5 H :   -0.003784
   6 C :   -0.178381
   7 O :   -0.458866
   8 H :    0.312666
   9 H :    0.114366
  10 H :    0.100823
  11 H :    0.111831
Sum of atomic charges:    0.0000000

LOEWDIN ATOMIC CHARGES
----------------------
   0 C :   -0.000887
   1 O :   -0.000007
   2 H :   -0.000003
   3 H :   -0.000023
   4 H :   -0.000012
   5 H :   -0.003899
   6 C :   -0.388946
   7 O :   -0.057703
   8 H :    0.160200
   9 H :    0.101931
  10 H :    0.099788
  11 H :    0.089563

  Mayer bond orders larger than 0.1
B(  6-C ,  7-O ) :   1.0171 B(  6-C ,  9-H ) :   0.9813 B(  6-C , 10-H ) :   0.9730
B(  6-C , 11-H ) :   0.9805 B(  7-O ,  8-H ) :   0.9070

Dispersion correction           -0.000239453
FINAL SINGLE POINT ENERGY      -115.730634216084

DIPOLE MOMENT
-------------
                                X             Y             Z
Electronic contribution:      0.52490       0.27796       1.81475
Nuclear contribution   :     -1.17045      -0.55852      -2.01788
                        -----------------------------------------
Total Dipole Moment    :     -0.64554      -0.28057      -0.20314
                        -----------------------------------------
Magnitude (a.u.)       :      0.73260
Magnitude (Debye)      :      1.86213

Rotational constants in cm-1:     4.544483     0.838167     0.810774
Rotational constants in MHz : 136240.182552 25127.614164 24306.390096

                             ****ORCA TERMINATED NORMALLY****
TOTAL RUN TIME: 0 days 0 hours 1 minutes 4 seconds 962 msec
