                         Program Version 4.1.2  - RELEASE  -
|  1> #Run DFT-D3 single point of the dimer
|  2> ! wB97X-D3 def2-TZVP TIGHTSCF CHELPG PMODEL PAL8
|  3>
|  4> %base "12-100_DFT_AB"
|  5>
|  6> %scf
|  7> MaxIter 1000
|  8> end
|  9>
| 10> * xyz 0 1
| 11>   C                      7.069487             6.948817             1.348319
| 12>   O                      6.833436             7.462442             0.067141
| 13>   H                      6.469724             6.786522             -0.512093
| 14>   H                      6.543788             6.020128             1.325691
| 15>   H                      8.106300             6.629288             1.569079
| 16>   H                      6.689718             7.616708             2.082214
| 17>   C                      10.052280            5.452050             -1.503370
| 18>   O                      10.973635            4.329790             -1.606083
| 19>   H                      10.599673            3.696722             -2.185244
| 20>   H                      9.397262             5.643016             -2.412208
| 21>   H                      9.391628             5.350623             -0.707857
| 22>   H                      10.655890            6.370214             -1.350950
| 23> *
| 24>
| 25> #Run DFT-D3 single point of the molecule with dimer basis set
| 26> $new_job
| 27> %base "12-100_DFT_A"
| 28> ! wB97X-D3 def2-TZVP TIGHTSCF CHELPG PMODEL
| 29>
| 30> %scf
| 31> MaxIter 1000
| 32> end
| 33>
| 34> * xyz 0 1
| 35>   C                      7.069487             6.948817             1.348319
| 36>   O                      6.833436             7.462442             0.067141
| 37>   H                      6.469724             6.786522             -0.512093
| 38>   H                      6.543788             6.020128             1.325691
| 39>   H                      8.106300             6.629288             1.569079
| 40>   H                      6.689718             7.616708             2.082214
| 41>   C                    : 10.052280            5.452050             -1.503370
| 42>   O                    : 10.973635            4.329790             -1.606083
| 43>   H                    : 10.599673            3.696722             -2.185244
| 44>   H                    : 9.397262             5.643016             -2.412208
| 45>   H                    : 9.391628             5.350623             -0.707857
| 46>   H                    : 10.655890            6.370214             -1.350950
| 47> *
| 48>
| 49> #Run DFT-D3 single point of the particle with dimer basis set
| 50> $new_job
| 51> %base "12-100_DFT_B"
| 52> ! wB97X-D3 def2-TZVP TIGHTSCF CHELPG PMODEL
| 53>
| 54> %scf
| 55> MaxIter 1000
| 56> end
| 57>
| 58> * xyz 0 1
| 59>   C                    : 7.069487             6.948817             1.348319
| 60>   O                    : 6.833436             7.462442             0.067141
| 61>   H                    : 6.469724             6.786522             -0.512093
| 62>   H                    : 6.543788             6.020128             1.325691
| 63>   H                    : 8.106300             6.629288             1.569079
| 64>   H                    : 6.689718             7.616708             2.082214
| 65>   C                      10.052280            5.452050             -1.503370
| 66>   O                      10.973635            4.329790             -1.606083
| 67>   H                      10.599673            3.696722             -2.185244
| 68>   H                      9.397262             5.643016             -2.412208
| 69>   H                      9.391628             5.350623             -0.707857
| 70>   H                      10.655890            6.370214             -1.350950
| 71> *
| 72>
| 73>                          ****END OF INPUT****
 Total Charge           Charge          ....    0
 Multiplicity           Mult            ....    1
 Number of Electrons    NEL             ....   36
Dispersion correction           -0.001355052
FINAL SINGLE POINT ENERGY      -231.461312915991
Dispersion correction           -0.000230809
FINAL SINGLE POINT ENERGY      -115.729228925566

CARTESIAN COORDINATES (ANGSTROEM)
---------------------------------
  C      7.069487    6.948817    1.348319
  O      6.833436    7.462442    0.067141
  H      6.469724    6.786522   -0.512093
  H      6.543788    6.020128    1.325691
  H      8.106300    6.629288    1.569079
  H      6.689718    7.616708    2.082214
  C     10.052280    5.452050   -1.503370
  O     10.973635    4.329790   -1.606083
  H     10.599673    3.696722   -2.185244
  H      9.397262    5.643016   -2.412208
  H      9.391628    5.350623   -0.707857
  H     10.655890    6.370214   -1.350950

 Multiplicity           Mult            ....    1
 Number of Electrons    NEL             ....   18
 Basis Dimension        Dim             ....  172

ORBITAL ENERGIES
----------------

  NO   OCC          E(Eh)            E(eV)
   0   2.0000     -19.229223      -523.2538
   1   2.0000     -10.316902      -280.7372
   2   2.0000      -1.129149       -30.7257
   3   2.0000      -0.800823       -21.7915
   4   2.0000      -0.608167       -16.5491
   5   2.0000      -0.539813       -14.6891
   6   2.0000      -0.517120       -14.0715
   7   2.0000      -0.437748       -11.9117
   8   2.0000      -0.378053       -10.2874
   9   0.0000       0.082106         2.2342
  10   0.0000       0.118843         3.2339
  11   0.0000       0.146183         3.9778
  12   0.0000       0.168680         4.5900
  13   0.0000       0.185109         5.0371

MULLIKEN ATOMIC CHARGES
-----------------------
   0 C :   -0.000403
   1 O :    0.000042
   2 H :   -0.000306
   3 H :    0.000018
   4 H :    0.000109
   5 H :   -0.000014
   6 C :   -0.179253
   7 O :   -0.476203
   8 H :    0.310716
   9 H :    0.105667
  10 H :    0.118591
  11 H :    0.121037
Sum of atomic charges:   -0.0000000

LOEWDIN ATOMIC CHARGES
----------------------
   0 C :   -0.001652
   1 O :   -0.000162
   2 H :   -0.000344
   3 H :   -0.000090
   4 H :   -0.000945
   5 H :   -0.000021
   6 C :   -0.354728
   7 O :   -0.091693
   8 H :    0.149148
   9 H :    0.105186
  10 H :    0.083318
  11 H :    0.111983

  Mayer bond orders larger than 0.1
B(  6-C ,  7-O ) :   0.9960 B(  6-C ,  9-H ) :   0.9755 B(  6-C , 10-H ) :   0.9711
B(  6-C , 11-H ) :   0.9744 B(  7-O ,  8-H ) :   0.9068

Dispersion correction           -0.000273435
FINAL SINGLE POINT ENERGY      -115.731151546365

DIPOLE MOMENT
-------------
                                X             Y             Z
Electronic contribution:      1.22002      -1.42291       0.01017
Nuclear contribution   :     -1.85456       1.48176      -0.33516
                        -----------------------------------------
Total Dipole Moment    :     -0.63454       0.05885      -0.32499
                        -----------------------------------------
Magnitude (a.u.)       :      0.71535
Magnitude (Debye)      :      1.81827

Rotational constants in cm-1:     4.384596     0.790177     0.759272
Rotational constants in MHz : 131446.893779 23688.924548 22762.414170

                             ****ORCA TERMINATED NORMALLY****
TOTAL RUN TIME: 0 days 0 hours 1 minutes 3 seconds 672 msec
