                         Program Version 4.1.2  - RELEASE  -
|  1> #Run DFT-D3 single point of the dimer
|  2> ! wB97X-D3 def2-TZVP TIGHTSCF CHELPG PMODEL PAL8
|  3>
|  4> %base "12-188_DFT_AB"
|  5>
|  6> %scf
|  7> MaxIter 1000
|  8> end
|  9>
| 10> * xyz 0 1
| 11>   C                      -10.593003           9.092834             -3.138689
| 12>   O                      -11.339661           8.741138             -4.293299
| 13>   H                      -12.187817           8.393444             -3.976467
| 14>   H                      -9.651535            9.560466             -3.405016
| 15>   H                      -11.188469           9.892501             -2.638534
| 16>   H                      -10.513389           8.300127             -2.468030
| 17>   C                      -8.907705            8.803317             -6.864882
| 18>   O                      -10.151974           9.476032             -6.676218
| 19>   H                      -10.588087           8.813658             -6.191804
| 20>   H                      -8.346268            8.624125             -5.976064
| 21>   H                      -9.002380            7.822041             -7.358662
| 22>   H                      -8.286776            9.403178             -7.537668
| 23> *
| 24>
| 25> #Run DFT-D3 single point of the molecule with dimer basis set
| 26> $new_job
| 27> %base "12-188_DFT_A"
| 28> ! wB97X-D3 def2-TZVP TIGHTSCF CHELPG PMODEL
| 29>
| 30> %scf
| 31> MaxIter 1000
| 32> end
| 33>
| 34> * xyz 0 1
| 35>   C                      -10.593003           9.092834             -3.138689
| 36>   O                      -11.339661           8.741138             -4.293299
| 37>   H                      -12.187817           8.393444             -3.976467
| 38>   H                      -9.651535            9.560466             -3.405016
| 39>   H                      -11.188469           9.892501             -2.638534
| 40>   H                      -10.513389           8.300127             -2.468030
| 41>   C                    : -8.907705            8.803317             -6.864882
| 42>   O                    : -10.151974           9.476032             -6.676218
| 43>   H                    : -10.588087           8.813658             -6.191804
| 44>   H                    : -8.346268            8.624125             -5.976064
| 45>   H                    : -9.002380            7.822041             -7.358662
| 46>   H                    : -8.286776            9.403178             -7.537668
| 47> *
| 48>
| 49> #Run DFT-D3 single point of the particle with dimer basis set
| 50> $new_job
| 51> %base "12-188_DFT_B"
| 52> ! wB97X-D3 def2-TZVP TIGHTSCF CHELPG PMODEL
| 53>
| 54> %scf
| 55> MaxIter 1000
| 56> end
| 57>
| 58> * xyz 0 1
| 59>   C                    : -10.593003           9.092834             -3.138689
| 60>   O                    : -11.339661           8.741138             -4.293299
| 61>   H                    : -12.187817           8.393444             -3.976467
| 62>   H                    : -9.651535            9.560466             -3.405016
| 63>   H                    : -11.188469           9.892501             -2.638534
| 64>   H                    : -10.513389           8.300127             -2.468030
| 65>   C                      -8.907705            8.803317             -6.864882
| 66>   O                      -10.151974           9.476032             -6.676218
| 67>   H                      -10.588087           8.813658             -6.191804
| 68>   H                      -8.346268            8.624125             -5.976064
| 69>   H                      -9.002380            7.822041             -7.358662
| 70>   H                      -8.286776            9.403178             -7.537668
| 71> *
| 72>
| 73>                          ****END OF INPUT****
 Total Charge           Charge          ....    0
 Multiplicity           Mult            ....    1
 Number of Electrons    NEL             ....   36
Dispersion correction           -0.001829175
FINAL SINGLE POINT ENERGY      -231.469986483224
Dispersion correction           -0.000214713
FINAL SINGLE POINT ENERGY      -115.732472119329

CARTESIAN COORDINATES (ANGSTROEM)
---------------------------------
  C    -10.593003    9.092834   -3.138689
  O    -11.339661    8.741138   -4.293299
  H    -12.187817    8.393444   -3.976467
  H     -9.651535    9.560466   -3.405016
  H    -11.188469    9.892501   -2.638534
  H    -10.513389    8.300127   -2.468030
  C     -8.907705    8.803317   -6.864882
  O    -10.151974    9.476032   -6.676218
  H    -10.588087    8.813658   -6.191804
  H     -8.346268    8.624125   -5.976064
  H     -9.002380    7.822041   -7.358662
  H     -8.286776    9.403178   -7.537668

 Multiplicity           Mult            ....    1
 Number of Electrons    NEL             ....   18
 Basis Dimension        Dim             ....  172

ORBITAL ENERGIES
----------------

  NO   OCC          E(Eh)            E(eV)
   0   2.0000     -19.234752      -523.4042
   1   2.0000     -10.313001      -280.6310
   2   2.0000      -1.147993       -31.2385
   3   2.0000      -0.798111       -21.7177
   4   2.0000      -0.615026       -16.7357
   5   2.0000      -0.542174       -14.7533
   6   2.0000      -0.523771       -14.2525
   7   2.0000      -0.449195       -12.2232
   8   2.0000      -0.379766       -10.3339
   9   0.0000       0.077174         2.1000
  10   0.0000       0.133455         3.6315
  11   0.0000       0.144395         3.9292
  12   0.0000       0.171656         4.6710
  13   0.0000       0.195155         5.3104

MULLIKEN ATOMIC CHARGES
-----------------------
   0 C :   -0.004471
   1 O :   -0.005039
   2 H :   -0.000387
   3 H :   -0.000773
   4 H :    0.000281
   5 H :    0.000041
   6 C :   -0.193779
   7 O :   -0.440953
   8 H :    0.307970
   9 H :    0.110566
  10 H :    0.107939
  11 H :    0.118604
Sum of atomic charges:    0.0000000

LOEWDIN ATOMIC CHARGES
----------------------
   0 C :   -0.005215
   1 O :   -0.019016
   2 H :   -0.000899
   3 H :   -0.001200
   4 H :   -0.000090
   5 H :   -0.000092
   6 C :   -0.380014
   7 O :   -0.047435
   8 H :    0.157709
   9 H :    0.089393
  10 H :    0.097757
  11 H :    0.109103

  Mayer bond orders larger than 0.1
B(  6-C ,  7-O ) :   1.0090 B(  6-C ,  9-H ) :   0.9660 B(  6-C , 10-H ) :   0.9802
B(  6-C , 11-H ) :   0.9784 B(  7-O ,  8-H ) :   0.9121

Dispersion correction           -0.000226313
FINAL SINGLE POINT ENERGY      -115.732743728198

DIPOLE MOMENT
-------------
                                X             Y             Z
Electronic contribution:     -1.61148       1.04245       0.24013
Nuclear contribution   :      1.83647      -1.70656      -0.02808
                        -----------------------------------------
Total Dipole Moment    :      0.22499      -0.66411       0.21204
                        -----------------------------------------
Magnitude (a.u.)       :      0.73255
Magnitude (Debye)      :      1.86199

Rotational constants in cm-1:     4.387302     0.826819     0.794525
Rotational constants in MHz : 131528.015548 24787.417888 23819.265978

                             ****ORCA TERMINATED NORMALLY****
TOTAL RUN TIME: 0 days 0 hours 0 minutes 59 seconds 343 msec
