                         Program Version 4.1.2  - RELEASE  -
|  1> #Run DFT-D3 single point of the dimer
|  2> ! wB97X-D3 def2-TZVP TIGHTSCF CHELPG PMODEL PAL8
|  3>
|  4> %base "5-9_DFT_AB"
|  5>
|  6> %scf
|  7> MaxIter 1000
|  8> end
|  9>
| 10> * xyz 0 1
| 11>   C                      7.637502             -1.565497            0.430449
| 12>   O                      6.279459             -1.591730            0.075538
| 13>   H                      6.138315             -2.503580            0.236057
| 14>   H                      8.043561             -0.510717            0.303914
| 15>   H                      7.798157             -1.853950            1.427963
| 16>   H                      8.171181             -2.284390            -0.145285
| 17>   C                      8.190028             -2.694055            -3.476377
| 18>   O                      6.827481             -3.059892            -3.108818
| 19>   H                      6.756620             -2.793833            -2.204881
| 20>   H                      8.234352             -2.516581            -4.521959
| 21>   H                      8.542257             -1.771444            -2.992852
| 22>   H                      9.011130             -3.357057            -3.221802
| 23> *
| 24>
| 25> #Run DFT-D3 single point of the molecule with dimer basis set
| 26> $new_job
| 27> %base "5-9_DFT_A"
| 28> ! wB97X-D3 def2-TZVP TIGHTSCF CHELPG PMODEL
| 29>
| 30> %scf
| 31> MaxIter 1000
| 32> end
| 33>
| 34> * xyz 0 1
| 35>   C                      7.637502             -1.565497            0.430449
| 36>   O                      6.279459             -1.591730            0.075538
| 37>   H                      6.138315             -2.503580            0.236057
| 38>   H                      8.043561             -0.510717            0.303914
| 39>   H                      7.798157             -1.853950            1.427963
| 40>   H                      8.171181             -2.284390            -0.145285
| 41>   C                    : 8.190028             -2.694055            -3.476377
| 42>   O                    : 6.827481             -3.059892            -3.108818
| 43>   H                    : 6.756620             -2.793833            -2.204881
| 44>   H                    : 8.234352             -2.516581            -4.521959
| 45>   H                    : 8.542257             -1.771444            -2.992852
| 46>   H                    : 9.011130             -3.357057            -3.221802
| 47> *
| 48>
| 49> #Run DFT-D3 single point of the particle with dimer basis set
| 50> $new_job
| 51> %base "5-9_DFT_B"
| 52> ! wB97X-D3 def2-TZVP TIGHTSCF CHELPG PMODEL
| 53>
| 54> %scf
| 55> MaxIter 1000
| 56> end
| 57>
| 58> * xyz 0 1
| 59>   C                    : 7.637502             -1.565497            0.430449
| 60>   O                    : 6.279459             -1.591730            0.075538
| 61>   H                    : 6.138315             -2.503580            0.236057
| 62>   H                    : 8.043561             -0.510717            0.303914
| 63>   H                    : 7.798157             -1.853950            1.427963
| 64>   H                    : 8.171181             -2.284390            -0.145285
| 65>   C                      8.190028             -2.694055            -3.476377
| 66>   O                      6.827481             -3.059892            -3.108818
| 67>   H                      6.756620             -2.793833            -2.204881
| 68>   H                      8.234352             -2.516581            -4.521959
| 69>   H                      8.542257             -1.771444            -2.992852
| 70>   H                      9.011130             -3.357057            -3.221802
| 71> *
| 72>
| 73>                          ****END OF INPUT****
 Total Charge           Charge          ....    0
 Multiplicity           Mult            ....    1
 Number of Electrons    NEL             ....   36
Dispersion correction           -0.001911773
FINAL SINGLE POINT ENERGY      -231.461946071477
Dispersion correction           -0.000194780
FINAL SINGLE POINT ENERGY      -115.728632328642

CARTESIAN COORDINATES (ANGSTROEM)
---------------------------------
  C      7.637502   -1.565497    0.430449
  O      6.279459   -1.591730    0.075538
  H      6.138315   -2.503580    0.236057
  H      8.043561   -0.510717    0.303914
  H      7.798157   -1.853950    1.427963
  H      8.171181   -2.284390   -0.145285
  C      8.190028   -2.694055   -3.476377
  O      6.827481   -3.059892   -3.108818
  H      6.756620   -2.793833   -2.204881
  H      8.234352   -2.516581   -4.521959
  H      8.542257   -1.771444   -2.992852
  H      9.011130   -3.357057   -3.221802

 Multiplicity           Mult            ....    1
 Number of Electrons    NEL             ....   18
 Basis Dimension        Dim             ....  172

ORBITAL ENERGIES
----------------

  NO   OCC          E(Eh)            E(eV)
   0   2.0000     -19.235442      -523.4230
   1   2.0000     -10.313227      -280.6372
   2   2.0000      -1.131324       -30.7849
   3   2.0000      -0.803419       -21.8621
   4   2.0000      -0.611254       -16.6331
   5   2.0000      -0.529939       -14.4204
   6   2.0000      -0.523885       -14.2556
   7   2.0000      -0.447412       -12.1747
   8   2.0000      -0.378685       -10.3045
   9   0.0000       0.068643         1.8679
  10   0.0000       0.136305         3.7091
  11   0.0000       0.140852         3.8328
  12   0.0000       0.170529         4.6403
  13   0.0000       0.180968         4.9244

MULLIKEN ATOMIC CHARGES
-----------------------
   0 C :   -0.001635
   1 O :    0.000491
   2 H :   -0.000301
   3 H :   -0.000142
   4 H :   -0.000075
   5 H :   -0.000320
   6 C :   -0.188147
   7 O :   -0.463424
   8 H :    0.309429
   9 H :    0.130995
  10 H :    0.104172
  11 H :    0.108958
Sum of atomic charges:   -0.0000000

LOEWDIN ATOMIC CHARGES
----------------------
   0 C :   -0.003490
   1 O :   -0.002369
   2 H :   -0.001406
   3 H :   -0.000115
   4 H :   -0.000028
   5 H :   -0.001760
   6 C :   -0.357388
   7 O :   -0.087109
   8 H :    0.158443
   9 H :    0.101185
  10 H :    0.098725
  11 H :    0.095313

  Mayer bond orders larger than 0.1
B(  6-C ,  7-O ) :   0.9974 B(  6-C ,  9-H ) :   0.9792 B(  6-C , 10-H ) :   0.9784
B(  6-C , 11-H ) :   0.9659 B(  7-O ,  8-H ) :   0.9149

Dispersion correction           -0.000270194
FINAL SINGLE POINT ENERGY      -115.730775578864

DIPOLE MOMENT
-------------
                                X             Y             Z
Electronic contribution:     -1.84876      -0.61890       0.31238
Nuclear contribution   :      2.36618       0.95926       0.10416
                        -----------------------------------------
Total Dipole Moment    :      0.51742       0.34036       0.41654
                        -----------------------------------------
Magnitude (a.u.)       :      0.74637
Magnitude (Debye)      :      1.89713

Rotational constants in cm-1:     4.527402     0.787303     0.756037
Rotational constants in MHz : 135728.104620 23602.750394 22665.430742

                             ****ORCA TERMINATED NORMALLY****
TOTAL RUN TIME: 0 days 0 hours 1 minutes 4 seconds 490 msec
