                         Program Version 4.1.2  - RELEASE  -
|  1> #Run DFT-D3 single point of the dimer
|  2> ! wB97X-D3 def2-TZVP TIGHTSCF CHELPG PMODEL PAL8
|  3>
|  4> %base "8-174_DFT_AB"
|  5>
|  6> %scf
|  7> MaxIter 1000
|  8> end
|  9>
| 10> * xyz 0 1
| 11>   C                      -7.175575            2.102630             -1.137737
| 12>   O                      -6.360811            1.215459             -1.860402
| 13>   H                      -6.884850            0.520628             -2.253676
| 14>   H                      -7.351709            3.163128             -1.493092
| 15>   H                      -8.215641            1.709698             -1.142995
| 16>   H                      -6.928180            2.110446             -0.125712
| 17>   C                      -9.021103            -2.447147            -2.266905
| 18>   O                      -8.303614            -1.278762            -1.949975
| 19>   H                      -7.432322            -1.333857            -2.389903
| 20>   H                      -9.896593            -2.652528            -1.635555
| 21>   H                      -9.254280            -2.464779            -3.357145
| 22>   H                      -8.310638            -3.283385            -1.944165
| 23> *
| 24>
| 25> #Run DFT-D3 single point of the molecule with dimer basis set
| 26> $new_job
| 27> %base "8-174_DFT_A"
| 28> ! wB97X-D3 def2-TZVP TIGHTSCF CHELPG PMODEL
| 29>
| 30> %scf
| 31> MaxIter 1000
| 32> end
| 33>
| 34> * xyz 0 1
| 35>   C                      -7.175575            2.102630             -1.137737
| 36>   O                      -6.360811            1.215459             -1.860402
| 37>   H                      -6.884850            0.520628             -2.253676
| 38>   H                      -7.351709            3.163128             -1.493092
| 39>   H                      -8.215641            1.709698             -1.142995
| 40>   H                      -6.928180            2.110446             -0.125712
| 41>   C                    : -9.021103            -2.447147            -2.266905
| 42>   O                    : -8.303614            -1.278762            -1.949975
| 43>   H                    : -7.432322            -1.333857            -2.389903
| 44>   H                    : -9.896593            -2.652528            -1.635555
| 45>   H                    : -9.254280            -2.464779            -3.357145
| 46>   H                    : -8.310638            -3.283385            -1.944165
| 47> *
| 48>
| 49> #Run DFT-D3 single point of the particle with dimer basis set
| 50> $new_job
| 51> %base "8-174_DFT_B"
| 52> ! wB97X-D3 def2-TZVP TIGHTSCF CHELPG PMODEL
| 53>
| 54> %scf
| 55> MaxIter 1000
| 56> end
| 57>
| 58> * xyz 0 1
| 59>   C                    : -7.175575            2.102630             -1.137737
| 60>   O                    : -6.360811            1.215459             -1.860402
| 61>   H                    : -6.884850            0.520628             -2.253676
| 62>   H                    : -7.351709            3.163128             -1.493092
| 63>   H                    : -8.215641            1.709698             -1.142995
| 64>   H                    : -6.928180            2.110446             -0.125712
| 65>   C                      -9.021103            -2.447147            -2.266905
| 66>   O                      -8.303614            -1.278762            -1.949975
| 67>   H                      -7.432322            -1.333857            -2.389903
| 68>   H                      -9.896593            -2.652528            -1.635555
| 69>   H                      -9.254280            -2.464779            -3.357145
| 70>   H                      -8.310638            -3.283385            -1.944165
| 71> *
| 72>
| 73>                          ****END OF INPUT****
 Total Charge           Charge          ....    0
 Multiplicity           Mult            ....    1
 Number of Electrons    NEL             ....   36
Dispersion correction           -0.001521280
FINAL SINGLE POINT ENERGY      -231.457850594371
Dispersion correction           -0.000258578
FINAL SINGLE POINT ENERGY      -115.727693247853

CARTESIAN COORDINATES (ANGSTROEM)
---------------------------------
  C     -7.175575    2.102630   -1.137737
  O     -6.360811    1.215459   -1.860402
  H     -6.884850    0.520628   -2.253676
  H     -7.351709    3.163128   -1.493092
  H     -8.215641    1.709698   -1.142995
  H     -6.928180    2.110446   -0.125712
  C     -9.021103   -2.447147   -2.266905
  O     -8.303614   -1.278762   -1.949975
  H     -7.432322   -1.333857   -2.389903
  H     -9.896593   -2.652528   -1.635555
  H     -9.254280   -2.464779   -3.357145
  H     -8.310638   -3.283385   -1.944165

 Multiplicity           Mult            ....    1
 Number of Electrons    NEL             ....   18
 Basis Dimension        Dim             ....  172

ORBITAL ENERGIES
----------------

  NO   OCC          E(Eh)            E(eV)
   0   2.0000     -19.230189      -523.2801
   1   2.0000     -10.321486      -280.8619
   2   2.0000      -1.135623       -30.9019
   3   2.0000      -0.787403       -21.4263
   4   2.0000      -0.603011       -16.4088
   5   2.0000      -0.549873       -14.9628
   6   2.0000      -0.530447       -14.4342
   7   2.0000      -0.422511       -11.4971
   8   2.0000      -0.370230       -10.0745
   9   0.0000       0.093907         2.5553
  10   0.0000       0.120227         3.2715
  11   0.0000       0.151578         4.1246
  12   0.0000       0.189092         5.1455
  13   0.0000       0.196766         5.3543

MULLIKEN ATOMIC CHARGES
-----------------------
   0 C :    0.004349
   1 O :    0.001229
   2 H :   -0.010175
   3 H :   -0.000186
   4 H :   -0.005395
   5 H :   -0.000228
   6 C :   -0.174636
   7 O :   -0.466452
   8 H :    0.325646
   9 H :    0.124753
  10 H :    0.104585
  11 H :    0.096511
Sum of atomic charges:    0.0000000

LOEWDIN ATOMIC CHARGES
----------------------
   0 C :   -0.003119
   1 O :   -0.001573
   2 H :   -0.014133
   3 H :   -0.000024
   4 H :   -0.002963
   5 H :   -0.000055
   6 C :   -0.398917
   7 O :   -0.076993
   8 H :    0.186719
   9 H :    0.108215
  10 H :    0.098511
  11 H :    0.104331

  Mayer bond orders larger than 0.1
B(  6-C ,  7-O ) :   0.9939 B(  6-C ,  9-H ) :   0.9680 B(  6-C , 10-H ) :   0.9704
B(  6-C , 11-H ) :   0.9888 B(  7-O ,  8-H ) :   0.8865

Dispersion correction           -0.000229713
FINAL SINGLE POINT ENERGY      -115.729206317597

DIPOLE MOMENT
-------------
                                X             Y             Z
Electronic contribution:      0.61348       1.63241       0.43064
Nuclear contribution   :     -0.36324      -2.13635      -0.80392
                        -----------------------------------------
Total Dipole Moment    :      0.25025      -0.50394      -0.37328
                        -----------------------------------------
Magnitude (a.u.)       :      0.67522
Magnitude (Debye)      :      1.71626

Rotational constants in cm-1:     4.085637     0.831733     0.812302
Rotational constants in MHz : 122484.303337 24934.718465 24352.189906

                             ****ORCA TERMINATED NORMALLY****
TOTAL RUN TIME: 0 days 0 hours 0 minutes 43 seconds 879 msec
