                         Program Version 4.1.2  - RELEASE  -
|  1> #Run DFT-D3 single point of the dimer
|  2> ! wB97X-D3 def2-TZVP TIGHTSCF CHELPG PMODEL PAL8
|  3>
|  4> %base "9-28_DFT_AB"
|  5>
|  6> %scf
|  7> MaxIter 1000
|  8> end
|  9>
| 10> * xyz 0 1
| 11>   C                      -2.236262            -7.219065            -3.038028
| 12>   O                      -2.089203            -8.488530            -3.702297
| 13>   H                      -2.620605            -8.479153            -4.503310
| 14>   H                      -1.906942            -6.405743            -3.624474
| 15>   H                      -3.225869            -6.961767            -2.730361
| 16>   H                      -1.644495            -7.133655            -2.155844
| 17>   C                      -1.495863            -7.793966            2.578970
| 18>   O                      -0.483908            -8.710435            2.830056
| 19>   H                      -0.539122            -8.859072            3.780533
| 20>   H                      -1.316843            -6.805620            3.074040
| 21>   H                      -1.618548            -7.589966            1.567328
| 22>   H                      -2.421022            -8.112278            2.983919
| 23> *
| 24>
| 25> #Run DFT-D3 single point of the molecule with dimer basis set
| 26> $new_job
| 27> %base "9-28_DFT_A"
| 28> ! wB97X-D3 def2-TZVP TIGHTSCF CHELPG PMODEL
| 29>
| 30> %scf
| 31> MaxIter 1000
| 32> end
| 33>
| 34> * xyz 0 1
| 35>   C                      -2.236262            -7.219065            -3.038028
| 36>   O                      -2.089203            -8.488530            -3.702297
| 37>   H                      -2.620605            -8.479153            -4.503310
| 38>   H                      -1.906942            -6.405743            -3.624474
| 39>   H                      -3.225869            -6.961767            -2.730361
| 40>   H                      -1.644495            -7.133655            -2.155844
| 41>   C                    : -1.495863            -7.793966            2.578970
| 42>   O                    : -0.483908            -8.710435            2.830056
| 43>   H                    : -0.539122            -8.859072            3.780533
| 44>   H                    : -1.316843            -6.805620            3.074040
| 45>   H                    : -1.618548            -7.589966            1.567328
| 46>   H                    : -2.421022            -8.112278            2.983919
| 47> *
| 48>
| 49> #Run DFT-D3 single point of the particle with dimer basis set
| 50> $new_job
| 51> %base "9-28_DFT_B"
| 52> ! wB97X-D3 def2-TZVP TIGHTSCF CHELPG PMODEL
| 53>
| 54> %scf
| 55> MaxIter 1000
| 56> end
| 57>
| 58> * xyz 0 1
| 59>   C                    : -2.236262            -7.219065            -3.038028
| 60>   O                    : -2.089203            -8.488530            -3.702297
| 61>   H                    : -2.620605            -8.479153            -4.503310
| 62>   H                    : -1.906942            -6.405743            -3.624474
| 63>   H                    : -3.225869            -6.961767            -2.730361
| 64>   H                    : -1.644495            -7.133655            -2.155844
| 65>   C                      -1.495863            -7.793966            2.578970
| 66>   O                      -0.483908            -8.710435            2.830056
| 67>   H                      -0.539122            -8.859072            3.780533
| 68>   H                      -1.316843            -6.805620            3.074040
| 69>   H                      -1.618548            -7.589966            1.567328
| 70>   H                      -2.421022            -8.112278            2.983919
| 71> *
| 72>
| 73>                          ****END OF INPUT****
 Total Charge           Charge          ....    0
 Multiplicity           Mult            ....    1
 Number of Electrons    NEL             ....   36
Dispersion correction           -0.000626299
FINAL SINGLE POINT ENERGY      -231.464209411358
Dispersion correction           -0.000258077
FINAL SINGLE POINT ENERGY      -115.732147702424

CARTESIAN COORDINATES (ANGSTROEM)
---------------------------------
  C     -2.236262   -7.219065   -3.038028
  O     -2.089203   -8.488530   -3.702297
  H     -2.620605   -8.479153   -4.503310
  H     -1.906942   -6.405743   -3.624474
  H     -3.225869   -6.961767   -2.730361
  H     -1.644495   -7.133655   -2.155844
  C     -1.495863   -7.793966    2.578970
  O     -0.483908   -8.710435    2.830056
  H     -0.539122   -8.859072    3.780533
  H     -1.316843   -6.805620    3.074040
  H     -1.618548   -7.589966    1.567328
  H     -2.421022   -8.112278    2.983919

 Multiplicity           Mult            ....    1
 Number of Electrons    NEL             ....   18
 Basis Dimension        Dim             ....  172

ORBITAL ENERGIES
----------------

  NO   OCC          E(Eh)            E(eV)
   0   2.0000     -19.232154      -523.3335
   1   2.0000     -10.303469      -280.3717
   2   2.0000      -1.146913       -31.2091
   3   2.0000      -0.798953       -21.7406
   4   2.0000      -0.618549       -16.8316
   5   2.0000      -0.541665       -14.7395
   6   2.0000      -0.536550       -14.6003
   7   2.0000      -0.441889       -12.0244
   8   2.0000      -0.370362       -10.0781
   9   0.0000       0.086130         2.3437
  10   0.0000       0.114498         3.1157
  11   0.0000       0.147191         4.0053
  12   0.0000       0.169231         4.6050
  13   0.0000       0.189757         5.1635

MULLIKEN ATOMIC CHARGES
-----------------------
   0 C :   -0.000026
   1 O :    0.000001
   2 H :   -0.000000
   3 H :   -0.000000
   4 H :   -0.000002
   5 H :   -0.000033
   6 C :   -0.160359
   7 O :   -0.460353
   8 H :    0.314840
   9 H :    0.086908
  10 H :    0.122820
  11 H :    0.096205
Sum of atomic charges:   -0.0000000

LOEWDIN ATOMIC CHARGES
----------------------
   0 C :   -0.000041
   1 O :   -0.000001
   2 H :   -0.000000
   3 H :   -0.000000
   4 H :   -0.000003
   5 H :   -0.000102
   6 C :   -0.400229
   7 O :   -0.055968
   8 H :    0.177078
   9 H :    0.097152
  10 H :    0.095669
  11 H :    0.086446

  Mayer bond orders larger than 0.1
B(  6-C ,  7-O ) :   1.0072 B(  6-C ,  9-H ) :   0.9779 B(  6-C , 10-H ) :   0.9745
B(  6-C , 11-H ) :   0.9837 B(  7-O ,  8-H ) :   0.9010

Dispersion correction           -0.000212172
FINAL SINGLE POINT ENERGY      -115.732174763092

DIPOLE MOMENT
-------------
                                X             Y             Z
Electronic contribution:      1.38489      -1.31298       0.05730
Nuclear contribution   :     -1.81662       1.55386       0.42476
                        -----------------------------------------
Total Dipole Moment    :     -0.43173       0.24088       0.48205
                        -----------------------------------------
Magnitude (a.u.)       :      0.69050
Magnitude (Debye)      :      1.75511

Rotational constants in cm-1:     4.453426     0.861974     0.827232
Rotational constants in MHz : 133510.342513 25841.335711 24799.794727

                             ****ORCA TERMINATED NORMALLY****
TOTAL RUN TIME: 0 days 0 hours 0 minutes 36 seconds 752 msec
