                         Program Version 4.1.2  - RELEASE  -
|  1> #Run DFT-D3 single point of the dimer
|  2> ! wB97X-D3 def2-TZVP TIGHTSCF CHELPG PMODEL PAL8
|  3>
|  4> %base "18-131_DFT_AB"
|  5>
|  6> %scf
|  7> MaxIter 1000
|  8> end
|  9>
| 10> * xyz 0 1
| 11>   C                      -10.286534           10.673882            3.793278
| 12>   O                      -8.910454            10.924553            3.478608
| 13>   H                      -8.508359            11.084379            4.307705
| 14>   H                      -10.933284           10.835216            2.948469
| 15>   H                      -10.407705           9.686016             4.147224
| 16>   H                      -10.547487           11.323331            4.581449
| 17>   C                      -7.729625            8.434481             1.097898
| 18>   O                      -8.249190            9.644550             0.479071
| 19>   H                      -8.209431            10.251461            1.196745
| 20>   H                      -6.712338            8.576372             1.336864
| 21>   H                      -8.080132            8.239179             2.112676
| 22>   H                      -8.021949            7.589075             0.567950
| 23> *
| 24>
| 25> #Run DFT-D3 single point of the molecule with dimer basis set
| 26> $new_job
| 27> %base "18-131_DFT_A"
| 28> ! wB97X-D3 def2-TZVP TIGHTSCF CHELPG PMODEL
| 29>
| 30> %scf
| 31> MaxIter 1000
| 32> end
| 33>
| 34> * xyz 0 1
| 35>   C                      -10.286534           10.673882            3.793278
| 36>   O                      -8.910454            10.924553            3.478608
| 37>   H                      -8.508359            11.084379            4.307705
| 38>   H                      -10.933284           10.835216            2.948469
| 39>   H                      -10.407705           9.686016             4.147224
| 40>   H                      -10.547487           11.323331            4.581449
| 41>   C                    : -7.729625            8.434481             1.097898
| 42>   O                    : -8.249190            9.644550             0.479071
| 43>   H                    : -8.209431            10.251461            1.196745
| 44>   H                    : -6.712338            8.576372             1.336864
| 45>   H                    : -8.080132            8.239179             2.112676
| 46>   H                    : -8.021949            7.589075             0.567950
| 47> *
| 48>
| 49> #Run DFT-D3 single point of the particle with dimer basis set
| 50> $new_job
| 51> %base "18-131_DFT_B"
| 52> ! wB97X-D3 def2-TZVP TIGHTSCF CHELPG PMODEL
| 53>
| 54> %scf
| 55> MaxIter 1000
| 56> end
| 57>
| 58> * xyz 0 1
| 59>   C                    : -10.286534           10.673882            3.793278
| 60>   O                    : -8.910454            10.924553            3.478608
| 61>   H                    : -8.508359            11.084379            4.307705
| 62>   H                    : -10.933284           10.835216            2.948469
| 63>   H                    : -10.407705           9.686016             4.147224
| 64>   H                    : -10.547487           11.323331            4.581449
| 65>   C                      -7.729625            8.434481             1.097898
| 66>   O                      -8.249190            9.644550             0.479071
| 67>   H                      -8.209431            10.251461            1.196745
| 68>   H                      -6.712338            8.576372             1.336864
| 69>   H                      -8.080132            8.239179             2.112676
| 70>   H                      -8.021949            7.589075             0.567950
| 71> *
| 72>
| 73>                          ****END OF INPUT****
 Total Charge           Charge          ....    0
 Multiplicity           Mult            ....    1
 Number of Electrons    NEL             ....   36
Dispersion correction           -0.001758427
FINAL SINGLE POINT ENERGY      -231.464727305068
Dispersion correction           -0.000212735
FINAL SINGLE POINT ENERGY      -115.732703172688

CARTESIAN COORDINATES (ANGSTROEM)
---------------------------------
  C    -10.286534   10.673882    3.793278
  O     -8.910454   10.924553    3.478608
  H     -8.508359   11.084379    4.307705
  H    -10.933284   10.835216    2.948469
  H    -10.407705    9.686016    4.147224
  H    -10.547487   11.323331    4.581449
  C     -7.729625    8.434481    1.097898
  O     -8.249190    9.644550    0.479071
  H     -8.209431   10.251461    1.196745
  H     -6.712338    8.576372    1.336864
  H     -8.080132    8.239179    2.112676
  H     -8.021949    7.589075    0.567950

 Multiplicity           Mult            ....    1
 Number of Electrons    NEL             ....   18
 Basis Dimension        Dim             ....  172

ORBITAL ENERGIES
----------------

  NO   OCC          E(Eh)            E(eV)
   0   2.0000     -19.231455      -523.3145
   1   2.0000     -10.306796      -280.4622
   2   2.0000      -1.133039       -30.8316
   3   2.0000      -0.806887       -21.9565
   4   2.0000      -0.613055       -16.6821
   5   2.0000      -0.550167       -14.9708
   6   2.0000      -0.511667       -13.9232
   7   2.0000      -0.452609       -12.3161
   8   2.0000      -0.374427       -10.1887
   9   0.0000       0.071289         1.9399
  10   0.0000       0.131503         3.5784
  11   0.0000       0.149551         4.0695
  12   0.0000       0.163949         4.4613
  13   0.0000       0.187329         5.0975

MULLIKEN ATOMIC CHARGES
-----------------------
   0 C :   -0.001895
   1 O :   -0.000950
   2 H :   -0.000076
   3 H :   -0.000350
   4 H :   -0.000148
   5 H :   -0.000062
   6 C :   -0.190058
   7 O :   -0.462467
   8 H :    0.306360
   9 H :    0.115572
  10 H :    0.101124
  11 H :    0.132950
Sum of atomic charges:   -0.0000000

LOEWDIN ATOMIC CHARGES
----------------------
   0 C :   -0.002177
   1 O :   -0.004879
   2 H :   -0.000236
   3 H :   -0.000450
   4 H :   -0.000232
   5 H :   -0.000048
   6 C :   -0.347998
   7 O :   -0.086238
   8 H :    0.154995
   9 H :    0.092245
  10 H :    0.097260
  11 H :    0.097758

  Mayer bond orders larger than 0.1
B(  6-C ,  7-O ) :   0.9940 B(  6-C ,  9-H ) :   0.9798 B(  6-C , 10-H ) :   0.9728
B(  6-C , 11-H ) :   0.9744 B(  7-O ,  8-H ) :   0.9151

Dispersion correction           -0.000226081
FINAL SINGLE POINT ENERGY      -115.725488039973

DIPOLE MOMENT
-------------
                                X             Y             Z
Electronic contribution:     -0.65223       1.37621      -1.10323
Nuclear contribution   :      0.88335      -1.50586       1.82925
                        -----------------------------------------
Total Dipole Moment    :      0.23112      -0.12965       0.72601
                        -----------------------------------------
Magnitude (a.u.)       :      0.77287
Magnitude (Debye)      :      1.96447

Rotational constants in cm-1:     4.525201     0.808218     0.770525
Rotational constants in MHz : 135662.120605 24229.773629 23099.765620

                             ****ORCA TERMINATED NORMALLY****
TOTAL RUN TIME: 0 days 0 hours 0 minutes 54 seconds 538 msec
