                         Program Version 4.1.2  - RELEASE  -
|  1> #Run DFT-D3 single point of the dimer
|  2> ! wB97X-D3 def2-TZVP TIGHTSCF CHELPG PMODEL PAL8
|  3>
|  4> %base "15-51_DFT_AB"
|  5>
|  6> %scf
|  7> MaxIter 1000
|  8> end
|  9>
| 10> * xyz 0 1
| 11>   C                      7.027536             3.700445             1.588677
| 12>   O                      7.121738             4.093266             0.247516
| 13>   H                      7.366341             3.333908             -0.299382
| 14>   H                      8.023769             3.471064             2.076743
| 15>   H                      6.544191             4.464693             2.197487
| 16>   H                      6.420623             2.848499             1.708700
| 17>   C                      9.038887             6.526056             -2.664774
| 18>   O                      8.434015             5.502491             -3.416970
| 19>   H                      7.926180             5.920093             -4.109591
| 20>   H                      9.811241             7.077461             -3.162450
| 21>   H                      8.338956             7.297819             -2.298111
| 22>   H                      9.469062             6.170115             -1.708386
| 23> *
| 24>
| 25> #Run DFT-D3 single point of the molecule with dimer basis set
| 26> $new_job
| 27> %base "15-51_DFT_A"
| 28> ! wB97X-D3 def2-TZVP TIGHTSCF CHELPG PMODEL
| 29>
| 30> %scf
| 31> MaxIter 1000
| 32> end
| 33>
| 34> * xyz 0 1
| 35>   C                      7.027536             3.700445             1.588677
| 36>   O                      7.121738             4.093266             0.247516
| 37>   H                      7.366341             3.333908             -0.299382
| 38>   H                      8.023769             3.471064             2.076743
| 39>   H                      6.544191             4.464693             2.197487
| 40>   H                      6.420623             2.848499             1.708700
| 41>   C                    : 9.038887             6.526056             -2.664774
| 42>   O                    : 8.434015             5.502491             -3.416970
| 43>   H                    : 7.926180             5.920093             -4.109591
| 44>   H                    : 9.811241             7.077461             -3.162450
| 45>   H                    : 8.338956             7.297819             -2.298111
| 46>   H                    : 9.469062             6.170115             -1.708386
| 47> *
| 48>
| 49> #Run DFT-D3 single point of the particle with dimer basis set
| 50> $new_job
| 51> %base "15-51_DFT_B"
| 52> ! wB97X-D3 def2-TZVP TIGHTSCF CHELPG PMODEL
| 53>
| 54> %scf
| 55> MaxIter 1000
| 56> end
| 57>
| 58> * xyz 0 1
| 59>   C                    : 7.027536             3.700445             1.588677
| 60>   O                    : 7.121738             4.093266             0.247516
| 61>   H                    : 7.366341             3.333908             -0.299382
| 62>   H                    : 8.023769             3.471064             2.076743
| 63>   H                    : 6.544191             4.464693             2.197487
| 64>   H                    : 6.420623             2.848499             1.708700
| 65>   C                      9.038887             6.526056             -2.664774
| 66>   O                      8.434015             5.502491             -3.416970
| 67>   H                      7.926180             5.920093             -4.109591
| 68>   H                      9.811241             7.077461             -3.162450
| 69>   H                      8.338956             7.297819             -2.298111
| 70>   H                      9.469062             6.170115             -1.708386
| 71> *
| 72>
| 73>                          ****END OF INPUT****
 Total Charge           Charge          ....    0
 Multiplicity           Mult            ....    1
 Number of Electrons    NEL             ....   36
Dispersion correction           -0.000938719
FINAL SINGLE POINT ENERGY      -231.469748961607
Dispersion correction           -0.000247625
FINAL SINGLE POINT ENERGY      -115.734614313479

CARTESIAN COORDINATES (ANGSTROEM)
---------------------------------
  C      7.027536    3.700445    1.588677
  O      7.121738    4.093266    0.247516
  H      7.366341    3.333908   -0.299382
  H      8.023769    3.471064    2.076743
  H      6.544191    4.464693    2.197487
  H      6.420623    2.848499    1.708700
  C      9.038887    6.526056   -2.664774
  O      8.434015    5.502491   -3.416970
  H      7.926180    5.920093   -4.109591
  H      9.811241    7.077461   -3.162450
  H      8.338956    7.297819   -2.298111
  H      9.469062    6.170115   -1.708386

 Multiplicity           Mult            ....    1
 Number of Electrons    NEL             ....   18
 Basis Dimension        Dim             ....  172

ORBITAL ENERGIES
----------------

  NO   OCC          E(Eh)            E(eV)
   0   2.0000     -19.234517      -523.3978
   1   2.0000     -10.312763      -280.6246
   2   2.0000      -1.141663       -31.0662
   3   2.0000      -0.798294       -21.7227
   4   2.0000      -0.617031       -16.7903
   5   2.0000      -0.541142       -14.7252
   6   2.0000      -0.526719       -14.3327
   7   2.0000      -0.432678       -11.7738
   8   2.0000      -0.376768       -10.2524
   9   0.0000       0.089633         2.4390
  10   0.0000       0.116692         3.1754
  11   0.0000       0.149193         4.0597
  12   0.0000       0.169462         4.6113
  13   0.0000       0.197704         5.3798

MULLIKEN ATOMIC CHARGES
-----------------------
   0 C :   -0.000024
   1 O :   -0.000113
   2 H :   -0.000464
   3 H :    0.000003
   4 H :   -0.000002
   5 H :   -0.000001
   6 C :   -0.171797
   7 O :   -0.467394
   8 H :    0.316487
   9 H :    0.105958
  10 H :    0.100178
  11 H :    0.117169
Sum of atomic charges:    0.0000000

LOEWDIN ATOMIC CHARGES
----------------------
   0 C :   -0.000031
   1 O :   -0.000204
   2 H :   -0.000350
   3 H :   -0.000002
   4 H :   -0.000001
   5 H :   -0.000001
   6 C :   -0.400257
   7 O :   -0.064300
   8 H :    0.168877
   9 H :    0.088662
  10 H :    0.096165
  11 H :    0.111444

  Mayer bond orders larger than 0.1
B(  6-C ,  7-O ) :   1.0029 B(  6-C ,  9-H ) :   0.9723 B(  6-C , 10-H ) :   0.9780
B(  6-C , 11-H ) :   0.9743 B(  7-O ,  8-H ) :   0.8985

Dispersion correction           -0.000253628
FINAL SINGLE POINT ENERGY      -115.734206984998

DIPOLE MOMENT
-------------
                                X             Y             Z
Electronic contribution:     -0.71806      -1.53508      -1.03683
Nuclear contribution   :      0.62884       2.20646       0.89615
                        -----------------------------------------
Total Dipole Moment    :     -0.08922       0.67139      -0.14068
                        -----------------------------------------
Magnitude (a.u.)       :      0.69175
Magnitude (Debye)      :      1.75828

Rotational constants in cm-1:     4.481910     0.824188     0.795360
Rotational constants in MHz : 134364.276121 24708.540270 23844.285001

                             ****ORCA TERMINATED NORMALLY****
TOTAL RUN TIME: 0 days 0 hours 0 minutes 50 seconds 935 msec
