                         Program Version 4.1.2  - RELEASE  -
|  1> #Run DFT-D3 single point of the dimer
|  2> ! wB97X-D3 def2-TZVP TIGHTSCF CHELPG PMODEL PAL8
|  3>
|  4> %base "16-12_DFT_AB"
|  5>
|  6> %scf
|  7> MaxIter 1000
|  8> end
|  9>
| 10> * xyz 0 1
| 11>   C                      -9.460971            -5.850150            -9.983236
| 12>   O                      -8.591912            -6.718918            -10.686473
| 13>   H                      -8.695396            -7.506844            -10.221084
| 14>   H                      -10.460182           -6.178799            -10.083656
| 15>   H                      -9.193688            -5.917862            -8.911150
| 16>   H                      -9.460853            -4.773154            -10.286841
| 17>   C                      -8.143978            -6.388910            -5.973542
| 18>   O                      -8.120722            -5.771291            -4.736894
| 19>   H                      -8.424341            -4.836239            -4.837612
| 20>   H                      -8.094001            -7.457910            -5.794814
| 21>   H                      -9.053335            -6.044423            -6.514910
| 22>   H                      -7.270860            -6.161837            -6.612663
| 23> *
| 24>
| 25> #Run DFT-D3 single point of the molecule with dimer basis set
| 26> $new_job
| 27> %base "16-12_DFT_A"
| 28> ! wB97X-D3 def2-TZVP TIGHTSCF CHELPG PMODEL
| 29>
| 30> %scf
| 31> MaxIter 1000
| 32> end
| 33>
| 34> * xyz 0 1
| 35>   C                      -9.460971            -5.850150            -9.983236
| 36>   O                      -8.591912            -6.718918            -10.686473
| 37>   H                      -8.695396            -7.506844            -10.221084
| 38>   H                      -10.460182           -6.178799            -10.083656
| 39>   H                      -9.193688            -5.917862            -8.911150
| 40>   H                      -9.460853            -4.773154            -10.286841
| 41>   C                    : -8.143978            -6.388910            -5.973542
| 42>   O                    : -8.120722            -5.771291            -4.736894
| 43>   H                    : -8.424341            -4.836239            -4.837612
| 44>   H                    : -8.094001            -7.457910            -5.794814
| 45>   H                    : -9.053335            -6.044423            -6.514910
| 46>   H                    : -7.270860            -6.161837            -6.612663
| 47> *
| 48>
| 49> #Run DFT-D3 single point of the particle with dimer basis set
| 50> $new_job
| 51> %base "16-12_DFT_B"
| 52> ! wB97X-D3 def2-TZVP TIGHTSCF CHELPG PMODEL
| 53>
| 54> %scf
| 55> MaxIter 1000
| 56> end
| 57>
| 58> * xyz 0 1
| 59>   C                    : -9.460971            -5.850150            -9.983236
| 60>   O                    : -8.591912            -6.718918            -10.686473
| 61>   H                    : -8.695396            -7.506844            -10.221084
| 62>   H                    : -10.460182           -6.178799            -10.083656
| 63>   H                    : -9.193688            -5.917862            -8.911150
| 64>   H                    : -9.460853            -4.773154            -10.286841
| 65>   C                      -8.143978            -6.388910            -5.973542
| 66>   O                      -8.120722            -5.771291            -4.736894
| 67>   H                      -8.424341            -4.836239            -4.837612
| 68>   H                      -8.094001            -7.457910            -5.794814
| 69>   H                      -9.053335            -6.044423            -6.514910
| 70>   H                      -7.270860            -6.161837            -6.612663
| 71> *
| 72>
| 73>                          ****END OF INPUT****
 Total Charge           Charge          ....    0
 Multiplicity           Mult            ....    1
 Number of Electrons    NEL             ....   36
Dispersion correction           -0.001210295
FINAL SINGLE POINT ENERGY      -231.463784005029
Dispersion correction           -0.000213957
FINAL SINGLE POINT ENERGY      -115.729746443230

CARTESIAN COORDINATES (ANGSTROEM)
---------------------------------
  C     -9.460971   -5.850150   -9.983236
  O     -8.591912   -6.718918  -10.686473
  H     -8.695396   -7.506844  -10.221084
  H    -10.460182   -6.178799  -10.083656
  H     -9.193688   -5.917862   -8.911150
  H     -9.460853   -4.773154  -10.286841
  C     -8.143978   -6.388910   -5.973542
  O     -8.120722   -5.771291   -4.736894
  H     -8.424341   -4.836239   -4.837612
  H     -8.094001   -7.457910   -5.794814
  H     -9.053335   -6.044423   -6.514910
  H     -7.270860   -6.161837   -6.612663

 Multiplicity           Mult            ....    1
 Number of Electrons    NEL             ....   18
 Basis Dimension        Dim             ....  172

ORBITAL ENERGIES
----------------

  NO   OCC          E(Eh)            E(eV)
   0   2.0000     -19.231018      -523.3026
   1   2.0000     -10.312219      -280.6097
   2   2.0000      -1.140840       -31.0438
   3   2.0000      -0.789536       -21.4844
   4   2.0000      -0.614006       -16.7079
   5   2.0000      -0.543668       -14.7940
   6   2.0000      -0.529586       -14.4108
   7   2.0000      -0.431545       -11.7429
   8   2.0000      -0.367944       -10.0123
   9   0.0000       0.083002         2.2586
  10   0.0000       0.111359         3.0302
  11   0.0000       0.155280         4.2254
  12   0.0000       0.164168         4.4672
  13   0.0000       0.185424         5.0457

MULLIKEN ATOMIC CHARGES
-----------------------
   0 C :    0.004235
   1 O :   -0.000034
   2 H :   -0.000056
   3 H :   -0.000259
   4 H :   -0.008101
   5 H :   -0.000180
   6 C :   -0.153161
   7 O :   -0.470038
   8 H :    0.317721
   9 H :    0.116713
  10 H :    0.100472
  11 H :    0.092688
Sum of atomic charges:    0.0000000

LOEWDIN ATOMIC CHARGES
----------------------
   0 C :   -0.001370
   1 O :   -0.000016
   2 H :   -0.000018
   3 H :   -0.000024
   4 H :   -0.005331
   5 H :   -0.000014
   6 C :   -0.413512
   7 O :   -0.067228
   8 H :    0.186911
   9 H :    0.106799
  10 H :    0.100587
  11 H :    0.093218

  Mayer bond orders larger than 0.1
B(  6-C ,  7-O ) :   1.0112 B(  6-C ,  9-H ) :   0.9702 B(  6-C , 10-H ) :   0.9890
B(  6-C , 11-H ) :   0.9681 B(  7-O ,  8-H ) :   0.8937

Dispersion correction           -0.000230313
FINAL SINGLE POINT ENERGY      -115.733641545295

DIPOLE MOMENT
-------------
                                X             Y             Z
Electronic contribution:      0.05929       0.63733       1.69113
Nuclear contribution   :     -0.26195      -0.28778      -2.19807
                        -----------------------------------------
Total Dipole Moment    :     -0.20265       0.34955      -0.50694
                        -----------------------------------------
Magnitude (a.u.)       :      0.64827
Magnitude (Debye)      :      1.64776

Rotational constants in cm-1:     4.178163     0.867965     0.826000
Rotational constants in MHz : 125258.185563 26020.938223 24762.856294

                             ****ORCA TERMINATED NORMALLY****
TOTAL RUN TIME: 0 days 0 hours 0 minutes 50 seconds 205 msec
