                         Program Version 4.1.2  - RELEASE  -
|  1> #Run DFT-D3 single point of the dimer
|  2> ! wB97X-D3 def2-TZVP TIGHTSCF  CHELPG PAL8
|  3>
|  4> %base "54_charges"
|  5>
|  6> %scf
|  7> MaxIter 1000
|  8> end
|  9> %output
| 10>   Print[ P_Mayer ] 1
| 11>   Print[ P_NatPop ] 1
| 12>   Print[ P_Hirshfeld ] 1
| 13>   Print[ P_Mulliken ] 1
| 14>   Print [ P_Loewdin ] 1
| 15> end
| 16>
| 17> * xyz 0 1
| 18>   C                      1.217627             4.527298             5.335568
| 19>   O                      1.813239             3.554406             6.163367
| 20>   H                      1.508848             3.716373             7.056617
| 21>   H                      0.242277             4.765575             5.619763
| 22>   H                      1.884101             5.391251             5.213598
| 23>   H                      1.047946             4.133085             4.308583
| 24> *
| 25>
| 26>                          ****END OF INPUT****

CARTESIAN COORDINATES (ANGSTROEM)
---------------------------------
  C      1.217627    4.527298    5.335568
  O      1.813239    3.554406    6.163367
  H      1.508848    3.716373    7.056617
  H      0.242277    4.765575    5.619763
  H      1.884101    5.391251    5.213598
  H      1.047946    4.133085    4.308583

 Total Charge           Charge          ....    0
 Multiplicity           Mult            ....    1
 Number of Electrons    NEL             ....   18
 Basis Dimension        Dim             ....   86

ORBITAL ENERGIES
----------------

  NO   OCC          E(Eh)            E(eV)
   0   2.0000     -19.229738      -523.2678
   1   2.0000     -10.309012      -280.5225
   2   2.0000      -1.138203       -30.9721
   3   2.0000      -0.798212       -21.7204
   4   2.0000      -0.613767       -16.7015
   5   2.0000      -0.548190       -14.9170
   6   2.0000      -0.524467       -14.2715
   7   2.0000      -0.430549       -11.7158
   8   2.0000      -0.374933       -10.2024
   9   0.0000       0.117253         3.1906
  10   0.0000       0.154940         4.2161
  11   0.0000       0.201842         5.4924
  12   0.0000       0.206077         5.6076
  13   0.0000       0.230518         6.2727

MULLIKEN ATOMIC CHARGES
-----------------------
   0 C :   -0.157016
   1 O :   -0.473098
   2 H :    0.315561
   3 H :    0.105035
   4 H :    0.102199
   5 H :    0.107319
Sum of atomic charges:    0.0000000

LOEWDIN ATOMIC CHARGES
----------------------
   0 C :   -0.387874
   1 O :   -0.073010
   2 H :    0.168263
   3 H :    0.084661
   4 H :    0.097648
   5 H :    0.110311

  Mayer bond orders larger than 0.1
B(  0-C ,  1-O ) :   1.0085 B(  0-C ,  3-H ) :   0.9811 B(  0-C ,  4-H ) :   0.9780
B(  0-C ,  5-H ) :   0.9746 B(  1-O ,  2-H ) :   0.9000

Dispersion correction           -0.000240847
FINAL SINGLE POINT ENERGY      -115.732664372455

DIPOLE MOMENT
-------------
                                X             Y             Z
Electronic contribution:      0.79761      -1.25621       1.08516
Nuclear contribution   :     -1.26518       1.73143      -0.84312
                        -----------------------------------------
Total Dipole Moment    :     -0.46758       0.47522       0.24204
                        -----------------------------------------
Magnitude (a.u.)       :      0.70926
Magnitude (Debye)      :      1.80279

Rotational constants in cm-1:     4.402324     0.829601     0.809907
Rotational constants in MHz : 131978.367248 24870.809511 24280.396577

                             ****ORCA TERMINATED NORMALLY****
TOTAL RUN TIME: 0 days 0 hours 0 minutes 40 seconds 476 msec
