                         Program Version 4.1.2  - RELEASE  -
|  1> #Run DFT-D3 single point of the dimer
|  2> ! wB97X-D3 def2-TZVP TIGHTSCF CHELPG PMODEL PAL8
|  3>
|  4> %base "5-90_DFT_AB"
|  5>
|  6> %scf
|  7> MaxIter 1000
|  8> end
|  9>
| 10> * xyz 0 1
| 11>   C                      3.523408             -5.923778            2.070169
| 12>   O                      3.834441             -4.576411            1.836301
| 13>   H                      4.763971             -4.562166            1.509061
| 14>   H                      2.729272             -5.991882            2.856450
| 15>   H                      3.330591             -6.484672            1.252621
| 16>   H                      4.446997             -6.457884            2.510366
| 17>   C                      6.841558             -4.279358            3.593163
| 18>   O                      6.967058             -5.324514            2.727259
| 19>   H                      6.968686             -6.154978            3.242085
| 20>   H                      6.939423             -3.275139            3.211090
| 21>   H                      5.826904             -4.372985            4.033386
| 22>   H                      7.520350             -4.294207            4.443900
| 23> *
| 24>
| 25> #Run DFT-D3 single point of the molecule with dimer basis set
| 26> $new_job
| 27> %base "5-90_DFT_A"
| 28> ! wB97X-D3 def2-TZVP TIGHTSCF CHELPG PMODEL
| 29>
| 30> %scf
| 31> MaxIter 1000
| 32> end
| 33>
| 34> * xyz 0 1
| 35>   C                      3.523408             -5.923778            2.070169
| 36>   O                      3.834441             -4.576411            1.836301
| 37>   H                      4.763971             -4.562166            1.509061
| 38>   H                      2.729272             -5.991882            2.856450
| 39>   H                      3.330591             -6.484672            1.252621
| 40>   H                      4.446997             -6.457884            2.510366
| 41>   C                    : 6.841558             -4.279358            3.593163
| 42>   O                    : 6.967058             -5.324514            2.727259
| 43>   H                    : 6.968686             -6.154978            3.242085
| 44>   H                    : 6.939423             -3.275139            3.211090
| 45>   H                    : 5.826904             -4.372985            4.033386
| 46>   H                    : 7.520350             -4.294207            4.443900
| 47> *
| 48>
| 49> #Run DFT-D3 single point of the particle with dimer basis set
| 50> $new_job
| 51> %base "5-90_DFT_B"
| 52> ! wB97X-D3 def2-TZVP TIGHTSCF CHELPG PMODEL
| 53>
| 54> %scf
| 55> MaxIter 1000
| 56> end
| 57>
| 58> * xyz 0 1
| 59>   C                    : 3.523408             -5.923778            2.070169
| 60>   O                    : 3.834441             -4.576411            1.836301
| 61>   H                    : 4.763971             -4.562166            1.509061
| 62>   H                    : 2.729272             -5.991882            2.856450
| 63>   H                    : 3.330591             -6.484672            1.252621
| 64>   H                    : 4.446997             -6.457884            2.510366
| 65>   C                      6.841558             -4.279358            3.593163
| 66>   O                      6.967058             -5.324514            2.727259
| 67>   H                      6.968686             -6.154978            3.242085
| 68>   H                      6.939423             -3.275139            3.211090
| 69>   H                      5.826904             -4.372985            4.033386
| 70>   H                      7.520350             -4.294207            4.443900
| 71> *
| 72>
| 73>                          ****END OF INPUT****
 Total Charge           Charge          ....    0
 Multiplicity           Mult            ....    1
 Number of Electrons    NEL             ....   36
Dispersion correction           -0.002250874
FINAL SINGLE POINT ENERGY      -231.462384019621
Dispersion correction           -0.000230739
FINAL SINGLE POINT ENERGY      -115.726914086581

CARTESIAN COORDINATES (ANGSTROEM)
---------------------------------
  C      3.523408   -5.923778    2.070169
  O      3.834441   -4.576411    1.836301
  H      4.763971   -4.562166    1.509061
  H      2.729272   -5.991882    2.856450
  H      3.330591   -6.484672    1.252621
  H      4.446997   -6.457884    2.510366
  C      6.841558   -4.279358    3.593163
  O      6.967058   -5.324514    2.727259
  H      6.968686   -6.154978    3.242085
  H      6.939423   -3.275139    3.211090
  H      5.826904   -4.372985    4.033386
  H      7.520350   -4.294207    4.443900

 Multiplicity           Mult            ....    1
 Number of Electrons    NEL             ....   18
 Basis Dimension        Dim             ....  172

ORBITAL ENERGIES
----------------

  NO   OCC          E(Eh)            E(eV)
   0   2.0000     -19.233709      -523.3758
   1   2.0000     -10.308490      -280.5083
   2   2.0000      -1.151523       -31.3345
   3   2.0000      -0.794205       -21.6114
   4   2.0000      -0.621506       -16.9120
   5   2.0000      -0.548823       -14.9342
   6   2.0000      -0.536872       -14.6090
   7   2.0000      -0.428528       -11.6608
   8   2.0000      -0.367346        -9.9960
   9   0.0000       0.088321         2.4033
  10   0.0000       0.128410         3.4942
  11   0.0000       0.150220         4.0877
  12   0.0000       0.180131         4.9016
  13   0.0000       0.192346         5.2340

MULLIKEN ATOMIC CHARGES
-----------------------
   0 C :    0.009758
   1 O :    0.000122
   2 H :   -0.002096
   3 H :   -0.000468
   4 H :   -0.000844
   5 H :   -0.014769
   6 C :   -0.171398
   7 O :   -0.459907
   8 H :    0.323877
   9 H :    0.122158
  10 H :    0.092708
  11 H :    0.100859
Sum of atomic charges:   -0.0000000

LOEWDIN ATOMIC CHARGES
----------------------
   0 C :   -0.004720
   1 O :   -0.001419
   2 H :   -0.007163
   3 H :   -0.000070
   4 H :   -0.000054
   5 H :   -0.006652
   6 C :   -0.429779
   7 O :   -0.032893
   8 H :    0.188357
   9 H :    0.105849
  10 H :    0.097235
  11 H :    0.091310

  Mayer bond orders larger than 0.1
B(  6-C ,  7-O ) :   0.9958 B(  6-C ,  9-H ) :   0.9702 B(  6-C , 10-H ) :   0.9916
B(  6-C , 11-H ) :   0.9757 B(  7-O ,  8-H ) :   0.8880

Dispersion correction           -0.000218884
FINAL SINGLE POINT ENERGY      -115.730147380095

DIPOLE MOMENT
-------------
                                X             Y             Z
Electronic contribution:      0.31050      -1.27646      -1.42890
Nuclear contribution   :     -0.32510       1.14749       2.07331
                        -----------------------------------------
Total Dipole Moment    :     -0.01460      -0.12897       0.64441
                        -----------------------------------------
Magnitude (a.u.)       :      0.65735
Magnitude (Debye)      :      1.67086

Rotational constants in cm-1:     4.427949     0.871867     0.839841
Rotational constants in MHz : 132746.566491 26137.900407 25177.808332

                             ****ORCA TERMINATED NORMALLY****
TOTAL RUN TIME: 0 days 0 hours 1 minutes 5 seconds 234 msec
