                         Program Version 4.1.2  - RELEASE  -
|  1> #Run DFT-D3 single point of the dimer
|  2> ! wB97X-D3 def2-TZVP TIGHTSCF CHELPG PMODEL PAL8
|  3>
|  4> %base "7-156_DFT_AB"
|  5>
|  6> %scf
|  7> MaxIter 1000
|  8> end
|  9>
| 10> * xyz 0 1
| 11>   C                      -9.139240            8.319083             1.476346
| 12>   O                      -8.010366            7.972983             0.697965
| 13>   H                      -7.540517            8.761070             0.432908
| 14>   H                      -9.768225            8.955373             0.903564
| 15>   H                      -9.783392            7.442509             1.740151
| 16>   H                      -8.859082            8.852121             2.322857
| 17>   C                      -5.295898            11.164224            0.136350
| 18>   O                      -6.616473            10.667765            -0.056341
| 19>   H                      -7.210147            11.113672            0.608424
| 20>   H                      -4.571156            10.775748            -0.601910
| 21>   H                      -5.348116            12.251858            -0.002147
| 22>   H                      -4.977152            10.833678            1.153379
| 23> *
| 24>
| 25> #Run DFT-D3 single point of the molecule with dimer basis set
| 26> $new_job
| 27> %base "7-156_DFT_A"
| 28> ! wB97X-D3 def2-TZVP TIGHTSCF CHELPG PMODEL
| 29>
| 30> %scf
| 31> MaxIter 1000
| 32> end
| 33>
| 34> * xyz 0 1
| 35>   C                      -9.139240            8.319083             1.476346
| 36>   O                      -8.010366            7.972983             0.697965
| 37>   H                      -7.540517            8.761070             0.432908
| 38>   H                      -9.768225            8.955373             0.903564
| 39>   H                      -9.783392            7.442509             1.740151
| 40>   H                      -8.859082            8.852121             2.322857
| 41>   C                    : -5.295898            11.164224            0.136350
| 42>   O                    : -6.616473            10.667765            -0.056341
| 43>   H                    : -7.210147            11.113672            0.608424
| 44>   H                    : -4.571156            10.775748            -0.601910
| 45>   H                    : -5.348116            12.251858            -0.002147
| 46>   H                    : -4.977152            10.833678            1.153379
| 47> *
| 48>
| 49> #Run DFT-D3 single point of the particle with dimer basis set
| 50> $new_job
| 51> %base "7-156_DFT_B"
| 52> ! wB97X-D3 def2-TZVP TIGHTSCF CHELPG PMODEL
| 53>
| 54> %scf
| 55> MaxIter 1000
| 56> end
| 57>
| 58> * xyz 0 1
| 59>   C                    : -9.139240            8.319083             1.476346
| 60>   O                    : -8.010366            7.972983             0.697965
| 61>   H                    : -7.540517            8.761070             0.432908
| 62>   H                    : -9.768225            8.955373             0.903564
| 63>   H                    : -9.783392            7.442509             1.740151
| 64>   H                    : -8.859082            8.852121             2.322857
| 65>   C                      -5.295898            11.164224            0.136350
| 66>   O                      -6.616473            10.667765            -0.056341
| 67>   H                      -7.210147            11.113672            0.608424
| 68>   H                      -4.571156            10.775748            -0.601910
| 69>   H                      -5.348116            12.251858            -0.002147
| 70>   H                      -4.977152            10.833678            1.153379
| 71> *
| 72>
| 73>                          ****END OF INPUT****
 Total Charge           Charge          ....    0
 Multiplicity           Mult            ....    1
 Number of Electrons    NEL             ....   36
Dispersion correction           -0.001557913
FINAL SINGLE POINT ENERGY      -231.470972285823
Dispersion correction           -0.000225351
FINAL SINGLE POINT ENERGY      -115.732054257544

CARTESIAN COORDINATES (ANGSTROEM)
---------------------------------
  C     -9.139240    8.319083    1.476346
  O     -8.010366    7.972983    0.697965
  H     -7.540517    8.761070    0.432908
  H     -9.768225    8.955373    0.903564
  H     -9.783392    7.442509    1.740151
  H     -8.859082    8.852121    2.322857
  C     -5.295898   11.164224    0.136350
  O     -6.616473   10.667765   -0.056341
  H     -7.210147   11.113672    0.608424
  H     -4.571156   10.775748   -0.601910
  H     -5.348116   12.251858   -0.002147
  H     -4.977152   10.833678    1.153379

 Multiplicity           Mult            ....    1
 Number of Electrons    NEL             ....   18
 Basis Dimension        Dim             ....  172

ORBITAL ENERGIES
----------------

  NO   OCC          E(Eh)            E(eV)
   0   2.0000     -19.230234      -523.2813
   1   2.0000     -10.318491      -280.7804
   2   2.0000      -1.126009       -30.6403
   3   2.0000      -0.788385       -21.4530
   4   2.0000      -0.597529       -16.2596
   5   2.0000      -0.547968       -14.9110
   6   2.0000      -0.528781       -14.3889
   7   2.0000      -0.425661       -11.5828
   8   2.0000      -0.370894       -10.0925
   9   0.0000       0.086318         2.3488
  10   0.0000       0.124803         3.3961
  11   0.0000       0.153437         4.1752
  12   0.0000       0.183881         5.0037
  13   0.0000       0.194618         5.2958

MULLIKEN ATOMIC CHARGES
-----------------------
   0 C :   -0.002100
   1 O :    0.001047
   2 H :   -0.011492
   3 H :    0.000195
   4 H :   -0.000207
   5 H :   -0.000537
   6 C :   -0.161816
   7 O :   -0.477583
   8 H :    0.320687
   9 H :    0.123122
  10 H :    0.106669
  11 H :    0.102015
Sum of atomic charges:   -0.0000000

LOEWDIN ATOMIC CHARGES
----------------------
   0 C :   -0.002081
   1 O :   -0.002764
   2 H :   -0.029245
   3 H :   -0.000137
   4 H :   -0.000043
   5 H :   -0.000382
   6 C :   -0.382008
   7 O :   -0.081934
   8 H :    0.191221
   9 H :    0.110102
  10 H :    0.097748
  11 H :    0.099523

  Mayer bond orders larger than 0.1
B(  6-C ,  7-O ) :   0.9809 B(  6-C ,  9-H ) :   0.9701 B(  6-C , 10-H ) :   0.9766
B(  6-C , 11-H ) :   0.9806 B(  7-O ,  8-H ) :   0.8892

Dispersion correction           -0.000230395
FINAL SINGLE POINT ENERGY      -115.732561684903

DIPOLE MOMENT
-------------
                                X             Y             Z
Electronic contribution:     -1.52797      -0.69930      -0.39780
Nuclear contribution   :      1.70816       1.18728       0.86155
                        -----------------------------------------
Total Dipole Moment    :      0.18019       0.48798       0.46375
                        -----------------------------------------
Magnitude (a.u.)       :      0.69689
Magnitude (Debye)      :      1.77135

Rotational constants in cm-1:     4.096333     0.821743     0.798433
Rotational constants in MHz : 122804.980694 24635.238246 23936.423577

                             ****ORCA TERMINATED NORMALLY****
TOTAL RUN TIME: 0 days 0 hours 1 minutes 13 seconds 397 msec
