                         Program Version 4.1.2  - RELEASE  -
|  1> #Run DFT-D3 single point of the dimer
|  2> ! wB97X-D3 def2-TZVP TIGHTSCF CHELPG PMODEL PAL8
|  3>
|  4> %base "9-95_DFT_AB"
|  5>
|  6> %scf
|  7> MaxIter 1000
|  8> end
|  9>
| 10> * xyz 0 1
| 11>   C                      -2.747217            -1.439285            7.215734
| 12>   O                      -3.661565            -2.257749            7.941439
| 13>   H                      -4.087411            -2.914877            7.304557
| 14>   H                      -1.744539            -1.863552            7.165893
| 15>   H                      -3.187766            -1.140830            6.244377
| 16>   H                      -2.642980            -0.476722            7.720025
| 17>   C                      1.134466             1.669467             7.854700
| 18>   O                      0.471927             2.156405             8.954086
| 19>   H                      -0.458943            1.970741             8.862738
| 20>   H                      1.134125             0.515744             7.875608
| 21>   H                      0.764826             1.840313             6.822769
| 22>   H                      2.204869             1.978863             7.814812
| 23> *
| 24>
| 25> #Run DFT-D3 single point of the molecule with dimer basis set
| 26> $new_job
| 27> %base "9-95_DFT_A"
| 28> ! wB97X-D3 def2-TZVP TIGHTSCF CHELPG PMODEL
| 29>
| 30> %scf
| 31> MaxIter 1000
| 32> end
| 33>
| 34> * xyz 0 1
| 35>   C                      -2.747217            -1.439285            7.215734
| 36>   O                      -3.661565            -2.257749            7.941439
| 37>   H                      -4.087411            -2.914877            7.304557
| 38>   H                      -1.744539            -1.863552            7.165893
| 39>   H                      -3.187766            -1.140830            6.244377
| 40>   H                      -2.642980            -0.476722            7.720025
| 41>   C                    : 1.134466             1.669467             7.854700
| 42>   O                    : 0.471927             2.156405             8.954086
| 43>   H                    : -0.458943            1.970741             8.862738
| 44>   H                    : 1.134125             0.515744             7.875608
| 45>   H                    : 0.764826             1.840313             6.822769
| 46>   H                    : 2.204869             1.978863             7.814812
| 47> *
| 48>
| 49> #Run DFT-D3 single point of the particle with dimer basis set
| 50> $new_job
| 51> %base "9-95_DFT_B"
| 52> ! wB97X-D3 def2-TZVP TIGHTSCF CHELPG PMODEL
| 53>
| 54> %scf
| 55> MaxIter 1000
| 56> end
| 57>
| 58> * xyz 0 1
| 59>   C                    : -2.747217            -1.439285            7.215734
| 60>   O                    : -3.661565            -2.257749            7.941439
| 61>   H                    : -4.087411            -2.914877            7.304557
| 62>   H                    : -1.744539            -1.863552            7.165893
| 63>   H                    : -3.187766            -1.140830            6.244377
| 64>   H                    : -2.642980            -0.476722            7.720025
| 65>   C                      1.134466             1.669467             7.854700
| 66>   O                      0.471927             2.156405             8.954086
| 67>   H                      -0.458943            1.970741             8.862738
| 68>   H                      1.134125             0.515744             7.875608
| 69>   H                      0.764826             1.840313             6.822769
| 70>   H                      2.204869             1.978863             7.814812
| 71> *
| 72>
| 73>                          ****END OF INPUT****
 Total Charge           Charge          ....    0
 Multiplicity           Mult            ....    1
 Number of Electrons    NEL             ....   36
Dispersion correction           -0.000918196
FINAL SINGLE POINT ENERGY      -231.462412602990
Dispersion correction           -0.000258130
FINAL SINGLE POINT ENERGY      -115.732321398726

CARTESIAN COORDINATES (ANGSTROEM)
---------------------------------
  C     -2.747217   -1.439285    7.215734
  O     -3.661565   -2.257749    7.941439
  H     -4.087411   -2.914877    7.304557
  H     -1.744539   -1.863552    7.165893
  H     -3.187766   -1.140830    6.244377
  H     -2.642980   -0.476722    7.720025
  C      1.134466    1.669467    7.854700
  O      0.471927    2.156405    8.954086
  H     -0.458943    1.970741    8.862738
  H      1.134125    0.515744    7.875608
  H      0.764826    1.840313    6.822769
  H      2.204869    1.978863    7.814812

 Multiplicity           Mult            ....    1
 Number of Electrons    NEL             ....   18
 Basis Dimension        Dim             ....  172

ORBITAL ENERGIES
----------------

  NO   OCC          E(Eh)            E(eV)
   0   2.0000     -19.236939      -523.4637
   1   2.0000     -10.320487      -280.8347
   2   2.0000      -1.154387       -31.4125
   3   2.0000      -0.791592       -21.5403
   4   2.0000      -0.626490       -17.0476
   5   2.0000      -0.537559       -14.6277
   6   2.0000      -0.527105       -14.3433
   7   2.0000      -0.434228       -11.8160
   8   2.0000      -0.368909       -10.0385
   9   0.0000       0.074859         2.0370
  10   0.0000       0.113520         3.0890
  11   0.0000       0.144823         3.9408
  12   0.0000       0.173180         4.7125
  13   0.0000       0.182548         4.9674

MULLIKEN ATOMIC CHARGES
-----------------------
   0 C :    0.000192
   1 O :    0.000002
   2 H :    0.000000
   3 H :   -0.000184
   4 H :    0.000001
   5 H :   -0.000423
   6 C :   -0.175202
   7 O :   -0.454645
   8 H :    0.319278
   9 H :    0.088693
  10 H :    0.100169
  11 H :    0.122119
Sum of atomic charges:    0.0000000

LOEWDIN ATOMIC CHARGES
----------------------
   0 C :   -0.000122
   1 O :   -0.000004
   2 H :   -0.000000
   3 H :   -0.000147
   4 H :   -0.000003
   5 H :   -0.000264
   6 C :   -0.437915
   7 O :   -0.036188
   8 H :    0.171288
   9 H :    0.097895
  10 H :    0.093207
  11 H :    0.112253

  Mayer bond orders larger than 0.1
B(  6-C ,  7-O ) :   1.0109 B(  6-C ,  9-H ) :   0.9809 B(  6-C , 10-H ) :   0.9639
B(  6-C , 11-H ) :   0.9715 B(  7-O ,  8-H ) :   0.8959

Dispersion correction           -0.000259650
FINAL SINGLE POINT ENERGY      -115.729891210763

DIPOLE MOMENT
-------------
                                X             Y             Z
Electronic contribution:     -0.86837       0.94905       1.63120
Nuclear contribution   :      0.50460      -1.21389      -2.08700
                        -----------------------------------------
Total Dipole Moment    :     -0.36377      -0.26484      -0.45580
                        -----------------------------------------
Magnitude (a.u.)       :      0.64049
Magnitude (Debye)      :      1.62799

Rotational constants in cm-1:     4.333959     0.849379     0.814812
Rotational constants in MHz : 129928.827605 25463.737849 24427.434767

                             ****ORCA TERMINATED NORMALLY****
TOTAL RUN TIME: 0 days 0 hours 0 minutes 34 seconds 5 msec
