                         Program Version 4.1.2  - RELEASE  -
|  1> #Run DFT-D3 single point of the dimer
|  2> ! wB97X-D3 def2-TZVP TIGHTSCF CHELPG PMODEL PAL8
|  3>
|  4> %base "2-0_DFT_AB"
|  5>
|  6> %scf
|  7> MaxIter 1000
|  8> end
|  9>
| 10> * xyz 0 1
| 11>   C                      8.949076             -5.978823            1.374421
| 12>   O                      8.061541             -5.195316            2.119433
| 13>   H                      7.149420             -5.531842            2.087189
| 14>   H                      8.545516             -6.842409            0.887766
| 15>   H                      9.373425             -5.345801            0.537664
| 16>   H                      9.797121             -6.359743            1.900939
| 17>   C                      3.632446             -6.994954            3.184119
| 18>   O                      4.407674             -7.329784            1.949356
| 19>   H                      4.084722             -6.757850            1.277197
| 20>   H                      3.654814             -7.907382            3.783212
| 21>   H                      4.085916             -6.202538            3.691906
| 22>   H                      2.536765             -6.837212            2.963092
| 23> *
| 24>
| 25> #Run DFT-D3 single point of the molecule with dimer basis set
| 26> $new_job
| 27> %base "2-0_DFT_A"
| 28> ! wB97X-D3 def2-TZVP TIGHTSCF CHELPG PMODEL
| 29>
| 30> %scf
| 31> MaxIter 1000
| 32> end
| 33>
| 34> * xyz 0 1
| 35>   C                      8.949076             -5.978823            1.374421
| 36>   O                      8.061541             -5.195316            2.119433
| 37>   H                      7.149420             -5.531842            2.087189
| 38>   H                      8.545516             -6.842409            0.887766
| 39>   H                      9.373425             -5.345801            0.537664
| 40>   H                      9.797121             -6.359743            1.900939
| 41>   C                    : 3.632446             -6.994954            3.184119
| 42>   O                    : 4.407674             -7.329784            1.949356
| 43>   H                    : 4.084722             -6.757850            1.277197
| 44>   H                    : 3.654814             -7.907382            3.783212
| 45>   H                    : 4.085916             -6.202538            3.691906
| 46>   H                    : 2.536765             -6.837212            2.963092
| 47> *
| 48>
| 49> #Run DFT-D3 single point of the particle with dimer basis set
| 50> $new_job
| 51> %base "2-0_DFT_B"
| 52> ! wB97X-D3 def2-TZVP TIGHTSCF CHELPG PMODEL
| 53>
| 54> %scf
| 55> MaxIter 1000
| 56> end
| 57>
| 58> * xyz 0 1
| 59>   C                    : 8.949076             -5.978823            1.374421
| 60>   O                    : 8.061541             -5.195316            2.119433
| 61>   H                    : 7.149420             -5.531842            2.087189
| 62>   H                    : 8.545516             -6.842409            0.887766
| 63>   H                    : 9.373425             -5.345801            0.537664
| 64>   H                    : 9.797121             -6.359743            1.900939
| 65>   C                      3.632446             -6.994954            3.184119
| 66>   O                      4.407674             -7.329784            1.949356
| 67>   H                      4.084722             -6.757850            1.277197
| 68>   H                      3.654814             -7.907382            3.783212
| 69>   H                      4.085916             -6.202538            3.691906
| 70>   H                      2.536765             -6.837212            2.963092
| 71> *
| 72>
| 73>                          ****END OF INPUT****
 Total Charge           Charge          ....    0
 Multiplicity           Mult            ....    1
 Number of Electrons    NEL             ....   36
Dispersion correction           -0.001045818
FINAL SINGLE POINT ENERGY      -231.464601996119
Dispersion correction           -0.000265437
FINAL SINGLE POINT ENERGY      -115.731434374395

CARTESIAN COORDINATES (ANGSTROEM)
---------------------------------
  C      8.949076   -5.978823    1.374421
  O      8.061541   -5.195316    2.119433
  H      7.149420   -5.531842    2.087189
  H      8.545516   -6.842409    0.887766
  H      9.373425   -5.345801    0.537664
  H      9.797121   -6.359743    1.900939
  C      3.632446   -6.994954    3.184119
  O      4.407674   -7.329784    1.949356
  H      4.084722   -6.757850    1.277197
  H      3.654814   -7.907382    3.783212
  H      4.085916   -6.202538    3.691906
  H      2.536765   -6.837212    2.963092

 Multiplicity           Mult            ....    1
 Number of Electrons    NEL             ....   18
 Basis Dimension        Dim             ....  172

ORBITAL ENERGIES
----------------

  NO   OCC          E(Eh)            E(eV)
   0   2.0000     -19.227068      -523.1951
   1   2.0000     -10.318584      -280.7830
   2   2.0000      -1.117826       -30.4176
   3   2.0000      -0.801156       -21.8006
   4   2.0000      -0.594828       -16.1861
   5   2.0000      -0.549465       -14.9517
   6   2.0000      -0.510907       -13.9025
   7   2.0000      -0.438125       -11.9220
   8   2.0000      -0.379602       -10.3295
   9   0.0000       0.092918         2.5284
  10   0.0000       0.117936         3.2092
  11   0.0000       0.149854         4.0777
  12   0.0000       0.172499         4.6939
  13   0.0000       0.193781         5.2731

MULLIKEN ATOMIC CHARGES
-----------------------
   0 C :    0.000960
   1 O :    0.000617
   2 H :   -0.005611
   3 H :   -0.000644
   4 H :   -0.000045
   5 H :   -0.000035
   6 C :   -0.184153
   7 O :   -0.481187
   8 H :    0.307274
   9 H :    0.127123
  10 H :    0.123650
  11 H :    0.112052
Sum of atomic charges:   -0.0000000

LOEWDIN ATOMIC CHARGES
----------------------
   0 C :   -0.000178
   1 O :   -0.000092
   2 H :   -0.003603
   3 H :   -0.000153
   4 H :   -0.000001
   5 H :   -0.000001
   6 C :   -0.323634
   7 O :   -0.121687
   8 H :    0.146892
   9 H :    0.109645
  10 H :    0.086616
  11 H :    0.106196

  Mayer bond orders larger than 0.1
B(  6-C ,  7-O ) :   0.9912 B(  6-C ,  9-H ) :   0.9765 B(  6-C , 10-H ) :   0.9697
B(  6-C , 11-H ) :   0.9757 B(  7-O ,  8-H ) :   0.9097

Dispersion correction           -0.000266601
FINAL SINGLE POINT ENERGY      -115.730607403397

DIPOLE MOMENT
-------------
                                X             Y             Z
Electronic contribution:      1.02482      -0.35955      -1.34328
Nuclear contribution   :     -1.58421       0.85019       1.46760
                        -----------------------------------------
Total Dipole Moment    :     -0.55939       0.49064       0.12432
                        -----------------------------------------
Magnitude (a.u.)       :      0.75439
Magnitude (Debye)      :      1.91750

Rotational constants in cm-1:     4.265365     0.763835     0.742850
Rotational constants in MHz : 127872.436720 22899.209052 22270.073382

                             ****ORCA TERMINATED NORMALLY****
TOTAL RUN TIME: 0 days 0 hours 4 minutes 44 seconds 489 msec
