                         Program Version 4.1.2  - RELEASE  -
|  1> #Run DFT-D3 single point of the dimer
|  2> ! wB97X-D3 def2-TZVP TIGHTSCF CHELPG PMODEL PAL8
|  3>
|  4> %base "14-136_DFT_AB"
|  5>
|  6> %scf
|  7> MaxIter 1000
|  8> end
|  9>
| 10> * xyz 0 1
| 11>   C                      -5.134553            -7.098486            -11.157631
| 12>   O                      -6.287362            -7.656914            -11.565071
| 13>   H                      -6.782959            -7.946052            -10.769581
| 14>   H                      -4.525751            -6.722699            -12.042924
| 15>   H                      -5.230122            -6.248975            -10.453781
| 16>   H                      -4.588261            -7.930617            -10.645087
| 17>   C                      -7.578670            -8.509468            -8.167756
| 18>   O                      -7.835228            -8.917716            -9.481095
| 19>   H                      -8.546256            -9.584924            -9.387382
| 20>   H                      -8.346720            -7.836028            -7.752942
| 21>   H                      -7.781455            -9.428599            -7.614438
| 22>   H                      -6.493057            -8.257039            -8.086343
| 23> *
| 24>
| 25> #Run DFT-D3 single point of the molecule with dimer basis set
| 26> $new_job
| 27> %base "14-136_DFT_A"
| 28> ! wB97X-D3 def2-TZVP TIGHTSCF CHELPG PMODEL
| 29>
| 30> %scf
| 31> MaxIter 1000
| 32> end
| 33>
| 34> * xyz 0 1
| 35>   C                      -5.134553            -7.098486            -11.157631
| 36>   O                      -6.287362            -7.656914            -11.565071
| 37>   H                      -6.782959            -7.946052            -10.769581
| 38>   H                      -4.525751            -6.722699            -12.042924
| 39>   H                      -5.230122            -6.248975            -10.453781
| 40>   H                      -4.588261            -7.930617            -10.645087
| 41>   C                    : -7.578670            -8.509468            -8.167756
| 42>   O                    : -7.835228            -8.917716            -9.481095
| 43>   H                    : -8.546256            -9.584924            -9.387382
| 44>   H                    : -8.346720            -7.836028            -7.752942
| 45>   H                    : -7.781455            -9.428599            -7.614438
| 46>   H                    : -6.493057            -8.257039            -8.086343
| 47> *
| 48>
| 49> #Run DFT-D3 single point of the particle with dimer basis set
| 50> $new_job
| 51> %base "14-136_DFT_B"
| 52> ! wB97X-D3 def2-TZVP TIGHTSCF CHELPG PMODEL
| 53>
| 54> %scf
| 55> MaxIter 1000
| 56> end
| 57>
| 58> * xyz 0 1
| 59>   C                    : -5.134553            -7.098486            -11.157631
| 60>   O                    : -6.287362            -7.656914            -11.565071
| 61>   H                    : -6.782959            -7.946052            -10.769581
| 62>   H                    : -4.525751            -6.722699            -12.042924
| 63>   H                    : -5.230122            -6.248975            -10.453781
| 64>   H                    : -4.588261            -7.930617            -10.645087
| 65>   C                      -7.578670            -8.509468            -8.167756
| 66>   O                      -7.835228            -8.917716            -9.481095
| 67>   H                      -8.546256            -9.584924            -9.387382
| 68>   H                      -8.346720            -7.836028            -7.752942
| 69>   H                      -7.781455            -9.428599            -7.614438
| 70>   H                      -6.493057            -8.257039            -8.086343
| 71> *
| 72>
| 73>                          ****END OF INPUT****
 Total Charge           Charge          ....    0
 Multiplicity           Mult            ....    1
 Number of Electrons    NEL             ....   36
Dispersion correction           -0.001771184
FINAL SINGLE POINT ENERGY      -231.462865823820
Dispersion correction           -0.000213970
FINAL SINGLE POINT ENERGY      -115.729230039262

CARTESIAN COORDINATES (ANGSTROEM)
---------------------------------
  C     -5.134553   -7.098486  -11.157631
  O     -6.287362   -7.656914  -11.565071
  H     -6.782959   -7.946052  -10.769581
  H     -4.525751   -6.722699  -12.042924
  H     -5.230122   -6.248975  -10.453781
  H     -4.588261   -7.930617  -10.645087
  C     -7.578670   -8.509468   -8.167756
  O     -7.835228   -8.917716   -9.481095
  H     -8.546256   -9.584924   -9.387382
  H     -8.346720   -7.836028   -7.752942
  H     -7.781455   -9.428599   -7.614438
  H     -6.493057   -8.257039   -8.086343

 Multiplicity           Mult            ....    1
 Number of Electrons    NEL             ....   18
 Basis Dimension        Dim             ....  172

ORBITAL ENERGIES
----------------

  NO   OCC          E(Eh)            E(eV)
   0   2.0000     -19.229819      -523.2700
   1   2.0000     -10.314936      -280.6837
   2   2.0000      -1.140849       -31.0441
   3   2.0000      -0.786395       -21.3989
   4   2.0000      -0.615970       -16.7614
   5   2.0000      -0.545325       -14.8391
   6   2.0000      -0.525192       -14.2912
   7   2.0000      -0.432442       -11.7674
   8   2.0000      -0.368654       -10.0316
   9   0.0000       0.093559         2.5459
  10   0.0000       0.116860         3.1799
  11   0.0000       0.155662         4.2358
  12   0.0000       0.185347         5.0435
  13   0.0000       0.195639         5.3236

MULLIKEN ATOMIC CHARGES
-----------------------
   0 C :    0.002086
   1 O :    0.002098
   2 H :   -0.015870
   3 H :   -0.000034
   4 H :   -0.000171
   5 H :   -0.000822
   6 C :   -0.170554
   7 O :   -0.450580
   8 H :    0.309998
   9 H :    0.103022
  10 H :    0.093968
  11 H :    0.126858
Sum of atomic charges:    0.0000000

LOEWDIN ATOMIC CHARGES
----------------------
   0 C :   -0.001456
   1 O :   -0.005044
   2 H :   -0.041405
   3 H :   -0.000011
   4 H :   -0.000141
   5 H :   -0.000272
   6 C :   -0.399434
   7 O :   -0.042545
   8 H :    0.182048
   9 H :    0.096066
  10 H :    0.096638
  11 H :    0.115556

  Mayer bond orders larger than 0.1
B(  6-C ,  7-O ) :   0.9887 B(  6-C ,  9-H ) :   0.9621 B(  6-C , 10-H ) :   0.9953
B(  6-C , 11-H ) :   0.9730 B(  7-O ,  8-H ) :   0.9000

Dispersion correction           -0.000209515
FINAL SINGLE POINT ENERGY      -115.725888583406

DIPOLE MOMENT
-------------
                                X             Y             Z
Electronic contribution:     -0.12679      -0.19029      -1.74295
Nuclear contribution   :     -0.22018      -0.11404       2.31177
                        -----------------------------------------
Total Dipole Moment    :     -0.34697      -0.30433       0.56882
                        -----------------------------------------
Magnitude (a.u.)       :      0.73250
Magnitude (Debye)      :      1.86187

Rotational constants in cm-1:     4.063649     0.867301     0.823380
Rotational constants in MHz : 121825.124476 26001.019853 24684.300863

                             ****ORCA TERMINATED NORMALLY****
TOTAL RUN TIME: 0 days 0 hours 1 minutes 10 seconds 816 msec
