                         Program Version 4.1.2  - RELEASE  -
|  1> #Run DFT-D3 single point of the dimer
|  2> ! wB97X-D3 def2-TZVP TIGHTSCF CHELPG PMODEL PAL8
|  3>
|  4> %base "8-108_DFT_AB"
|  5>
|  6> %scf
|  7> MaxIter 1000
|  8> end
|  9>
| 10> * xyz 0 1
| 11>   C                      6.607193             -4.525845            4.377470
| 12>   O                      6.373419             -5.532670            3.540175
| 13>   H                      5.453092             -5.878373            3.648403
| 14>   H                      6.456532             -4.812050            5.465561
| 15>   H                      7.700353             -4.239288            4.432152
| 16>   H                      6.134564             -3.540531            4.143520
| 17>   C                      6.764283             -9.797262            4.796798
| 18>   O                      7.854235             -9.253086            5.558836
| 19>   H                      8.440373             -8.669675            5.044567
| 20>   H                      6.126712             -10.337744           5.499328
| 21>   H                      6.264568             -8.981207            4.208230
| 22>   H                      7.082795             -10.555114           4.057515
| 23> *
| 24>
| 25> #Run DFT-D3 single point of the molecule with dimer basis set
| 26> $new_job
| 27> %base "8-108_DFT_A"
| 28> ! wB97X-D3 def2-TZVP TIGHTSCF CHELPG PMODEL
| 29>
| 30> %scf
| 31> MaxIter 1000
| 32> end
| 33>
| 34> * xyz 0 1
| 35>   C                      6.607193             -4.525845            4.377470
| 36>   O                      6.373419             -5.532670            3.540175
| 37>   H                      5.453092             -5.878373            3.648403
| 38>   H                      6.456532             -4.812050            5.465561
| 39>   H                      7.700353             -4.239288            4.432152
| 40>   H                      6.134564             -3.540531            4.143520
| 41>   C                    : 6.764283             -9.797262            4.796798
| 42>   O                    : 7.854235             -9.253086            5.558836
| 43>   H                    : 8.440373             -8.669675            5.044567
| 44>   H                    : 6.126712             -10.337744           5.499328
| 45>   H                    : 6.264568             -8.981207            4.208230
| 46>   H                    : 7.082795             -10.555114           4.057515
| 47> *
| 48>
| 49> #Run DFT-D3 single point of the particle with dimer basis set
| 50> $new_job
| 51> %base "8-108_DFT_B"
| 52> ! wB97X-D3 def2-TZVP TIGHTSCF CHELPG PMODEL
| 53>
| 54> %scf
| 55> MaxIter 1000
| 56> end
| 57>
| 58> * xyz 0 1
| 59>   C                    : 6.607193             -4.525845            4.377470
| 60>   O                    : 6.373419             -5.532670            3.540175
| 61>   H                    : 5.453092             -5.878373            3.648403
| 62>   H                    : 6.456532             -4.812050            5.465561
| 63>   H                    : 7.700353             -4.239288            4.432152
| 64>   H                    : 6.134564             -3.540531            4.143520
| 65>   C                      6.764283             -9.797262            4.796798
| 66>   O                      7.854235             -9.253086            5.558836
| 67>   H                      8.440373             -8.669675            5.044567
| 68>   H                      6.126712             -10.337744           5.499328
| 69>   H                      6.264568             -8.981207            4.208230
| 70>   H                      7.082795             -10.555114           4.057515
| 71> *
| 72>
| 73>                          ****END OF INPUT****
 Total Charge           Charge          ....    0
 Multiplicity           Mult            ....    1
 Number of Electrons    NEL             ....   36
Dispersion correction           -0.001041578
FINAL SINGLE POINT ENERGY      -231.462672779333
Dispersion correction           -0.000250666
FINAL SINGLE POINT ENERGY      -115.727382822005

CARTESIAN COORDINATES (ANGSTROEM)
---------------------------------
  C      6.607193   -4.525845    4.377470
  O      6.373419   -5.532670    3.540175
  H      5.453092   -5.878373    3.648403
  H      6.456532   -4.812050    5.465561
  H      7.700353   -4.239288    4.432152
  H      6.134564   -3.540531    4.143520
  C      6.764283   -9.797262    4.796798
  O      7.854235   -9.253086    5.558836
  H      8.440373   -8.669675    5.044567
  H      6.126712  -10.337744    5.499328
  H      6.264568   -8.981207    4.208230
  H      7.082795  -10.555114    4.057515

 Multiplicity           Mult            ....    1
 Number of Electrons    NEL             ....   18
 Basis Dimension        Dim             ....  172

ORBITAL ENERGIES
----------------

  NO   OCC          E(Eh)            E(eV)
   0   2.0000     -19.228210      -523.2262
   1   2.0000     -10.320178      -280.8263
   2   2.0000      -1.122445       -30.5433
   3   2.0000      -0.794398       -21.6167
   4   2.0000      -0.605919       -16.4879
   5   2.0000      -0.536851       -14.6085
   6   2.0000      -0.521081       -14.1793
   7   2.0000      -0.430492       -11.7143
   8   2.0000      -0.370534       -10.0827
   9   0.0000       0.078428         2.1341
  10   0.0000       0.118435         3.2228
  11   0.0000       0.143557         3.9064
  12   0.0000       0.166200         4.5225
  13   0.0000       0.195809         5.3282

MULLIKEN ATOMIC CHARGES
-----------------------
   0 C :   -0.000297
   1 O :    0.000122
   2 H :   -0.000135
   3 H :   -0.000036
   4 H :    0.000037
   5 H :   -0.000006
   6 C :   -0.155988
   7 O :   -0.493412
   8 H :    0.316577
   9 H :    0.125801
  10 H :    0.104401
  11 H :    0.102938
Sum of atomic charges:    0.0000000

LOEWDIN ATOMIC CHARGES
----------------------
   0 C :   -0.000166
   1 O :   -0.000145
   2 H :   -0.000429
   3 H :   -0.000054
   4 H :   -0.000005
   5 H :   -0.000010
   6 C :   -0.370724
   7 O :   -0.104925
   8 H :    0.171382
   9 H :    0.109552
  10 H :    0.100808
  11 H :    0.094716

  Mayer bond orders larger than 0.1
B(  6-C ,  7-O ) :   0.9919 B(  6-C ,  9-H ) :   0.9729 B(  6-C , 10-H ) :   0.9763
B(  6-C , 11-H ) :   0.9696 B(  7-O ,  8-H ) :   0.8938

Dispersion correction           -0.000268595
FINAL SINGLE POINT ENERGY      -115.733872614986

DIPOLE MOMENT
-------------
                                X             Y             Z
Electronic contribution:      1.25847       0.62161       1.08608
Nuclear contribution   :     -1.33155      -0.48670      -1.73171
                        -----------------------------------------
Total Dipole Moment    :     -0.07308       0.13491      -0.64563
                        -----------------------------------------
Magnitude (a.u.)       :      0.66361
Magnitude (Debye)      :      1.68676

Rotational constants in cm-1:     4.222107     0.805905     0.771815
Rotational constants in MHz : 126575.598386 24160.418772 23138.432615

                             ****ORCA TERMINATED NORMALLY****
TOTAL RUN TIME: 0 days 0 hours 0 minutes 42 seconds 746 msec
