                         Program Version 4.1.2  - RELEASE  -
|  1> #Run DFT-D3 single point of the dimer
|  2> ! wB97X-D3 def2-TZVP TIGHTSCF CHELPG PMODEL PAL8
|  3>
|  4> %base "13-39_DFT_AB"
|  5>
|  6> %scf
|  7> MaxIter 1000
|  8> end
|  9>
| 10> * xyz 0 1
| 11>   C                      2.238468             -1.442492            -1.376394
| 12>   O                      1.121689             -1.733540            -0.514272
| 13>   H                      1.431541             -2.499082            -0.058163
| 14>   H                      3.190386             -1.760322            -0.835746
| 15>   H                      2.025457             -1.974779            -2.354060
| 16>   H                      2.293692             -0.377440            -1.575006
| 17>   C                      4.697885             2.676830             -3.820010
| 18>   O                      3.845238             1.593184             -3.666598
| 19>   H                      3.877542             1.067309             -4.520169
| 20>   H                      4.446421             3.201020             -4.783931
| 21>   H                      4.667096             3.453700             -3.069882
| 22>   H                      5.759132             2.426030             -3.948488
| 23> *
| 24>
| 25> #Run DFT-D3 single point of the molecule with dimer basis set
| 26> $new_job
| 27> %base "13-39_DFT_A"
| 28> ! wB97X-D3 def2-TZVP TIGHTSCF CHELPG PMODEL
| 29>
| 30> %scf
| 31> MaxIter 1000
| 32> end
| 33>
| 34> * xyz 0 1
| 35>   C                      2.238468             -1.442492            -1.376394
| 36>   O                      1.121689             -1.733540            -0.514272
| 37>   H                      1.431541             -2.499082            -0.058163
| 38>   H                      3.190386             -1.760322            -0.835746
| 39>   H                      2.025457             -1.974779            -2.354060
| 40>   H                      2.293692             -0.377440            -1.575006
| 41>   C                    : 4.697885             2.676830             -3.820010
| 42>   O                    : 3.845238             1.593184             -3.666598
| 43>   H                    : 3.877542             1.067309             -4.520169
| 44>   H                    : 4.446421             3.201020             -4.783931
| 45>   H                    : 4.667096             3.453700             -3.069882
| 46>   H                    : 5.759132             2.426030             -3.948488
| 47> *
| 48>
| 49> #Run DFT-D3 single point of the particle with dimer basis set
| 50> $new_job
| 51> %base "13-39_DFT_B"
| 52> ! wB97X-D3 def2-TZVP TIGHTSCF CHELPG PMODEL
| 53>
| 54> %scf
| 55> MaxIter 1000
| 56> end
| 57>
| 58> * xyz 0 1
| 59>   C                    : 2.238468             -1.442492            -1.376394
| 60>   O                    : 1.121689             -1.733540            -0.514272
| 61>   H                    : 1.431541             -2.499082            -0.058163
| 62>   H                    : 3.190386             -1.760322            -0.835746
| 63>   H                    : 2.025457             -1.974779            -2.354060
| 64>   H                    : 2.293692             -0.377440            -1.575006
| 65>   C                      4.697885             2.676830             -3.820010
| 66>   O                      3.845238             1.593184             -3.666598
| 67>   H                      3.877542             1.067309             -4.520169
| 68>   H                      4.446421             3.201020             -4.783931
| 69>   H                      4.667096             3.453700             -3.069882
| 70>   H                      5.759132             2.426030             -3.948488
| 71> *
| 72>
| 73>                          ****END OF INPUT****
 Total Charge           Charge          ....    0
 Multiplicity           Mult            ....    1
 Number of Electrons    NEL             ....   36
Dispersion correction           -0.000898402
FINAL SINGLE POINT ENERGY      -231.461969315868
Dispersion correction           -0.000233270
FINAL SINGLE POINT ENERGY      -115.730596032213

CARTESIAN COORDINATES (ANGSTROEM)
---------------------------------
  C      2.238468   -1.442492   -1.376394
  O      1.121689   -1.733540   -0.514272
  H      1.431541   -2.499082   -0.058163
  H      3.190386   -1.760322   -0.835746
  H      2.025457   -1.974779   -2.354060
  H      2.293692   -0.377440   -1.575006
  C      4.697885    2.676830   -3.820010
  O      3.845238    1.593184   -3.666598
  H      3.877542    1.067309   -4.520169
  H      4.446421    3.201020   -4.783931
  H      4.667096    3.453700   -3.069882
  H      5.759132    2.426030   -3.948488

 Multiplicity           Mult            ....    1
 Number of Electrons    NEL             ....   18
 Basis Dimension        Dim             ....  172

ORBITAL ENERGIES
----------------

  NO   OCC          E(Eh)            E(eV)
   0   2.0000     -19.237647      -523.4830
   1   2.0000     -10.313865      -280.6545
   2   2.0000      -1.139671       -31.0120
   3   2.0000      -0.791341       -21.5335
   4   2.0000      -0.613375       -16.6908
   5   2.0000      -0.537874       -14.6363
   6   2.0000      -0.536159       -14.5896
   7   2.0000      -0.430718       -11.7204
   8   2.0000      -0.369435       -10.0528
   9   0.0000       0.093686         2.5493
  10   0.0000       0.111193         3.0257
  11   0.0000       0.149710         4.0738
  12   0.0000       0.183345         4.9891
  13   0.0000       0.201964         5.4957

MULLIKEN ATOMIC CHARGES
-----------------------
   0 C :    0.000356
   1 O :   -0.000044
   2 H :   -0.000008
   3 H :   -0.000011
   4 H :   -0.000119
   5 H :   -0.003598
   6 C :   -0.169372
   7 O :   -0.462466
   8 H :    0.323734
   9 H :    0.091409
  10 H :    0.122918
  11 H :    0.097201
Sum of atomic charges:   -0.0000000

LOEWDIN ATOMIC CHARGES
----------------------
   0 C :   -0.001430
   1 O :   -0.000015
   2 H :   -0.000006
   3 H :   -0.000029
   4 H :   -0.000042
   5 H :   -0.002384
   6 C :   -0.418559
   7 O :   -0.072187
   8 H :    0.201072
   9 H :    0.097991
  10 H :    0.103870
  11 H :    0.091720

  Mayer bond orders larger than 0.1
B(  6-C ,  7-O ) :   1.0005 B(  6-C ,  9-H ) :   0.9865 B(  6-C , 10-H ) :   0.9714
B(  6-C , 11-H ) :   0.9705 B(  7-O ,  8-H ) :   0.8866

Dispersion correction           -0.000238572
FINAL SINGLE POINT ENERGY      -115.730347090355

DIPOLE MOMENT
-------------
                                X             Y             Z
Electronic contribution:     -1.21855      -1.47262       0.55465
Nuclear contribution   :      1.55746       1.56408      -1.14076
                        -----------------------------------------
Total Dipole Moment    :      0.33891       0.09146      -0.58611
                        -----------------------------------------
Magnitude (a.u.)       :      0.68319
Magnitude (Debye)      :      1.73653

Rotational constants in cm-1:     4.326258     0.844328     0.809566
Rotational constants in MHz : 129697.949910 25312.325112 24270.172581

                             ****ORCA TERMINATED NORMALLY****
TOTAL RUN TIME: 0 days 0 hours 1 minutes 9 seconds 136 msec
