                         Program Version 4.1.2  - RELEASE  -
|  1> #Run DFT-D3 single point of the dimer
|  2> ! wB97X-D3 def2-TZVP TIGHTSCF CHELPG PMODEL PAL8
|  3>
|  4> %base "15-209_DFT_AB"
|  5>
|  6> %scf
|  7> MaxIter 1000
|  8> end
|  9>
| 10> * xyz 0 1
| 11>   C                      5.561840             9.425816             -0.276154
| 12>   O                      6.689713             8.819843             -0.791196
| 13>   H                      6.817594             8.027454             -0.302918
| 14>   H                      5.761854             9.879597             0.725095
| 15>   H                      5.304196             10.222995            -1.050051
| 16>   H                      4.714096             8.755683             -0.068706
| 17>   C                      9.616065             10.513713            -2.234488
| 18>   O                      8.394692             10.811644            -1.556310
| 19>   H                      7.692681             10.128776            -1.800081
| 20>   H                      10.089924            11.355305            -2.697032
| 21>   H                      10.340557            10.067997            -1.554279
| 22>   H                      9.376554             9.849374             -3.025451
| 23> *
| 24>
| 25> #Run DFT-D3 single point of the molecule with dimer basis set
| 26> $new_job
| 27> %base "15-209_DFT_A"
| 28> ! wB97X-D3 def2-TZVP TIGHTSCF CHELPG PMODEL
| 29>
| 30> %scf
| 31> MaxIter 1000
| 32> end
| 33>
| 34> * xyz 0 1
| 35>   C                      5.561840             9.425816             -0.276154
| 36>   O                      6.689713             8.819843             -0.791196
| 37>   H                      6.817594             8.027454             -0.302918
| 38>   H                      5.761854             9.879597             0.725095
| 39>   H                      5.304196             10.222995            -1.050051
| 40>   H                      4.714096             8.755683             -0.068706
| 41>   C                    : 9.616065             10.513713            -2.234488
| 42>   O                    : 8.394692             10.811644            -1.556310
| 43>   H                    : 7.692681             10.128776            -1.800081
| 44>   H                    : 10.089924            11.355305            -2.697032
| 45>   H                    : 10.340557            10.067997            -1.554279
| 46>   H                    : 9.376554             9.849374             -3.025451
| 47> *
| 48>
| 49> #Run DFT-D3 single point of the particle with dimer basis set
| 50> $new_job
| 51> %base "15-209_DFT_B"
| 52> ! wB97X-D3 def2-TZVP TIGHTSCF CHELPG PMODEL
| 53>
| 54> %scf
| 55> MaxIter 1000
| 56> end
| 57>
| 58> * xyz 0 1
| 59>   C                    : 5.561840             9.425816             -0.276154
| 60>   O                    : 6.689713             8.819843             -0.791196
| 61>   H                    : 6.817594             8.027454             -0.302918
| 62>   H                    : 5.761854             9.879597             0.725095
| 63>   H                    : 5.304196             10.222995            -1.050051
| 64>   H                    : 4.714096             8.755683             -0.068706
| 65>   C                      9.616065             10.513713            -2.234488
| 66>   O                      8.394692             10.811644            -1.556310
| 67>   H                      7.692681             10.128776            -1.800081
| 68>   H                      10.089924            11.355305            -2.697032
| 69>   H                      10.340557            10.067997            -1.554279
| 70>   H                      9.376554             9.849374             -3.025451
| 71> *
| 72>
| 73>                          ****END OF INPUT****
 Total Charge           Charge          ....    0
 Multiplicity           Mult            ....    1
 Number of Electrons    NEL             ....   36
Dispersion correction           -0.001673452
FINAL SINGLE POINT ENERGY      -231.467072358748
Dispersion correction           -0.000229524
FINAL SINGLE POINT ENERGY      -115.732656923645

CARTESIAN COORDINATES (ANGSTROEM)
---------------------------------
  C      5.561840    9.425816   -0.276154
  O      6.689713    8.819843   -0.791196
  H      6.817594    8.027454   -0.302918
  H      5.761854    9.879597    0.725095
  H      5.304196   10.222995   -1.050051
  H      4.714096    8.755683   -0.068706
  C      9.616065   10.513713   -2.234488
  O      8.394692   10.811644   -1.556310
  H      7.692681   10.128776   -1.800081
  H     10.089924   11.355305   -2.697032
  H     10.340557   10.067997   -1.554279
  H      9.376554    9.849374   -3.025451

 Multiplicity           Mult            ....    1
 Number of Electrons    NEL             ....   18
 Basis Dimension        Dim             ....  172

ORBITAL ENERGIES
----------------

  NO   OCC          E(Eh)            E(eV)
   0   2.0000     -19.232599      -523.3456
   1   2.0000     -10.307670      -280.4860
   2   2.0000      -1.121540       -30.5187
   3   2.0000      -0.797477       -21.7005
   4   2.0000      -0.604110       -16.4387
   5   2.0000      -0.540750       -14.7145
   6   2.0000      -0.534010       -14.5311
   7   2.0000      -0.427217       -11.6252
   8   2.0000      -0.373329       -10.1588
   9   0.0000       0.074744         2.0339
  10   0.0000       0.126896         3.4530
  11   0.0000       0.152396         4.1469
  12   0.0000       0.168194         4.5768
  13   0.0000       0.194720         5.2986

MULLIKEN ATOMIC CHARGES
-----------------------
   0 C :   -0.003439
   1 O :   -0.005096
   2 H :   -0.000671
   3 H :   -0.000119
   4 H :   -0.000841
   5 H :    0.000138
   6 C :   -0.165183
   7 O :   -0.474443
   8 H :    0.318821
   9 H :    0.114429
  10 H :    0.108353
  11 H :    0.108051
Sum of atomic charges:    0.0000000

LOEWDIN ATOMIC CHARGES
----------------------
   0 C :   -0.007851
   1 O :   -0.025217
   2 H :   -0.001540
   3 H :   -0.000421
   4 H :   -0.001466
   5 H :   -0.000099
   6 C :   -0.367462
   7 O :   -0.094633
   8 H :    0.209141
   9 H :    0.098838
  10 H :    0.098090
  11 H :    0.092621

  Mayer bond orders larger than 0.1
B(  6-C ,  7-O ) :   1.0100 B(  6-C ,  9-H ) :   0.9716 B(  6-C , 10-H ) :   0.9748
B(  6-C , 11-H ) :   0.9917 B(  7-O ,  8-H ) :   0.8918

Dispersion correction           -0.000246641
FINAL SINGLE POINT ENERGY      -115.730919169478

DIPOLE MOMENT
-------------
                                X             Y             Z
Electronic contribution:     -1.41496       0.54755       0.91374
Nuclear contribution   :      1.48894      -1.09161      -1.37957
                        -----------------------------------------
Total Dipole Moment    :      0.07398      -0.54407      -0.46584
                        -----------------------------------------
Magnitude (a.u.)       :      0.72006
Magnitude (Debye)      :      1.83025

Rotational constants in cm-1:     4.387280     0.815383     0.787644
Rotational constants in MHz : 131527.352928 24444.579475 23612.980805

                             ****ORCA TERMINATED NORMALLY****
TOTAL RUN TIME: 0 days 0 hours 1 minutes 6 seconds 242 msec
