                         Program Version 4.1.2  - RELEASE  -
|  1> #Run DFT-D3 single point of the dimer
|  2> ! wB97X-D3 def2-TZVP TIGHTSCF CHELPG PMODEL PAL8
|  3>
|  4> %base "9-18_DFT_AB"
|  5>
|  6> %scf
|  7> MaxIter 1000
|  8> end
|  9>
| 10> * xyz 0 1
| 11>   C                      1.487376             -0.428665            4.266690
| 12>   O                      2.630056             -0.194025            5.057445
| 13>   H                      2.762876             -0.876611            5.745413
| 14>   H                      1.308714             0.285588             3.519412
| 15>   H                      1.633911             -1.323911            3.744331
| 16>   H                      0.553844             -0.624710            4.835763
| 17>   C                      1.711450             -2.320812            7.646247
| 18>   O                      2.272455             -2.607682            6.372565
| 19>   H                      2.541367             -3.494958            6.384661
| 20>   H                      1.660441             -3.176239            8.294267
| 21>   H                      2.251824             -1.474142            8.110296
| 22>   H                      0.626260             -1.930606            7.640705
| 23> *
| 24>
| 25> #Run DFT-D3 single point of the molecule with dimer basis set
| 26> $new_job
| 27> %base "9-18_DFT_A"
| 28> ! wB97X-D3 def2-TZVP TIGHTSCF CHELPG PMODEL
| 29>
| 30> %scf
| 31> MaxIter 1000
| 32> end
| 33>
| 34> * xyz 0 1
| 35>   C                      1.487376             -0.428665            4.266690
| 36>   O                      2.630056             -0.194025            5.057445
| 37>   H                      2.762876             -0.876611            5.745413
| 38>   H                      1.308714             0.285588             3.519412
| 39>   H                      1.633911             -1.323911            3.744331
| 40>   H                      0.553844             -0.624710            4.835763
| 41>   C                    : 1.711450             -2.320812            7.646247
| 42>   O                    : 2.272455             -2.607682            6.372565
| 43>   H                    : 2.541367             -3.494958            6.384661
| 44>   H                    : 1.660441             -3.176239            8.294267
| 45>   H                    : 2.251824             -1.474142            8.110296
| 46>   H                    : 0.626260             -1.930606            7.640705
| 47> *
| 48>
| 49> #Run DFT-D3 single point of the particle with dimer basis set
| 50> $new_job
| 51> %base "9-18_DFT_B"
| 52> ! wB97X-D3 def2-TZVP TIGHTSCF CHELPG PMODEL
| 53>
| 54> %scf
| 55> MaxIter 1000
| 56> end
| 57>
| 58> * xyz 0 1
| 59>   C                    : 1.487376             -0.428665            4.266690
| 60>   O                    : 2.630056             -0.194025            5.057445
| 61>   H                    : 2.762876             -0.876611            5.745413
| 62>   H                    : 1.308714             0.285588             3.519412
| 63>   H                    : 1.633911             -1.323911            3.744331
| 64>   H                    : 0.553844             -0.624710            4.835763
| 65>   C                      1.711450             -2.320812            7.646247
| 66>   O                      2.272455             -2.607682            6.372565
| 67>   H                      2.541367             -3.494958            6.384661
| 68>   H                      1.660441             -3.176239            8.294267
| 69>   H                      2.251824             -1.474142            8.110296
| 70>   H                      0.626260             -1.930606            7.640705
| 71> *
| 72>
| 73>                          ****END OF INPUT****
 Total Charge           Charge          ....    0
 Multiplicity           Mult            ....    1
 Number of Electrons    NEL             ....   36
Dispersion correction           -0.002201130
FINAL SINGLE POINT ENERGY      -231.466597347570
Dispersion correction           -0.000243512
FINAL SINGLE POINT ENERGY      -115.730079726312

CARTESIAN COORDINATES (ANGSTROEM)
---------------------------------
  C      1.487376   -0.428665    4.266690
  O      2.630056   -0.194025    5.057445
  H      2.762876   -0.876611    5.745413
  H      1.308714    0.285588    3.519412
  H      1.633911   -1.323911    3.744331
  H      0.553844   -0.624710    4.835763
  C      1.711450   -2.320812    7.646247
  O      2.272455   -2.607682    6.372565
  H      2.541367   -3.494958    6.384661
  H      1.660441   -3.176239    8.294267
  H      2.251824   -1.474142    8.110296
  H      0.626260   -1.930606    7.640705

 Multiplicity           Mult            ....    1
 Number of Electrons    NEL             ....   18
 Basis Dimension        Dim             ....  172

ORBITAL ENERGIES
----------------

  NO   OCC          E(Eh)            E(eV)
   0   2.0000     -19.232101      -523.3321
   1   2.0000     -10.319990      -280.8212
   2   2.0000      -1.144126       -31.1333
   3   2.0000      -0.796512       -21.6742
   4   2.0000      -0.619878       -16.8677
   5   2.0000      -0.535416       -14.5694
   6   2.0000      -0.523989       -14.2585
   7   2.0000      -0.441121       -12.0035
   8   2.0000      -0.372896       -10.1470
   9   0.0000       0.101071         2.7503
  10   0.0000       0.131533         3.5792
  11   0.0000       0.146460         3.9854
  12   0.0000       0.181170         4.9299
  13   0.0000       0.190990         5.1971

MULLIKEN ATOMIC CHARGES
-----------------------
   0 C :    0.010806
   1 O :    0.001853
   2 H :   -0.009280
   3 H :   -0.000448
   4 H :   -0.006922
   5 H :   -0.003397
   6 C :   -0.183315
   7 O :   -0.454235
   8 H :    0.306836
   9 H :    0.117661
  10 H :    0.117051
  11 H :    0.103390
Sum of atomic charges:    0.0000000

LOEWDIN ATOMIC CHARGES
----------------------
   0 C :   -0.011551
   1 O :   -0.006021
   2 H :   -0.037672
   3 H :   -0.000132
   4 H :   -0.002889
   5 H :   -0.001375
   6 C :   -0.382333
   7 O :   -0.014912
   8 H :    0.148187
   9 H :    0.094191
  10 H :    0.105052
  11 H :    0.109454

  Mayer bond orders larger than 0.1
B(  6-C ,  7-O ) :   1.0027 B(  6-C ,  9-H ) :   0.9753 B(  6-C , 10-H ) :   0.9808
B(  6-C , 11-H ) :   0.9707 B(  7-O ,  8-H ) :   0.9078

Dispersion correction           -0.000266744
FINAL SINGLE POINT ENERGY      -115.730726919172

DIPOLE MOMENT
-------------
                                X             Y             Z
Electronic contribution:      0.81802      -0.38278      -1.72546
Nuclear contribution   :     -0.85517      -0.11433       2.25007
                        -----------------------------------------
Total Dipole Moment    :     -0.03715      -0.49712       0.52461
                        -----------------------------------------
Magnitude (a.u.)       :      0.72368
Magnitude (Debye)      :      1.83945

Rotational constants in cm-1:     4.362533     0.814775     0.784631
Rotational constants in MHz : 130785.439318 24426.348267 23522.633397

                             ****ORCA TERMINATED NORMALLY****
TOTAL RUN TIME: 0 days 0 hours 0 minutes 48 seconds 960 msec
