                         Program Version 4.1.2  - RELEASE  -
|  1> #Run DFT-D3 single point of the dimer
|  2> ! wB97X-D3 def2-TZVP TIGHTSCF CHELPG PMODEL PAL8
|  3>
|  4> %base "12-162_DFT_AB"
|  5>
|  6> %scf
|  7> MaxIter 1000
|  8> end
|  9>
| 10> * xyz 0 1
| 11>   C                      3.956507             1.040913             5.712762
| 12>   O                      3.270265             1.004791             4.430066
| 13>   H                      3.128892             0.085421             4.125084
| 14>   H                      4.511918             0.105670             5.938413
| 15>   H                      4.750110             1.797890             5.820601
| 16>   H                      3.207458             1.201066             6.457133
| 17>   C                      1.590600             -0.980868            2.492929
| 18>   O                      2.937209             -0.939145            2.529319
| 19>   H                      3.227373             -1.159789            1.612435
| 20>   H                      1.169259             -0.577005            3.453781
| 21>   H                      1.201736             -0.200204            1.754803
| 22>   H                      1.051624             -1.932593            2.215650
| 23> *
| 24>
| 25> #Run DFT-D3 single point of the molecule with dimer basis set
| 26> $new_job
| 27> %base "12-162_DFT_A"
| 28> ! wB97X-D3 def2-TZVP TIGHTSCF CHELPG PMODEL
| 29>
| 30> %scf
| 31> MaxIter 1000
| 32> end
| 33>
| 34> * xyz 0 1
| 35>   C                      3.956507             1.040913             5.712762
| 36>   O                      3.270265             1.004791             4.430066
| 37>   H                      3.128892             0.085421             4.125084
| 38>   H                      4.511918             0.105670             5.938413
| 39>   H                      4.750110             1.797890             5.820601
| 40>   H                      3.207458             1.201066             6.457133
| 41>   C                    : 1.590600             -0.980868            2.492929
| 42>   O                    : 2.937209             -0.939145            2.529319
| 43>   H                    : 3.227373             -1.159789            1.612435
| 44>   H                    : 1.169259             -0.577005            3.453781
| 45>   H                    : 1.201736             -0.200204            1.754803
| 46>   H                    : 1.051624             -1.932593            2.215650
| 47> *
| 48>
| 49> #Run DFT-D3 single point of the particle with dimer basis set
| 50> $new_job
| 51> %base "12-162_DFT_B"
| 52> ! wB97X-D3 def2-TZVP TIGHTSCF CHELPG PMODEL
| 53>
| 54> %scf
| 55> MaxIter 1000
| 56> end
| 57>
| 58> * xyz 0 1
| 59>   C                    : 3.956507             1.040913             5.712762
| 60>   O                    : 3.270265             1.004791             4.430066
| 61>   H                    : 3.128892             0.085421             4.125084
| 62>   H                    : 4.511918             0.105670             5.938413
| 63>   H                    : 4.750110             1.797890             5.820601
| 64>   H                    : 3.207458             1.201066             6.457133
| 65>   C                      1.590600             -0.980868            2.492929
| 66>   O                      2.937209             -0.939145            2.529319
| 67>   H                      3.227373             -1.159789            1.612435
| 68>   H                      1.169259             -0.577005            3.453781
| 69>   H                      1.201736             -0.200204            1.754803
| 70>   H                      1.051624             -1.932593            2.215650
| 71> *
| 72>
| 73>                          ****END OF INPUT****
 Total Charge           Charge          ....    0
 Multiplicity           Mult            ....    1
 Number of Electrons    NEL             ....   36
Dispersion correction           -0.001663980
FINAL SINGLE POINT ENERGY      -231.462600409569
Dispersion correction           -0.000276936
FINAL SINGLE POINT ENERGY      -115.731207989083

CARTESIAN COORDINATES (ANGSTROEM)
---------------------------------
  C      3.956507    1.040913    5.712762
  O      3.270265    1.004791    4.430066
  H      3.128892    0.085421    4.125084
  H      4.511918    0.105670    5.938413
  H      4.750110    1.797890    5.820601
  H      3.207458    1.201066    6.457133
  C      1.590600   -0.980868    2.492929
  O      2.937209   -0.939145    2.529319
  H      3.227373   -1.159789    1.612435
  H      1.169259   -0.577005    3.453781
  H      1.201736   -0.200204    1.754803
  H      1.051624   -1.932593    2.215650

 Multiplicity           Mult            ....    1
 Number of Electrons    NEL             ....   18
 Basis Dimension        Dim             ....  172

ORBITAL ENERGIES
----------------

  NO   OCC          E(Eh)            E(eV)
   0   2.0000     -19.240600      -523.5633
   1   2.0000     -10.319171      -280.7989
   2   2.0000      -1.160498       -31.5788
   3   2.0000      -0.783160       -21.3109
   4   2.0000      -0.623018       -16.9532
   5   2.0000      -0.542830       -14.7711
   6   2.0000      -0.534474       -14.5438
   7   2.0000      -0.428276       -11.6540
   8   2.0000      -0.369784       -10.0623
   9   0.0000       0.096398         2.6231
  10   0.0000       0.116016         3.1569
  11   0.0000       0.150029         4.0825
  12   0.0000       0.184337         5.0161
  13   0.0000       0.199695         5.4340

MULLIKEN ATOMIC CHARGES
-----------------------
   0 C :   -0.000498
   1 O :    0.001270
   2 H :   -0.004450
   3 H :   -0.000244
   4 H :    0.000034
   5 H :   -0.000040
   6 C :   -0.178141
   7 O :   -0.434395
   8 H :    0.317078
   9 H :    0.111949
  10 H :    0.087788
  11 H :    0.099648
Sum of atomic charges:   -0.0000000

LOEWDIN ATOMIC CHARGES
----------------------
   0 C :   -0.000763
   1 O :   -0.009037
   2 H :   -0.036025
   3 H :   -0.000101
   4 H :   -0.000006
   5 H :   -0.000021
   6 C :   -0.458280
   7 O :    0.001817
   8 H :    0.194272
   9 H :    0.115403
  10 H :    0.096497
  11 H :    0.096245

  Mayer bond orders larger than 0.1
B(  6-C ,  7-O ) :   1.0089 B(  6-C ,  9-H ) :   0.9783 B(  6-C , 10-H ) :   0.9819
B(  6-C , 11-H ) :   0.9584 B(  7-O ,  8-H ) :   0.8892

Dispersion correction           -0.000237296
FINAL SINGLE POINT ENERGY      -115.728402707705

DIPOLE MOMENT
-------------
                                X             Y             Z
Electronic contribution:      2.02562      -0.10864       0.26203
Nuclear contribution   :     -2.27755      -0.03371      -0.83433
                        -----------------------------------------
Total Dipole Moment    :     -0.25192      -0.14235      -0.57231
                        -----------------------------------------
Magnitude (a.u.)       :      0.64130
Magnitude (Debye)      :      1.63005

Rotational constants in cm-1:     4.131708     0.882565     0.846338
Rotational constants in MHz : 123865.480462 26458.625684 25372.575844

                             ****ORCA TERMINATED NORMALLY****
TOTAL RUN TIME: 0 days 0 hours 1 minutes 16 seconds 864 msec
