                         Program Version 4.1.2  - RELEASE  -
|  1> #Run DFT-D3 single point of the dimer
|  2> ! wB97X-D3 def2-TZVP TIGHTSCF CHELPG PMODEL PAL8
|  3>
|  4> %base "16-25_DFT_AB"
|  5>
|  6> %scf
|  7> MaxIter 1000
|  8> end
|  9>
| 10> * xyz 0 1
| 11>   C                      4.271779             4.712240             5.343485
| 12>   O                      4.861457             5.690898             4.454410
| 13>   H                      4.587557             5.662843             3.570705
| 14>   H                      4.713760             3.664029             5.121006
| 15>   H                      4.705710             4.923602             6.335144
| 16>   H                      3.190266             4.808637             5.377588
| 17>   C                      2.553177             1.336763             7.634235
| 18>   O                      3.440650             1.886024             8.638546
| 19>   H                      3.857186             1.178551             9.176372
| 20>   H                      2.465323             1.793510             6.596989
| 21>   H                      2.849196             0.187880             7.390275
| 22>   H                      1.626537             1.296802             8.128594
| 23> *
| 24>
| 25> #Run DFT-D3 single point of the molecule with dimer basis set
| 26> $new_job
| 27> %base "16-25_DFT_A"
| 28> ! wB97X-D3 def2-TZVP TIGHTSCF CHELPG PMODEL
| 29>
| 30> %scf
| 31> MaxIter 1000
| 32> end
| 33>
| 34> * xyz 0 1
| 35>   C                      4.271779             4.712240             5.343485
| 36>   O                      4.861457             5.690898             4.454410
| 37>   H                      4.587557             5.662843             3.570705
| 38>   H                      4.713760             3.664029             5.121006
| 39>   H                      4.705710             4.923602             6.335144
| 40>   H                      3.190266             4.808637             5.377588
| 41>   C                    : 2.553177             1.336763             7.634235
| 42>   O                    : 3.440650             1.886024             8.638546
| 43>   H                    : 3.857186             1.178551             9.176372
| 44>   H                    : 2.465323             1.793510             6.596989
| 45>   H                    : 2.849196             0.187880             7.390275
| 46>   H                    : 1.626537             1.296802             8.128594
| 47> *
| 48>
| 49> #Run DFT-D3 single point of the particle with dimer basis set
| 50> $new_job
| 51> %base "16-25_DFT_B"
| 52> ! wB97X-D3 def2-TZVP TIGHTSCF CHELPG PMODEL
| 53>
| 54> %scf
| 55> MaxIter 1000
| 56> end
| 57>
| 58> * xyz 0 1
| 59>   C                    : 4.271779             4.712240             5.343485
| 60>   O                    : 4.861457             5.690898             4.454410
| 61>   H                    : 4.587557             5.662843             3.570705
| 62>   H                    : 4.713760             3.664029             5.121006
| 63>   H                    : 4.705710             4.923602             6.335144
| 64>   H                    : 3.190266             4.808637             5.377588
| 65>   C                      2.553177             1.336763             7.634235
| 66>   O                      3.440650             1.886024             8.638546
| 67>   H                      3.857186             1.178551             9.176372
| 68>   H                      2.465323             1.793510             6.596989
| 69>   H                      2.849196             0.187880             7.390275
| 70>   H                      1.626537             1.296802             8.128594
| 71> *
| 72>
| 73>                          ****END OF INPUT****
 Total Charge           Charge          ....    0
 Multiplicity           Mult            ....    1
 Number of Electrons    NEL             ....   36
Dispersion correction           -0.001171578
FINAL SINGLE POINT ENERGY      -231.447826863972
Dispersion correction           -0.000280228
FINAL SINGLE POINT ENERGY      -115.729133633851

CARTESIAN COORDINATES (ANGSTROEM)
---------------------------------
  C      4.271779    4.712240    5.343485
  O      4.861457    5.690898    4.454410
  H      4.587557    5.662843    3.570705
  H      4.713760    3.664029    5.121006
  H      4.705710    4.923602    6.335144
  H      3.190266    4.808637    5.377588
  C      2.553177    1.336763    7.634235
  O      3.440650    1.886024    8.638546
  H      3.857186    1.178551    9.176372
  H      2.465323    1.793510    6.596989
  H      2.849196    0.187880    7.390275
  H      1.626537    1.296802    8.128594

 Multiplicity           Mult            ....    1
 Number of Electrons    NEL             ....   18
 Basis Dimension        Dim             ....  172

ORBITAL ENERGIES
----------------

  NO   OCC          E(Eh)            E(eV)
   0   2.0000     -19.231384      -523.3126
   1   2.0000     -10.329465      -281.0790
   2   2.0000      -1.120995       -30.5038
   3   2.0000      -0.789564       -21.4851
   4   2.0000      -0.598734       -16.2924
   5   2.0000      -0.545062       -14.8319
   6   2.0000      -0.516675       -14.0595
   7   2.0000      -0.418679       -11.3928
   8   2.0000      -0.373799       -10.1716
   9   0.0000       0.087916         2.3923
  10   0.0000       0.109779         2.9872
  11   0.0000       0.142070         3.8659
  12   0.0000       0.163435         4.4473
  13   0.0000       0.190053         5.1716

MULLIKEN ATOMIC CHARGES
-----------------------
   0 C :    0.000819
   1 O :    0.000017
   2 H :    0.000006
   3 H :   -0.000162
   4 H :   -0.000707
   5 H :   -0.000273
   6 C :   -0.185670
   7 O :   -0.488603
   8 H :    0.325032
   9 H :    0.129183
  10 H :    0.092732
  11 H :    0.127624
Sum of atomic charges:    0.0000000

LOEWDIN ATOMIC CHARGES
----------------------
   0 C :   -0.000829
   1 O :   -0.000011
   2 H :   -0.000002
   3 H :   -0.000222
   4 H :   -0.000259
   5 H :   -0.000240
   6 C :   -0.374024
   7 O :   -0.117468
   8 H :    0.180977
   9 H :    0.114182
  10 H :    0.109507
  11 H :    0.088388

  Mayer bond orders larger than 0.1
B(  6-C ,  7-O ) :   0.9836 B(  6-C ,  9-H ) :   0.9588 B(  6-C , 10-H ) :   0.9813
B(  6-C , 11-H ) :   0.9799 B(  7-O ,  8-H ) :   0.8890

Dispersion correction           -0.000283381
FINAL SINGLE POINT ENERGY      -115.717800086615

DIPOLE MOMENT
-------------
                                X             Y             Z
Electronic contribution:      1.05978       1.08276       1.19443
Nuclear contribution   :     -1.17642      -1.75487      -1.25534
                        -----------------------------------------
Total Dipole Moment    :     -0.11664      -0.67211      -0.06091
                        -----------------------------------------
Magnitude (a.u.)       :      0.68487
Magnitude (Debye)      :      1.74080

Rotational constants in cm-1:     4.164303     0.783165     0.752456
Rotational constants in MHz : 124842.655802 23478.685608 22558.063307

                             ****ORCA TERMINATED NORMALLY****
TOTAL RUN TIME: 0 days 0 hours 0 minutes 54 seconds 263 msec
