                         Program Version 4.1.2  - RELEASE  -
|  1> #Run DFT-D3 single point of the dimer
|  2> ! wB97X-D3 def2-TZVP TIGHTSCF CHELPG PMODEL PAL8
|  3>
|  4> %base "2-109_DFT_AB"
|  5>
|  6> %scf
|  7> MaxIter 1000
|  8> end
|  9>
| 10> * xyz 0 1
| 11>   C                      -11.039653           -0.863043            -7.009951
| 12>   O                      -9.846374            -0.423377            -7.613633
| 13>   H                      -9.078687            -0.729567            -7.139579
| 14>   H                      -10.911681           -0.614363            -5.982342
| 15>   H                      -11.876190           -0.281241            -7.407889
| 16>   H                      -11.245498           -1.931224            -7.171333
| 17>   C                      -5.024703            -0.475523            -9.681912
| 18>   O                      -5.610899            -0.556094            -8.404248
| 19>   H                      -6.295084            0.138355             -8.425728
| 20>   H                      -5.727918            -0.348094            -10.497416
| 21>   H                      -4.225119            0.281107             -9.772922
| 22>   H                      -4.465926            -1.431594            -9.972453
| 23> *
| 24>
| 25> #Run DFT-D3 single point of the molecule with dimer basis set
| 26> $new_job
| 27> %base "2-109_DFT_A"
| 28> ! wB97X-D3 def2-TZVP TIGHTSCF CHELPG PMODEL
| 29>
| 30> %scf
| 31> MaxIter 1000
| 32> end
| 33>
| 34> * xyz 0 1
| 35>   C                      -11.039653           -0.863043            -7.009951
| 36>   O                      -9.846374            -0.423377            -7.613633
| 37>   H                      -9.078687            -0.729567            -7.139579
| 38>   H                      -10.911681           -0.614363            -5.982342
| 39>   H                      -11.876190           -0.281241            -7.407889
| 40>   H                      -11.245498           -1.931224            -7.171333
| 41>   C                    : -5.024703            -0.475523            -9.681912
| 42>   O                    : -5.610899            -0.556094            -8.404248
| 43>   H                    : -6.295084            0.138355             -8.425728
| 44>   H                    : -5.727918            -0.348094            -10.497416
| 45>   H                    : -4.225119            0.281107             -9.772922
| 46>   H                    : -4.465926            -1.431594            -9.972453
| 47> *
| 48>
| 49> #Run DFT-D3 single point of the particle with dimer basis set
| 50> $new_job
| 51> %base "2-109_DFT_B"
| 52> ! wB97X-D3 def2-TZVP TIGHTSCF CHELPG PMODEL
| 53>
| 54> %scf
| 55> MaxIter 1000
| 56> end
| 57>
| 58> * xyz 0 1
| 59>   C                    : -11.039653           -0.863043            -7.009951
| 60>   O                    : -9.846374            -0.423377            -7.613633
| 61>   H                    : -9.078687            -0.729567            -7.139579
| 62>   H                    : -10.911681           -0.614363            -5.982342
| 63>   H                    : -11.876190           -0.281241            -7.407889
| 64>   H                    : -11.245498           -1.931224            -7.171333
| 65>   C                      -5.024703            -0.475523            -9.681912
| 66>   O                      -5.610899            -0.556094            -8.404248
| 67>   H                      -6.295084            0.138355             -8.425728
| 68>   H                      -5.727918            -0.348094            -10.497416
| 69>   H                      -4.225119            0.281107             -9.772922
| 70>   H                      -4.465926            -1.431594            -9.972453
| 71> *
| 72>
| 73>                          ****END OF INPUT****
 Total Charge           Charge          ....    0
 Multiplicity           Mult            ....    1
 Number of Electrons    NEL             ....   36
Dispersion correction           -0.000816271
FINAL SINGLE POINT ENERGY      -231.467895145590
Dispersion correction           -0.000228634
FINAL SINGLE POINT ENERGY      -115.733871207482

CARTESIAN COORDINATES (ANGSTROEM)
---------------------------------
  C    -11.039653   -0.863043   -7.009951
  O     -9.846374   -0.423377   -7.613633
  H     -9.078687   -0.729567   -7.139579
  H    -10.911681   -0.614363   -5.982342
  H    -11.876190   -0.281241   -7.407889
  H    -11.245498   -1.931224   -7.171333
  C     -5.024703   -0.475523   -9.681912
  O     -5.610899   -0.556094   -8.404248
  H     -6.295084    0.138355   -8.425728
  H     -5.727918   -0.348094  -10.497416
  H     -4.225119    0.281107   -9.772922
  H     -4.465926   -1.431594   -9.972453

 Multiplicity           Mult            ....    1
 Number of Electrons    NEL             ....   18
 Basis Dimension        Dim             ....  172

ORBITAL ENERGIES
----------------

  NO   OCC          E(Eh)            E(eV)
   0   2.0000     -19.238454      -523.5050
   1   2.0000     -10.318226      -280.7732
   2   2.0000      -1.141061       -31.0499
   3   2.0000      -0.790748       -21.5173
   4   2.0000      -0.612267       -16.6606
   5   2.0000      -0.541783       -14.7427
   6   2.0000      -0.524214       -14.2646
   7   2.0000      -0.433539       -11.7972
   8   2.0000      -0.376627       -10.2485
   9   0.0000       0.084958         2.3118
  10   0.0000       0.112388         3.0582
  11   0.0000       0.144879         3.9424
  12   0.0000       0.182216         4.9583
  13   0.0000       0.195948         5.3320

MULLIKEN ATOMIC CHARGES
-----------------------
   0 C :    0.000091
   1 O :    0.000031
   2 H :   -0.001403
   3 H :   -0.000002
   4 H :    0.000004
   5 H :   -0.000011
   6 C :   -0.180475
   7 O :   -0.458692
   8 H :    0.319693
   9 H :    0.106871
  10 H :    0.101635
  11 H :    0.112258
Sum of atomic charges:    0.0000000

LOEWDIN ATOMIC CHARGES
----------------------
   0 C :   -0.000009
   1 O :   -0.000133
   2 H :   -0.000981
   3 H :   -0.000001
   4 H :   -0.000001
   5 H :   -0.000000
   6 C :   -0.409854
   7 O :   -0.073745
   8 H :    0.182983
   9 H :    0.091783
  10 H :    0.094332
  11 H :    0.115625

  Mayer bond orders larger than 0.1
B(  6-C ,  7-O ) :   1.0128 B(  6-C ,  9-H ) :   0.9770 B(  6-C , 10-H ) :   0.9726
B(  6-C , 11-H ) :   0.9742 B(  7-O ,  8-H ) :   0.8954

Dispersion correction           -0.000255476
FINAL SINGLE POINT ENERGY      -115.732455155721

DIPOLE MOMENT
-------------
                                X             Y             Z
Electronic contribution:     -0.80463      -0.14321       1.82761
Nuclear contribution   :      0.58978       0.59452      -2.33613
                        -----------------------------------------
Total Dipole Moment    :     -0.21485       0.45131      -0.50852
                        -----------------------------------------
Magnitude (a.u.)       :      0.71305
Magnitude (Debye)      :      1.81242

Rotational constants in cm-1:     4.281634     0.824434     0.794741
Rotational constants in MHz : 128360.161449 24715.918128 23825.749913

                             ****ORCA TERMINATED NORMALLY****
TOTAL RUN TIME: 0 days 0 hours 6 minutes 0 seconds 314 msec
