                         Program Version 4.1.2  - RELEASE  -
|  1> #Run DFT-D3 single point of the dimer
|  2> ! wB97X-D3 def2-TZVP TIGHTSCF CHELPG PMODEL PAL8
|  3>
|  4> %base "14-123_DFT_AB"
|  5>
|  6> %scf
|  7> MaxIter 1000
|  8> end
|  9>
| 10> * xyz 0 1
| 11>   C                      -1.362543            6.784930             3.679058
| 12>   O                      -0.219741            7.521161             3.879493
| 13>   H                      0.185538             7.018371             4.576261
| 14>   H                      -1.285645            5.847294             3.067514
| 15>   H                      -1.664286            6.494515             4.688009
| 16>   H                      -2.131244            7.378088             3.241805
| 17>   C                      2.903288             6.157176             3.375307
| 18>   O                      2.355776             6.871441             2.257254
| 19>   H                      1.487069             7.205921             2.419442
| 20>   H                      3.882769             5.824693             3.159846
| 21>   H                      2.907708             6.811169             4.289706
| 22>   H                      2.225679             5.284774             3.540277
| 23> *
| 24>
| 25> #Run DFT-D3 single point of the molecule with dimer basis set
| 26> $new_job
| 27> %base "14-123_DFT_A"
| 28> ! wB97X-D3 def2-TZVP TIGHTSCF CHELPG PMODEL
| 29>
| 30> %scf
| 31> MaxIter 1000
| 32> end
| 33>
| 34> * xyz 0 1
| 35>   C                      -1.362543            6.784930             3.679058
| 36>   O                      -0.219741            7.521161             3.879493
| 37>   H                      0.185538             7.018371             4.576261
| 38>   H                      -1.285645            5.847294             3.067514
| 39>   H                      -1.664286            6.494515             4.688009
| 40>   H                      -2.131244            7.378088             3.241805
| 41>   C                    : 2.903288             6.157176             3.375307
| 42>   O                    : 2.355776             6.871441             2.257254
| 43>   H                    : 1.487069             7.205921             2.419442
| 44>   H                    : 3.882769             5.824693             3.159846
| 45>   H                    : 2.907708             6.811169             4.289706
| 46>   H                    : 2.225679             5.284774             3.540277
| 47> *
| 48>
| 49> #Run DFT-D3 single point of the particle with dimer basis set
| 50> $new_job
| 51> %base "14-123_DFT_B"
| 52> ! wB97X-D3 def2-TZVP TIGHTSCF CHELPG PMODEL
| 53>
| 54> %scf
| 55> MaxIter 1000
| 56> end
| 57>
| 58> * xyz 0 1
| 59>   C                    : -1.362543            6.784930             3.679058
| 60>   O                    : -0.219741            7.521161             3.879493
| 61>   H                    : 0.185538             7.018371             4.576261
| 62>   H                    : -1.285645            5.847294             3.067514
| 63>   H                    : -1.664286            6.494515             4.688009
| 64>   H                    : -2.131244            7.378088             3.241805
| 65>   C                      2.903288             6.157176             3.375307
| 66>   O                      2.355776             6.871441             2.257254
| 67>   H                      1.487069             7.205921             2.419442
| 68>   H                      3.882769             5.824693             3.159846
| 69>   H                      2.907708             6.811169             4.289706
| 70>   H                      2.225679             5.284774             3.540277
| 71> *
| 72>
| 73>                          ****END OF INPUT****
 Total Charge           Charge          ....    0
 Multiplicity           Mult            ....    1
 Number of Electrons    NEL             ....   36
Dispersion correction           -0.001994156
FINAL SINGLE POINT ENERGY      -231.468917140051
Dispersion correction           -0.000207670
FINAL SINGLE POINT ENERGY      -115.729345547077

CARTESIAN COORDINATES (ANGSTROEM)
---------------------------------
  C     -1.362543    6.784930    3.679058
  O     -0.219741    7.521161    3.879493
  H      0.185538    7.018371    4.576261
  H     -1.285645    5.847294    3.067514
  H     -1.664286    6.494515    4.688009
  H     -2.131244    7.378088    3.241805
  C      2.903288    6.157176    3.375307
  O      2.355776    6.871441    2.257254
  H      1.487069    7.205921    2.419442
  H      3.882769    5.824693    3.159846
  H      2.907708    6.811169    4.289706
  H      2.225679    5.284774    3.540277

 Multiplicity           Mult            ....    1
 Number of Electrons    NEL             ....   18
 Basis Dimension        Dim             ....  172

ORBITAL ENERGIES
----------------

  NO   OCC          E(Eh)            E(eV)
   0   2.0000     -19.223715      -523.1039
   1   2.0000     -10.318123      -280.7704
   2   2.0000      -1.128230       -30.7007
   3   2.0000      -0.798301       -21.7229
   4   2.0000      -0.604078       -16.4378
   5   2.0000      -0.538742       -14.6599
   6   2.0000      -0.534177       -14.5357
   7   2.0000      -0.428241       -11.6530
   8   2.0000      -0.370469       -10.0810
   9   0.0000       0.071183         1.9370
  10   0.0000       0.133861         3.6425
  11   0.0000       0.148607         4.0438
  12   0.0000       0.168700         4.5905
  13   0.0000       0.187328         5.0975

MULLIKEN ATOMIC CHARGES
-----------------------
   0 C :   -0.002348
   1 O :   -0.002630
   2 H :    0.000458
   3 H :   -0.000191
   4 H :   -0.000014
   5 H :    0.000130
   6 C :   -0.149684
   7 O :   -0.492079
   8 H :    0.314226
   9 H :    0.128582
  10 H :    0.100815
  11 H :    0.102736
Sum of atomic charges:    0.0000000

LOEWDIN ATOMIC CHARGES
----------------------
   0 C :   -0.002562
   1 O :   -0.008780
   2 H :   -0.002784
   3 H :   -0.000320
   4 H :   -0.000037
   5 H :   -0.000035
   6 C :   -0.357652
   7 O :   -0.085588
   8 H :    0.155513
   9 H :    0.098923
  10 H :    0.101528
  11 H :    0.101793

  Mayer bond orders larger than 0.1
B(  6-C ,  7-O ) :   0.9781 B(  6-C ,  9-H ) :   0.9714 B(  6-C , 10-H ) :   0.9762
B(  6-C , 11-H ) :   0.9825 B(  7-O ,  8-H ) :   0.9062

Dispersion correction           -0.000245622
FINAL SINGLE POINT ENERGY      -115.733614153127

DIPOLE MOMENT
-------------
                                X             Y             Z
Electronic contribution:     -0.42765       0.83500      -1.44714
Nuclear contribution   :      0.11210      -0.92502       2.01133
                        -----------------------------------------
Total Dipole Moment    :     -0.31555      -0.09002       0.56419
                        -----------------------------------------
Magnitude (a.u.)       :      0.65267
Magnitude (Debye)      :      1.65896

Rotational constants in cm-1:     4.256313     0.809829     0.787687
Rotational constants in MHz : 127601.048464 24278.065107 23614.261915

                             ****ORCA TERMINATED NORMALLY****
TOTAL RUN TIME: 0 days 0 hours 1 minutes 9 seconds 324 msec
