                         Program Version 4.1.2  - RELEASE  -
|  1> #Run DFT-D3 single point of the dimer
|  2> ! wB97X-D3 def2-TZVP TIGHTSCF CHELPG PMODEL PAL8
|  3>
|  4> %base "14-62_DFT_AB"
|  5>
|  6> %scf
|  7> MaxIter 1000
|  8> end
|  9>
| 10> * xyz 0 1
| 11>   C                      -0.584460            9.833385             -7.370606
| 12>   O                      0.262817             9.973202             -6.259486
| 13>   H                      -0.083268            10.436978            -5.479950
| 14>   H                      -1.227082            10.668618            -7.422794
| 15>   H                      0.023229             9.743565             -8.282138
| 16>   H                      -1.232432            8.935795             -7.342917
| 17>   C                      3.464582             8.813456             -10.428779
| 18>   O                      2.336244             8.000384             -10.454320
| 19>   H                      1.787386             8.235680             -11.193072
| 20>   H                      3.296530             9.821968             -10.304526
| 21>   H                      4.093428             8.402228             -9.639219
| 22>   H                      4.030470             8.628090             -11.359857
| 23> *
| 24>
| 25> #Run DFT-D3 single point of the molecule with dimer basis set
| 26> $new_job
| 27> %base "14-62_DFT_A"
| 28> ! wB97X-D3 def2-TZVP TIGHTSCF CHELPG PMODEL
| 29>
| 30> %scf
| 31> MaxIter 1000
| 32> end
| 33>
| 34> * xyz 0 1
| 35>   C                      -0.584460            9.833385             -7.370606
| 36>   O                      0.262817             9.973202             -6.259486
| 37>   H                      -0.083268            10.436978            -5.479950
| 38>   H                      -1.227082            10.668618            -7.422794
| 39>   H                      0.023229             9.743565             -8.282138
| 40>   H                      -1.232432            8.935795             -7.342917
| 41>   C                    : 3.464582             8.813456             -10.428779
| 42>   O                    : 2.336244             8.000384             -10.454320
| 43>   H                    : 1.787386             8.235680             -11.193072
| 44>   H                    : 3.296530             9.821968             -10.304526
| 45>   H                    : 4.093428             8.402228             -9.639219
| 46>   H                    : 4.030470             8.628090             -11.359857
| 47> *
| 48>
| 49> #Run DFT-D3 single point of the particle with dimer basis set
| 50> $new_job
| 51> %base "14-62_DFT_B"
| 52> ! wB97X-D3 def2-TZVP TIGHTSCF CHELPG PMODEL
| 53>
| 54> %scf
| 55> MaxIter 1000
| 56> end
| 57>
| 58> * xyz 0 1
| 59>   C                    : -0.584460            9.833385             -7.370606
| 60>   O                    : 0.262817             9.973202             -6.259486
| 61>   H                    : -0.083268            10.436978            -5.479950
| 62>   H                    : -1.227082            10.668618            -7.422794
| 63>   H                    : 0.023229             9.743565             -8.282138
| 64>   H                    : -1.232432            8.935795             -7.342917
| 65>   C                      3.464582             8.813456             -10.428779
| 66>   O                      2.336244             8.000384             -10.454320
| 67>   H                      1.787386             8.235680             -11.193072
| 68>   H                      3.296530             9.821968             -10.304526
| 69>   H                      4.093428             8.402228             -9.639219
| 70>   H                      4.030470             8.628090             -11.359857
| 71> *
| 72>
| 73>                          ****END OF INPUT****
 Total Charge           Charge          ....    0
 Multiplicity           Mult            ....    1
 Number of Electrons    NEL             ....   36
Dispersion correction           -0.000859412
FINAL SINGLE POINT ENERGY      -231.465595838730
Dispersion correction           -0.000256089
FINAL SINGLE POINT ENERGY      -115.732514415936

CARTESIAN COORDINATES (ANGSTROEM)
---------------------------------
  C     -0.584460    9.833385   -7.370606
  O      0.262817    9.973202   -6.259486
  H     -0.083268   10.436978   -5.479950
  H     -1.227082   10.668618   -7.422794
  H      0.023229    9.743565   -8.282138
  H     -1.232432    8.935795   -7.342917
  C      3.464582    8.813456  -10.428779
  O      2.336244    8.000384  -10.454320
  H      1.787386    8.235680  -11.193072
  H      3.296530    9.821968  -10.304526
  H      4.093428    8.402228   -9.639219
  H      4.030470    8.628090  -11.359857

 Multiplicity           Mult            ....    1
 Number of Electrons    NEL             ....   18
 Basis Dimension        Dim             ....  172

ORBITAL ENERGIES
----------------

  NO   OCC          E(Eh)            E(eV)
   0   2.0000     -19.226571      -523.1816
   1   2.0000     -10.303885      -280.3830
   2   2.0000      -1.143563       -31.1179
   3   2.0000      -0.800241       -21.7757
   4   2.0000      -0.619154       -16.8480
   5   2.0000      -0.551589       -15.0095
   6   2.0000      -0.527066       -14.3422
   7   2.0000      -0.430679       -11.7194
   8   2.0000      -0.373021       -10.1504
   9   0.0000       0.091073         2.4782
  10   0.0000       0.117031         3.1846
  11   0.0000       0.159685         4.3453
  12   0.0000       0.170665         4.6440
  13   0.0000       0.195514         5.3202

MULLIKEN ATOMIC CHARGES
-----------------------
   0 C :    0.001968
   1 O :    0.000003
   2 H :    0.000001
   3 H :   -0.000148
   4 H :   -0.004964
   5 H :   -0.000057
   6 C :   -0.156547
   7 O :   -0.476290
   8 H :    0.312100
   9 H :    0.109464
  10 H :    0.117197
  11 H :    0.097273
Sum of atomic charges:   -0.0000000

LOEWDIN ATOMIC CHARGES
----------------------
   0 C :   -0.000412
   1 O :   -0.000014
   2 H :   -0.000000
   3 H :   -0.000009
   4 H :   -0.001789
   5 H :   -0.000009
   6 C :   -0.392082
   7 O :   -0.056563
   8 H :    0.161686
   9 H :    0.078801
  10 H :    0.112133
  11 H :    0.098259

  Mayer bond orders larger than 0.1
B(  6-C ,  7-O ) :   0.9922 B(  6-C ,  9-H ) :   0.9691 B(  6-C , 10-H ) :   0.9761
B(  6-C , 11-H ) :   0.9868 B(  7-O ,  8-H ) :   0.9009

Dispersion correction           -0.000218485
FINAL SINGLE POINT ENERGY      -115.732831117122

DIPOLE MOMENT
-------------
                                X             Y             Z
Electronic contribution:     -1.47663      -0.91374       0.13014
Nuclear contribution   :      1.57270       1.38155      -0.59294
                        -----------------------------------------
Total Dipole Moment    :      0.09607       0.46781      -0.46280
                        -----------------------------------------
Magnitude (a.u.)       :      0.66502
Magnitude (Debye)      :      1.69035

Rotational constants in cm-1:     4.407814     0.861593     0.831677
Rotational constants in MHz : 132142.937262 25829.919000 24933.046009

                             ****ORCA TERMINATED NORMALLY****
TOTAL RUN TIME: 0 days 0 hours 0 minutes 55 seconds 316 msec
