                         Program Version 4.1.2  - RELEASE  -
|  1> #Run DFT-D3 single point of the dimer
|  2> ! wB97X-D3 def2-TZVP TIGHTSCF CHELPG PMODEL PAL8
|  3>
|  4> %base "19-89_DFT_AB"
|  5>
|  6> %scf
|  7> MaxIter 1000
|  8> end
|  9>
| 10> * xyz 0 1
| 11>   C                      1.790265             3.458561             8.299905
| 12>   O                      0.760315             4.348827             7.951540
| 13>   H                      0.700689             4.320397             6.985783
| 14>   H                      2.747720             4.048782             8.453165
| 15>   H                      1.540345             2.807398             9.173545
| 16>   H                      2.017215             2.823354             7.489023
| 17>   C                      0.047512             0.175918             10.039209
| 18>   O                      -1.173762            0.342067             9.306072
| 19>   H                      -1.409839            -0.517275            8.897116
| 20>   H                      0.918030             0.086260             9.426686
| 21>   H                      0.369282             0.973946             10.683957
| 22>   H                      -0.034030            -0.747890            10.620444
| 23> *
| 24>
| 25> #Run DFT-D3 single point of the molecule with dimer basis set
| 26> $new_job
| 27> %base "19-89_DFT_A"
| 28> ! wB97X-D3 def2-TZVP TIGHTSCF CHELPG PMODEL
| 29>
| 30> %scf
| 31> MaxIter 1000
| 32> end
| 33>
| 34> * xyz 0 1
| 35>   C                      1.790265             3.458561             8.299905
| 36>   O                      0.760315             4.348827             7.951540
| 37>   H                      0.700689             4.320397             6.985783
| 38>   H                      2.747720             4.048782             8.453165
| 39>   H                      1.540345             2.807398             9.173545
| 40>   H                      2.017215             2.823354             7.489023
| 41>   C                    : 0.047512             0.175918             10.039209
| 42>   O                    : -1.173762            0.342067             9.306072
| 43>   H                    : -1.409839            -0.517275            8.897116
| 44>   H                    : 0.918030             0.086260             9.426686
| 45>   H                    : 0.369282             0.973946             10.683957
| 46>   H                    : -0.034030            -0.747890            10.620444
| 47> *
| 48>
| 49> #Run DFT-D3 single point of the particle with dimer basis set
| 50> $new_job
| 51> %base "19-89_DFT_B"
| 52> ! wB97X-D3 def2-TZVP TIGHTSCF CHELPG PMODEL
| 53>
| 54> %scf
| 55> MaxIter 1000
| 56> end
| 57>
| 58> * xyz 0 1
| 59>   C                    : 1.790265             3.458561             8.299905
| 60>   O                    : 0.760315             4.348827             7.951540
| 61>   H                    : 0.700689             4.320397             6.985783
| 62>   H                    : 2.747720             4.048782             8.453165
| 63>   H                    : 1.540345             2.807398             9.173545
| 64>   H                    : 2.017215             2.823354             7.489023
| 65>   C                      0.047512             0.175918             10.039209
| 66>   O                      -1.173762            0.342067             9.306072
| 67>   H                      -1.409839            -0.517275            8.897116
| 68>   H                      0.918030             0.086260             9.426686
| 69>   H                      0.369282             0.973946             10.683957
| 70>   H                      -0.034030            -0.747890            10.620444
| 71> *
| 72>
| 73>                          ****END OF INPUT****
 Total Charge           Charge          ....    0
 Multiplicity           Mult            ....    1
 Number of Electrons    NEL             ....   36
Dispersion correction           -0.001355982
FINAL SINGLE POINT ENERGY      -231.461387411844
Dispersion correction           -0.000237640
FINAL SINGLE POINT ENERGY      -115.731542297789

CARTESIAN COORDINATES (ANGSTROEM)
---------------------------------
  C      1.790265    3.458561    8.299905
  O      0.760315    4.348827    7.951540
  H      0.700689    4.320397    6.985783
  H      2.747720    4.048782    8.453165
  H      1.540345    2.807398    9.173545
  H      2.017215    2.823354    7.489023
  C      0.047512    0.175918   10.039209
  O     -1.173762    0.342067    9.306072
  H     -1.409839   -0.517275    8.897116
  H      0.918030    0.086260    9.426686
  H      0.369282    0.973946   10.683957
  H     -0.034030   -0.747890   10.620444

 Multiplicity           Mult            ....    1
 Number of Electrons    NEL             ....   18
 Basis Dimension        Dim             ....  172

ORBITAL ENERGIES
----------------

  NO   OCC          E(Eh)            E(eV)
   0   2.0000     -19.232804      -523.3512
   1   2.0000     -10.310513      -280.5633
   2   2.0000      -1.126118       -30.6432
   3   2.0000      -0.800992       -21.7961
   4   2.0000      -0.605204       -16.4685
   5   2.0000      -0.545384       -14.8407
   6   2.0000      -0.526690       -14.3320
   7   2.0000      -0.430771       -11.7219
   8   2.0000      -0.373241       -10.1564
   9   0.0000       0.089357         2.4315
  10   0.0000       0.116050         3.1579
  11   0.0000       0.146384         3.9833
  12   0.0000       0.179604         4.8873
  13   0.0000       0.186295         5.0693

MULLIKEN ATOMIC CHARGES
-----------------------
   0 C :    0.001873
   1 O :    0.000003
   2 H :    0.000004
   3 H :    0.000057
   4 H :   -0.002402
   5 H :   -0.000434
   6 C :   -0.176823
   7 O :   -0.484425
   8 H :    0.320587
   9 H :    0.104405
  10 H :    0.127303
  11 H :    0.109853
Sum of atomic charges:    0.0000000

LOEWDIN ATOMIC CHARGES
----------------------
   0 C :   -0.001055
   1 O :   -0.000023
   2 H :   -0.000008
   3 H :   -0.000010
   4 H :   -0.002288
   5 H :   -0.000096
   6 C :   -0.372157
   7 O :   -0.100971
   8 H :    0.182002
   9 H :    0.090183
  10 H :    0.106178
  11 H :    0.098243

  Mayer bond orders larger than 0.1
B(  6-C ,  7-O ) :   0.9940 B(  6-C ,  9-H ) :   0.9745 B(  6-C , 10-H ) :   0.9708
B(  6-C , 11-H ) :   0.9843 B(  7-O ,  8-H ) :   0.8926

Dispersion correction           -0.000251637
FINAL SINGLE POINT ENERGY      -115.729844506064

DIPOLE MOMENT
-------------
                                X             Y             Z
Electronic contribution:     -1.62334       0.45099      -0.88819
Nuclear contribution   :      1.99525      -1.05486       0.93501
                        -----------------------------------------
Total Dipole Moment    :      0.37192      -0.60387       0.04682
                        -----------------------------------------
Magnitude (a.u.)       :      0.71075
Magnitude (Debye)      :      1.80660

Rotational constants in cm-1:     4.515813     0.804938     0.773542
Rotational constants in MHz : 135380.660852 24131.420490 23190.214746

                             ****ORCA TERMINATED NORMALLY****
TOTAL RUN TIME: 0 days 0 hours 0 minutes 53 seconds 351 msec
