                         Program Version 4.1.2  - RELEASE  -
|  1> #Run DFT-D3 single point of the dimer
|  2> ! wB97X-D3 def2-TZVP TIGHTSCF CHELPG PMODEL PAL8
|  3>
|  4> %base "2-174_DFT_AB"
|  5>
|  6> %scf
|  7> MaxIter 1000
|  8> end
|  9>
| 10> * xyz 0 1
| 11>   C                      -7.226407            0.241027             9.770082
| 12>   O                      -7.837410            0.242578             11.018162
| 13>   H                      -8.773012            0.018746             10.842653
| 14>   H                      -6.208939            0.676731             9.794001
| 15>   H                      -7.036564            -0.740355            9.376161
| 16>   H                      -7.751855            0.717789             8.953111
| 17>   C                      -10.888424           -2.593742            9.576241
| 18>   O                      -11.039186           -1.783744            10.778620
| 19>   H                      -10.651474           -2.222302            11.529111
| 20>   H                      -10.927990           -3.661191            9.777193
| 21>   H                      -11.734618           -2.305312            9.000348
| 22>   H                      -10.041839           -2.317318            8.927686
| 23> *
| 24>
| 25> #Run DFT-D3 single point of the molecule with dimer basis set
| 26> $new_job
| 27> %base "2-174_DFT_A"
| 28> ! wB97X-D3 def2-TZVP TIGHTSCF CHELPG PMODEL
| 29>
| 30> %scf
| 31> MaxIter 1000
| 32> end
| 33>
| 34> * xyz 0 1
| 35>   C                      -7.226407            0.241027             9.770082
| 36>   O                      -7.837410            0.242578             11.018162
| 37>   H                      -8.773012            0.018746             10.842653
| 38>   H                      -6.208939            0.676731             9.794001
| 39>   H                      -7.036564            -0.740355            9.376161
| 40>   H                      -7.751855            0.717789             8.953111
| 41>   C                    : -10.888424           -2.593742            9.576241
| 42>   O                    : -11.039186           -1.783744            10.778620
| 43>   H                    : -10.651474           -2.222302            11.529111
| 44>   H                    : -10.927990           -3.661191            9.777193
| 45>   H                    : -11.734618           -2.305312            9.000348
| 46>   H                    : -10.041839           -2.317318            8.927686
| 47> *
| 48>
| 49> #Run DFT-D3 single point of the particle with dimer basis set
| 50> $new_job
| 51> %base "2-174_DFT_B"
| 52> ! wB97X-D3 def2-TZVP TIGHTSCF CHELPG PMODEL
| 53>
| 54> %scf
| 55> MaxIter 1000
| 56> end
| 57>
| 58> * xyz 0 1
| 59>   C                    : -7.226407            0.241027             9.770082
| 60>   O                    : -7.837410            0.242578             11.018162
| 61>   H                    : -8.773012            0.018746             10.842653
| 62>   H                    : -6.208939            0.676731             9.794001
| 63>   H                    : -7.036564            -0.740355            9.376161
| 64>   H                    : -7.751855            0.717789             8.953111
| 65>   C                      -10.888424           -2.593742            9.576241
| 66>   O                      -11.039186           -1.783744            10.778620
| 67>   H                      -10.651474           -2.222302            11.529111
| 68>   H                      -10.927990           -3.661191            9.777193
| 69>   H                      -11.734618           -2.305312            9.000348
| 70>   H                      -10.041839           -2.317318            8.927686
| 71> *
| 72>
| 73>                          ****END OF INPUT****
 Total Charge           Charge          ....    0
 Multiplicity           Mult            ....    1
 Number of Electrons    NEL             ....   36
Dispersion correction           -0.001482843
FINAL SINGLE POINT ENERGY      -231.469743375905
Dispersion correction           -0.000240615
FINAL SINGLE POINT ENERGY      -115.732815886299

CARTESIAN COORDINATES (ANGSTROEM)
---------------------------------
  C     -7.226407    0.241027    9.770082
  O     -7.837410    0.242578   11.018162
  H     -8.773012    0.018746   10.842653
  H     -6.208939    0.676731    9.794001
  H     -7.036564   -0.740355    9.376161
  H     -7.751855    0.717789    8.953111
  C    -10.888424   -2.593742    9.576241
  O    -11.039186   -1.783744   10.778620
  H    -10.651474   -2.222302   11.529111
  H    -10.927990   -3.661191    9.777193
  H    -11.734618   -2.305312    9.000348
  H    -10.041839   -2.317318    8.927686

 Multiplicity           Mult            ....    1
 Number of Electrons    NEL             ....   18
 Basis Dimension        Dim             ....  172

ORBITAL ENERGIES
----------------

  NO   OCC          E(Eh)            E(eV)
   0   2.0000     -19.228949      -523.2463
   1   2.0000     -10.313469      -280.6438
   2   2.0000      -1.123564       -30.5737
   3   2.0000      -0.802216       -21.8294
   4   2.0000      -0.605767       -16.4838
   5   2.0000      -0.538735       -14.6597
   6   2.0000      -0.520451       -14.1622
   7   2.0000      -0.437726       -11.9111
   8   2.0000      -0.375131       -10.2078
   9   0.0000       0.087550         2.3824
  10   0.0000       0.121924         3.3177
  11   0.0000       0.149295         4.0625
  12   0.0000       0.182238         4.9590
  13   0.0000       0.190449         5.1824

MULLIKEN ATOMIC CHARGES
-----------------------
   0 C :    0.000632
   1 O :    0.000569
   2 H :   -0.007359
   3 H :   -0.000010
   4 H :   -0.000266
   5 H :   -0.000157
   6 C :   -0.177323
   7 O :   -0.484042
   8 H :    0.313232
   9 H :    0.115914
  10 H :    0.127775
  11 H :    0.111035
Sum of atomic charges:    0.0000000

LOEWDIN ATOMIC CHARGES
----------------------
   0 C :   -0.000404
   1 O :   -0.000427
   2 H :   -0.007532
   3 H :   -0.000004
   4 H :   -0.000203
   5 H :   -0.000041
   6 C :   -0.351512
   7 O :   -0.097768
   8 H :    0.157164
   9 H :    0.097412
  10 H :    0.103675
  11 H :    0.099640

  Mayer bond orders larger than 0.1
B(  6-C ,  7-O ) :   0.9930 B(  6-C ,  9-H ) :   0.9744 B(  6-C , 10-H ) :   0.9813
B(  6-C , 11-H ) :   0.9684 B(  7-O ,  8-H ) :   0.9020

Dispersion correction           -0.000271841
FINAL SINGLE POINT ENERGY      -115.732784806996

DIPOLE MOMENT
-------------
                                X             Y             Z
Electronic contribution:     -0.16725       0.97930       1.44875
Nuclear contribution   :      0.44349      -1.61926      -1.48232
                        -----------------------------------------
Total Dipole Moment    :      0.27623      -0.63996      -0.03357
                        -----------------------------------------
Magnitude (a.u.)       :      0.69784
Magnitude (Debye)      :      1.77377

Rotational constants in cm-1:     4.406415     0.791965     0.763490
Rotational constants in MHz : 132100.992021 23742.505731 22888.855924

                             ****ORCA TERMINATED NORMALLY****
TOTAL RUN TIME: 0 days 0 hours 6 minutes 25 seconds 951 msec
