                         Program Version 4.1.2  - RELEASE  -
|  1> #Run DFT-D3 single point of the dimer
|  2> ! wB97X-D3 def2-TZVP TIGHTSCF CHELPG PMODEL PAL8
|  3>
|  4> %base "22-44_DFT_AB"
|  5>
|  6> %scf
|  7> MaxIter 1000
|  8> end
|  9>
| 10> * xyz 0 1
| 11>   C                      3.346385             5.166609             -0.324777
| 12>   O                      4.605433             4.856927             -0.851271
| 13>   H                      4.735588             5.658297             -1.389277
| 14>   H                      2.939554             4.225934             -0.016089
| 15>   H                      3.411675             5.727115             0.579502
| 16>   H                      2.613158             5.716876             -1.000328
| 17>   C                      1.036957             3.574297             2.264222
| 18>   O                      0.901714             3.131418             0.918129
| 19>   H                      0.500410             3.835096             0.466656
| 20>   H                      1.735530             4.431400             2.282061
| 21>   H                      0.118558             3.792975             2.761185
| 22>   H                      1.387067             2.884953             2.982155
| 23> *
| 24>
| 25> #Run DFT-D3 single point of the molecule with dimer basis set
| 26> $new_job
| 27> %base "22-44_DFT_A"
| 28> ! wB97X-D3 def2-TZVP TIGHTSCF CHELPG PMODEL
| 29>
| 30> %scf
| 31> MaxIter 1000
| 32> end
| 33>
| 34> * xyz 0 1
| 35>   C                      3.346385             5.166609             -0.324777
| 36>   O                      4.605433             4.856927             -0.851271
| 37>   H                      4.735588             5.658297             -1.389277
| 38>   H                      2.939554             4.225934             -0.016089
| 39>   H                      3.411675             5.727115             0.579502
| 40>   H                      2.613158             5.716876             -1.000328
| 41>   C                    : 1.036957             3.574297             2.264222
| 42>   O                    : 0.901714             3.131418             0.918129
| 43>   H                    : 0.500410             3.835096             0.466656
| 44>   H                    : 1.735530             4.431400             2.282061
| 45>   H                    : 0.118558             3.792975             2.761185
| 46>   H                    : 1.387067             2.884953             2.982155
| 47> *
| 48>
| 49> #Run DFT-D3 single point of the particle with dimer basis set
| 50> $new_job
| 51> %base "22-44_DFT_B"
| 52> ! wB97X-D3 def2-TZVP TIGHTSCF CHELPG PMODEL
| 53>
| 54> %scf
| 55> MaxIter 1000
| 56> end
| 57>
| 58> * xyz 0 1
| 59>   C                    : 3.346385             5.166609             -0.324777
| 60>   O                    : 4.605433             4.856927             -0.851271
| 61>   H                    : 4.735588             5.658297             -1.389277
| 62>   H                    : 2.939554             4.225934             -0.016089
| 63>   H                    : 3.411675             5.727115             0.579502
| 64>   H                    : 2.613158             5.716876             -1.000328
| 65>   C                      1.036957             3.574297             2.264222
| 66>   O                      0.901714             3.131418             0.918129
| 67>   H                      0.500410             3.835096             0.466656
| 68>   H                      1.735530             4.431400             2.282061
| 69>   H                      0.118558             3.792975             2.761185
| 70>   H                      1.387067             2.884953             2.982155
| 71> *
| 72>
| 73>                          ****END OF INPUT****
 Total Charge           Charge          ....    0
 Multiplicity           Mult            ....    1
 Number of Electrons    NEL             ....   36
Dispersion correction           -0.001829262
FINAL SINGLE POINT ENERGY      -231.457981403503
Dispersion correction           -0.000224358
FINAL SINGLE POINT ENERGY      -115.729279716508

CARTESIAN COORDINATES (ANGSTROEM)
---------------------------------
  C      3.346385    5.166609   -0.324777
  O      4.605433    4.856927   -0.851271
  H      4.735588    5.658297   -1.389277
  H      2.939554    4.225934   -0.016089
  H      3.411675    5.727115    0.579502
  H      2.613158    5.716876   -1.000328
  C      1.036957    3.574297    2.264222
  O      0.901714    3.131418    0.918129
  H      0.500410    3.835096    0.466656
  H      1.735530    4.431400    2.282061
  H      0.118558    3.792975    2.761185
  H      1.387067    2.884953    2.982155

 Multiplicity           Mult            ....    1
 Number of Electrons    NEL             ....   18
 Basis Dimension        Dim             ....  172

ORBITAL ENERGIES
----------------

  NO   OCC          E(Eh)            E(eV)
   0   2.0000     -19.231220      -523.3081
   1   2.0000     -10.309265      -280.5294
   2   2.0000      -1.143119       -31.1059
   3   2.0000      -0.806909       -21.9571
   4   2.0000      -0.612254       -16.6603
   5   2.0000      -0.552787       -15.0421
   6   2.0000      -0.529505       -14.4086
   7   2.0000      -0.431363       -11.7380
   8   2.0000      -0.378992       -10.3129
   9   0.0000       0.085123         2.3163
  10   0.0000       0.132109         3.5949
  11   0.0000       0.149547         4.0694
  12   0.0000       0.178500         4.8572
  13   0.0000       0.190677         5.1886

MULLIKEN ATOMIC CHARGES
-----------------------
   0 C :   -0.005711
   1 O :   -0.000161
   2 H :   -0.000037
   3 H :   -0.005190
   4 H :   -0.000154
   5 H :    0.000613
   6 C :   -0.178241
   7 O :   -0.461900
   8 H :    0.313916
   9 H :    0.103407
  10 H :    0.108295
  11 H :    0.125164
Sum of atomic charges:   -0.0000000

LOEWDIN ATOMIC CHARGES
----------------------
   0 C :   -0.008291
   1 O :   -0.000038
   2 H :   -0.000016
   3 H :   -0.012765
   4 H :   -0.001248
   5 H :   -0.000324
   6 C :   -0.375400
   7 O :   -0.049578
   8 H :    0.150889
   9 H :    0.101584
  10 H :    0.092894
  11 H :    0.102292

  Mayer bond orders larger than 0.1
B(  6-C ,  7-O ) :   0.9921 B(  6-C ,  9-H ) :   0.9829 B(  6-C , 10-H ) :   0.9777
B(  6-C , 11-H ) :   0.9732 B(  7-O ,  8-H ) :   0.9059

Dispersion correction           -0.000239355
FINAL SINGLE POINT ENERGY      -115.728110214762

DIPOLE MOMENT
-------------
                                X             Y             Z
Electronic contribution:     -0.14467      -0.76564      -1.75775
Nuclear contribution   :     -0.08058       1.35709       2.04934
                        -----------------------------------------
Total Dipole Moment    :     -0.22526       0.59145       0.29159
                        -----------------------------------------
Magnitude (a.u.)       :      0.69684
Magnitude (Debye)      :      1.77122

Rotational constants in cm-1:     4.617745     0.812448     0.795936
Rotational constants in MHz : 138436.525357 24356.585800 23861.575336

                             ****ORCA TERMINATED NORMALLY****
TOTAL RUN TIME: 0 days 0 hours 1 minutes 1 seconds 501 msec
