                         Program Version 4.1.2  - RELEASE  -
|  1> #Run DFT-D3 single point of the dimer
|  2> ! wB97X-D3 def2-TZVP TIGHTSCF CHELPG PMODEL PAL8
|  3>
|  4> %base "16-15_DFT_AB"
|  5>
|  6> %scf
|  7> MaxIter 1000
|  8> end
|  9>
| 10> * xyz 0 1
| 11>   C                      -9.460971            -5.850150            -9.983236
| 12>   O                      -8.591912            -6.718918            -10.686473
| 13>   H                      -8.695396            -7.506844            -10.221084
| 14>   H                      -10.460182           -6.178799            -10.083656
| 15>   H                      -9.193688            -5.917862            -8.911150
| 16>   H                      -9.460853            -4.773154            -10.286841
| 17>   C                      -10.104317           -2.350161            -8.253423
| 18>   O                      -8.867229            -2.241263            -8.920471
| 19>   H                      -9.011740            -2.601204            -9.803120
| 20>   H                      -10.018075           -3.069902            -7.488052
| 21>   H                      -10.453108           -1.463139            -7.638385
| 22>   H                      -10.952744           -2.628921            -8.831483
| 23> *
| 24>
| 25> #Run DFT-D3 single point of the molecule with dimer basis set
| 26> $new_job
| 27> %base "16-15_DFT_A"
| 28> ! wB97X-D3 def2-TZVP TIGHTSCF CHELPG PMODEL
| 29>
| 30> %scf
| 31> MaxIter 1000
| 32> end
| 33>
| 34> * xyz 0 1
| 35>   C                      -9.460971            -5.850150            -9.983236
| 36>   O                      -8.591912            -6.718918            -10.686473
| 37>   H                      -8.695396            -7.506844            -10.221084
| 38>   H                      -10.460182           -6.178799            -10.083656
| 39>   H                      -9.193688            -5.917862            -8.911150
| 40>   H                      -9.460853            -4.773154            -10.286841
| 41>   C                    : -10.104317           -2.350161            -8.253423
| 42>   O                    : -8.867229            -2.241263            -8.920471
| 43>   H                    : -9.011740            -2.601204            -9.803120
| 44>   H                    : -10.018075           -3.069902            -7.488052
| 45>   H                    : -10.453108           -1.463139            -7.638385
| 46>   H                    : -10.952744           -2.628921            -8.831483
| 47> *
| 48>
| 49> #Run DFT-D3 single point of the particle with dimer basis set
| 50> $new_job
| 51> %base "16-15_DFT_B"
| 52> ! wB97X-D3 def2-TZVP TIGHTSCF CHELPG PMODEL
| 53>
| 54> %scf
| 55> MaxIter 1000
| 56> end
| 57>
| 58> * xyz 0 1
| 59>   C                    : -9.460971            -5.850150            -9.983236
| 60>   O                    : -8.591912            -6.718918            -10.686473
| 61>   H                    : -8.695396            -7.506844            -10.221084
| 62>   H                    : -10.460182           -6.178799            -10.083656
| 63>   H                    : -9.193688            -5.917862            -8.911150
| 64>   H                    : -9.460853            -4.773154            -10.286841
| 65>   C                      -10.104317           -2.350161            -8.253423
| 66>   O                      -8.867229            -2.241263            -8.920471
| 67>   H                      -9.011740            -2.601204            -9.803120
| 68>   H                      -10.018075           -3.069902            -7.488052
| 69>   H                      -10.453108           -1.463139            -7.638385
| 70>   H                      -10.952744           -2.628921            -8.831483
| 71> *
| 72>
| 73>                          ****END OF INPUT****
 Total Charge           Charge          ....    0
 Multiplicity           Mult            ....    1
 Number of Electrons    NEL             ....   36
Dispersion correction           -0.001693227
FINAL SINGLE POINT ENERGY      -231.458661628499
Dispersion correction           -0.000213957
FINAL SINGLE POINT ENERGY      -115.729731915545

CARTESIAN COORDINATES (ANGSTROEM)
---------------------------------
  C     -9.460971   -5.850150   -9.983236
  O     -8.591912   -6.718918  -10.686473
  H     -8.695396   -7.506844  -10.221084
  H    -10.460182   -6.178799  -10.083656
  H     -9.193688   -5.917862   -8.911150
  H     -9.460853   -4.773154  -10.286841
  C    -10.104317   -2.350161   -8.253423
  O     -8.867229   -2.241263   -8.920471
  H     -9.011740   -2.601204   -9.803120
  H    -10.018075   -3.069902   -7.488052
  H    -10.453108   -1.463139   -7.638385
  H    -10.952744   -2.628921   -8.831483

 Multiplicity           Mult            ....    1
 Number of Electrons    NEL             ....   18
 Basis Dimension        Dim             ....  172

ORBITAL ENERGIES
----------------

  NO   OCC          E(Eh)            E(eV)
   0   2.0000     -19.236276      -523.4457
   1   2.0000     -10.309037      -280.5231
   2   2.0000      -1.140550       -31.0359
   3   2.0000      -0.800513       -21.7831
   4   2.0000      -0.618518       -16.8307
   5   2.0000      -0.536793       -14.6069
   6   2.0000      -0.527698       -14.3594
   7   2.0000      -0.441873       -12.0240
   8   2.0000      -0.372068       -10.1245
   9   0.0000       0.077392         2.1059
  10   0.0000       0.123985         3.3738
  11   0.0000       0.143719         3.9108
  12   0.0000       0.179730         4.8907
  13   0.0000       0.186018         5.0618

MULLIKEN ATOMIC CHARGES
-----------------------
   0 C :    0.004663
   1 O :    0.000023
   2 H :    0.000009
   3 H :   -0.000509
   4 H :   -0.000162
   5 H :   -0.010604
   6 C :   -0.188284
   7 O :   -0.463349
   8 H :    0.320760
   9 H :    0.111980
  10 H :    0.110122
  11 H :    0.115352
Sum of atomic charges:   -0.0000000

LOEWDIN ATOMIC CHARGES
----------------------
   0 C :   -0.003139
   1 O :   -0.000018
   2 H :   -0.000002
   3 H :   -0.000080
   4 H :   -0.000342
   5 H :   -0.005449
   6 C :   -0.396530
   7 O :   -0.064495
   8 H :    0.175825
   9 H :    0.091126
  10 H :    0.111239
  11 H :    0.091864

  Mayer bond orders larger than 0.1
B(  6-C ,  7-O ) :   1.0032 B(  6-C ,  9-H ) :   0.9840 B(  6-C , 10-H ) :   0.9747
B(  6-C , 11-H ) :   0.9793 B(  7-O ,  8-H ) :   0.9001

Dispersion correction           -0.000257155
FINAL SINGLE POINT ENERGY      -115.728772526118

DIPOLE MOMENT
-------------
                                X             Y             Z
Electronic contribution:      1.73887       0.20823      -0.93300
Nuclear contribution   :     -2.32395      -0.50039       0.63239
                        -----------------------------------------
Total Dipole Moment    :     -0.58508      -0.29215      -0.30061
                        -----------------------------------------
Magnitude (a.u.)       :      0.71975
Magnitude (Debye)      :      1.82946

Rotational constants in cm-1:     4.563675     0.826956     0.790449
Rotational constants in MHz : 136815.543795 24791.511870 23697.064616

                             ****ORCA TERMINATED NORMALLY****
TOTAL RUN TIME: 0 days 0 hours 0 minutes 56 seconds 989 msec
