                         Program Version 4.1.2  - RELEASE  -
|  1> #Run DFT-D3 single point of the dimer
|  2> ! wB97X-D3 def2-TZVP TIGHTSCF CHELPG PMODEL PAL8
|  3>
|  4> %base "3-165_DFT_AB"
|  5>
|  6> %scf
|  7> MaxIter 1000
|  8> end
|  9>
| 10> * xyz 0 1
| 11>   C                      -10.006549           -8.983578            2.457631
| 12>   O                      -11.332765           -9.384044            2.132506
| 13>   H                      -11.934447           -8.738316            2.524777
| 14>   H                      -9.919528            -7.819163            2.359987
| 15>   H                      -9.692257            -9.178101            3.554183
| 16>   H                      -9.276436            -9.382026            1.751698
| 17>   C                      -10.970570           -8.447904            5.893369
| 18>   O                      -10.342299           -9.588435            6.343870
| 19>   H                      -10.962584           -10.295352           6.186280
| 20>   H                      -10.201346           -7.610646            5.809055
| 21>   H                      -11.538388           -8.705082            4.987265
| 22>   H                      -11.729175           -8.082975            6.596208
| 23> *
| 24>
| 25> #Run DFT-D3 single point of the molecule with dimer basis set
| 26> $new_job
| 27> %base "3-165_DFT_A"
| 28> ! wB97X-D3 def2-TZVP TIGHTSCF CHELPG PMODEL
| 29>
| 30> %scf
| 31> MaxIter 1000
| 32> end
| 33>
| 34> * xyz 0 1
| 35>   C                      -10.006549           -8.983578            2.457631
| 36>   O                      -11.332765           -9.384044            2.132506
| 37>   H                      -11.934447           -8.738316            2.524777
| 38>   H                      -9.919528            -7.819163            2.359987
| 39>   H                      -9.692257            -9.178101            3.554183
| 40>   H                      -9.276436            -9.382026            1.751698
| 41>   C                    : -10.970570           -8.447904            5.893369
| 42>   O                    : -10.342299           -9.588435            6.343870
| 43>   H                    : -10.962584           -10.295352           6.186280
| 44>   H                    : -10.201346           -7.610646            5.809055
| 45>   H                    : -11.538388           -8.705082            4.987265
| 46>   H                    : -11.729175           -8.082975            6.596208
| 47> *
| 48>
| 49> #Run DFT-D3 single point of the particle with dimer basis set
| 50> $new_job
| 51> %base "3-165_DFT_B"
| 52> ! wB97X-D3 def2-TZVP TIGHTSCF CHELPG PMODEL
| 53>
| 54> %scf
| 55> MaxIter 1000
| 56> end
| 57>
| 58> * xyz 0 1
| 59>   C                    : -10.006549           -8.983578            2.457631
| 60>   O                    : -11.332765           -9.384044            2.132506
| 61>   H                    : -11.934447           -8.738316            2.524777
| 62>   H                    : -9.919528            -7.819163            2.359987
| 63>   H                    : -9.692257            -9.178101            3.554183
| 64>   H                    : -9.276436            -9.382026            1.751698
| 65>   C                      -10.970570           -8.447904            5.893369
| 66>   O                      -10.342299           -9.588435            6.343870
| 67>   H                      -10.962584           -10.295352           6.186280
| 68>   H                      -10.201346           -7.610646            5.809055
| 69>   H                      -11.538388           -8.705082            4.987265
| 70>   H                      -11.729175           -8.082975            6.596208
| 71> *
| 72>
| 73>                          ****END OF INPUT****
 Total Charge           Charge          ....    0
 Multiplicity           Mult            ....    1
 Number of Electrons    NEL             ....   36
Dispersion correction           -0.002035480
FINAL SINGLE POINT ENERGY      -231.463705386833
Dispersion correction           -0.000270935
FINAL SINGLE POINT ENERGY      -115.730413330034

CARTESIAN COORDINATES (ANGSTROEM)
---------------------------------
  C    -10.006549   -8.983578    2.457631
  O    -11.332765   -9.384044    2.132506
  H    -11.934447   -8.738316    2.524777
  H     -9.919528   -7.819163    2.359987
  H     -9.692257   -9.178101    3.554183
  H     -9.276436   -9.382026    1.751698
  C    -10.970570   -8.447904    5.893369
  O    -10.342299   -9.588435    6.343870
  H    -10.962584  -10.295352    6.186280
  H    -10.201346   -7.610646    5.809055
  H    -11.538388   -8.705082    4.987265
  H    -11.729175   -8.082975    6.596208

 Multiplicity           Mult            ....    1
 Number of Electrons    NEL             ....   18
 Basis Dimension        Dim             ....  172

ORBITAL ENERGIES
----------------

  NO   OCC          E(Eh)            E(eV)
   0   2.0000     -19.230211      -523.2806
   1   2.0000     -10.315996      -280.7125
   2   2.0000      -1.152368       -31.3575
   3   2.0000      -0.788185       -21.4476
   4   2.0000      -0.621889       -16.9224
   5   2.0000      -0.544217       -14.8089
   6   2.0000      -0.527003       -14.3405
   7   2.0000      -0.437499       -11.9049
   8   2.0000      -0.367882       -10.0106
   9   0.0000       0.086081         2.3424
  10   0.0000       0.121529         3.3070
  11   0.0000       0.155446         4.2299
  12   0.0000       0.161011         4.3813
  13   0.0000       0.197650         5.3783

MULLIKEN ATOMIC CHARGES
-----------------------
   0 C :   -0.002459
   1 O :    0.000304
   2 H :   -0.001414
   3 H :    0.000069
   4 H :    0.001255
   5 H :    0.000142
   6 C :   -0.170523
   7 O :   -0.460050
   8 H :    0.313659
   9 H :    0.112754
  10 H :    0.102895
  11 H :    0.103368
Sum of atomic charges:    0.0000000

LOEWDIN ATOMIC CHARGES
----------------------
   0 C :   -0.007219
   1 O :   -0.000876
   2 H :   -0.003438
   3 H :   -0.000423
   4 H :   -0.006250
   5 H :   -0.000046
   6 C :   -0.415330
   7 O :   -0.046409
   8 H :    0.169890
   9 H :    0.118392
  10 H :    0.100600
  11 H :    0.091108

  Mayer bond orders larger than 0.1
B(  6-C ,  7-O ) :   0.9840 B(  6-C ,  9-H ) :   0.9751 B(  6-C , 10-H ) :   0.9927
B(  6-C , 11-H ) :   0.9667 B(  7-O ,  8-H ) :   0.9015

Dispersion correction           -0.000214834
FINAL SINGLE POINT ENERGY      -115.731667354128

DIPOLE MOMENT
-------------
                                X             Y             Z
Electronic contribution:      0.99295      -1.42942       0.58533
Nuclear contribution   :     -1.62275       1.38897      -0.83643
                        -----------------------------------------
Total Dipole Moment    :     -0.62980      -0.04046      -0.25110
                        -----------------------------------------
Magnitude (a.u.)       :      0.67922
Magnitude (Debye)      :      1.72645

Rotational constants in cm-1:     4.127937     0.881442     0.830797
Rotational constants in MHz : 123752.428468 26424.957410 24906.664610

                             ****ORCA TERMINATED NORMALLY****
TOTAL RUN TIME: 0 days 0 hours 5 minutes 43 seconds 790 msec
