                         Program Version 4.1.2  - RELEASE  -
|  1> #Run DFT-D3 single point of the dimer
|  2> ! wB97X-D3 def2-TZVP TIGHTSCF CHELPG PMODEL PAL8
|  3>
|  4> %base "7-210_DFT_AB"
|  5>
|  6> %scf
|  7> MaxIter 1000
|  8> end
|  9>
| 10> * xyz 0 1
| 11>   C                      -11.295443           9.223032             8.700884
| 12>   O                      -9.892847            9.093159             8.688448
| 13>   H                      -9.680646            8.187656             8.839787
| 14>   H                      -11.743624           9.018829             7.762429
| 15>   H                      -11.616767           8.333848             9.275435
| 16>   H                      -11.685365           10.165059            9.078397
| 17>   C                      -6.530383            10.951674            8.901592
| 18>   O                      -7.684524            10.618841            9.735066
| 19>   H                      -8.353286            10.408918            9.066043
| 20>   H                      -6.719685            11.760187            8.203078
| 21>   H                      -5.703094            11.170698            9.574333
| 22>   H                      -6.189085            10.046732            8.366782
| 23> *
| 24>
| 25> #Run DFT-D3 single point of the molecule with dimer basis set
| 26> $new_job
| 27> %base "7-210_DFT_A"
| 28> ! wB97X-D3 def2-TZVP TIGHTSCF CHELPG PMODEL
| 29>
| 30> %scf
| 31> MaxIter 1000
| 32> end
| 33>
| 34> * xyz 0 1
| 35>   C                      -11.295443           9.223032             8.700884
| 36>   O                      -9.892847            9.093159             8.688448
| 37>   H                      -9.680646            8.187656             8.839787
| 38>   H                      -11.743624           9.018829             7.762429
| 39>   H                      -11.616767           8.333848             9.275435
| 40>   H                      -11.685365           10.165059            9.078397
| 41>   C                    : -6.530383            10.951674            8.901592
| 42>   O                    : -7.684524            10.618841            9.735066
| 43>   H                    : -8.353286            10.408918            9.066043
| 44>   H                    : -6.719685            11.760187            8.203078
| 45>   H                    : -5.703094            11.170698            9.574333
| 46>   H                    : -6.189085            10.046732            8.366782
| 47> *
| 48>
| 49> #Run DFT-D3 single point of the particle with dimer basis set
| 50> $new_job
| 51> %base "7-210_DFT_B"
| 52> ! wB97X-D3 def2-TZVP TIGHTSCF CHELPG PMODEL
| 53>
| 54> %scf
| 55> MaxIter 1000
| 56> end
| 57>
| 58> * xyz 0 1
| 59>   C                    : -11.295443           9.223032             8.700884
| 60>   O                    : -9.892847            9.093159             8.688448
| 61>   H                    : -9.680646            8.187656             8.839787
| 62>   H                    : -11.743624           9.018829             7.762429
| 63>   H                    : -11.616767           8.333848             9.275435
| 64>   H                    : -11.685365           10.165059            9.078397
| 65>   C                      -6.530383            10.951674            8.901592
| 66>   O                      -7.684524            10.618841            9.735066
| 67>   H                      -8.353286            10.408918            9.066043
| 68>   H                      -6.719685            11.760187            8.203078
| 69>   H                      -5.703094            11.170698            9.574333
| 70>   H                      -6.189085            10.046732            8.366782
| 71> *
| 72>
| 73>                          ****END OF INPUT****
 Total Charge           Charge          ....    0
 Multiplicity           Mult            ....    1
 Number of Electrons    NEL             ....   36
Dispersion correction           -0.001407963
FINAL SINGLE POINT ENERGY      -231.469125664519
Dispersion correction           -0.000223462
FINAL SINGLE POINT ENERGY      -115.728373089478

CARTESIAN COORDINATES (ANGSTROEM)
---------------------------------
  C    -11.295443    9.223032    8.700884
  O     -9.892847    9.093159    8.688448
  H     -9.680646    8.187656    8.839787
  H    -11.743624    9.018829    7.762429
  H    -11.616767    8.333848    9.275435
  H    -11.685365   10.165059    9.078397
  C     -6.530383   10.951674    8.901592
  O     -7.684524   10.618841    9.735066
  H     -8.353286   10.408918    9.066043
  H     -6.719685   11.760187    8.203078
  H     -5.703094   11.170698    9.574333
  H     -6.189085   10.046732    8.366782

 Multiplicity           Mult            ....    1
 Number of Electrons    NEL             ....   18
 Basis Dimension        Dim             ....  172

ORBITAL ENERGIES
----------------

  NO   OCC          E(Eh)            E(eV)
   0   2.0000     -19.233148      -523.3606
   1   2.0000     -10.316684      -280.7312
   2   2.0000      -1.124583       -30.6015
   3   2.0000      -0.794735       -21.6258
   4   2.0000      -0.600219       -16.3328
   5   2.0000      -0.541866       -14.7449
   6   2.0000      -0.516691       -14.0599
   7   2.0000      -0.444448       -12.0941
   8   2.0000      -0.376672       -10.2498
   9   0.0000       0.076631         2.0852
  10   0.0000       0.125141         3.4053
  11   0.0000       0.151368         4.1189
  12   0.0000       0.169088         4.6011
  13   0.0000       0.197608         5.3772

MULLIKEN ATOMIC CHARGES
-----------------------
   0 C :   -0.001041
   1 O :   -0.002874
   2 H :   -0.001117
   3 H :    0.000037
   4 H :    0.000054
   5 H :   -0.000094
   6 C :   -0.185564
   7 O :   -0.466489
   8 H :    0.308885
   9 H :    0.114747
  10 H :    0.124759
  11 H :    0.108697
Sum of atomic charges:   -0.0000000

LOEWDIN ATOMIC CHARGES
----------------------
   0 C :   -0.001815
   1 O :   -0.016720
   2 H :   -0.002010
   3 H :   -0.000032
   4 H :   -0.000047
   5 H :   -0.000150
   6 C :   -0.356271
   7 O :   -0.103251
   8 H :    0.177915
   9 H :    0.094557
  10 H :    0.108732
  11 H :    0.099093

  Mayer bond orders larger than 0.1
B(  6-C ,  7-O ) :   0.9964 B(  6-C ,  9-H ) :   0.9724 B(  6-C , 10-H ) :   0.9743
B(  6-C , 11-H ) :   0.9744 B(  7-O ,  8-H ) :   0.9077

Dispersion correction           -0.000242541
FINAL SINGLE POINT ENERGY      -115.734514460060

DIPOLE MOMENT
-------------
                                X             Y             Z
Electronic contribution:     -1.37296      -0.26795       1.14223
Nuclear contribution   :      1.46258       0.27680      -1.88026
                        -----------------------------------------
Total Dipole Moment    :      0.08962       0.00885      -0.73803
                        -----------------------------------------
Magnitude (a.u.)       :      0.74350
Magnitude (Debye)      :      1.88984

Rotational constants in cm-1:     4.191882     0.795671     0.767449
Rotational constants in MHz : 125669.446214 23853.609246 23007.553953

                             ****ORCA TERMINATED NORMALLY****
TOTAL RUN TIME: 0 days 0 hours 1 minutes 4 seconds 664 msec
