                         Program Version 4.1.2  - RELEASE  -
|  1> #Run DFT-D3 single point of the dimer
|  2> ! wB97X-D3 def2-TZVP TIGHTSCF CHELPG PMODEL PAL8
|  3>
|  4> %base "12-79_DFT_AB"
|  5>
|  6> %scf
|  7> MaxIter 1000
|  8> end
|  9>
| 10> * xyz 0 1
| 11>   C                      7.095750             3.934989             5.712976
| 12>   O                      8.233398             3.019336             5.783510
| 13>   H                      8.730311             3.165655             4.956165
| 14>   H                      6.340234             3.723684             6.452433
| 15>   H                      7.425371             4.894638             6.015371
| 16>   H                      6.636750             3.988568             4.765022
| 17>   C                      9.582655             6.879623             4.936623
| 18>   O                      10.255227            6.090616             5.863854
| 19>   H                      10.330314            6.486114             6.755497
| 20>   H                      10.083130            7.853261             4.736883
| 21>   H                      9.466581             6.489050             3.892743
| 22>   H                      8.555110             7.126426             5.235489
| 23> *
| 24>
| 25> #Run DFT-D3 single point of the molecule with dimer basis set
| 26> $new_job
| 27> %base "12-79_DFT_A"
| 28> ! wB97X-D3 def2-TZVP TIGHTSCF CHELPG PMODEL
| 29>
| 30> %scf
| 31> MaxIter 1000
| 32> end
| 33>
| 34> * xyz 0 1
| 35>   C                      7.095750             3.934989             5.712976
| 36>   O                      8.233398             3.019336             5.783510
| 37>   H                      8.730311             3.165655             4.956165
| 38>   H                      6.340234             3.723684             6.452433
| 39>   H                      7.425371             4.894638             6.015371
| 40>   H                      6.636750             3.988568             4.765022
| 41>   C                    : 9.582655             6.879623             4.936623
| 42>   O                    : 10.255227            6.090616             5.863854
| 43>   H                    : 10.330314            6.486114             6.755497
| 44>   H                    : 10.083130            7.853261             4.736883
| 45>   H                    : 9.466581             6.489050             3.892743
| 46>   H                    : 8.555110             7.126426             5.235489
| 47> *
| 48>
| 49> #Run DFT-D3 single point of the particle with dimer basis set
| 50> $new_job
| 51> %base "12-79_DFT_B"
| 52> ! wB97X-D3 def2-TZVP TIGHTSCF CHELPG PMODEL
| 53>
| 54> %scf
| 55> MaxIter 1000
| 56> end
| 57>
| 58> * xyz 0 1
| 59>   C                    : 7.095750             3.934989             5.712976
| 60>   O                    : 8.233398             3.019336             5.783510
| 61>   H                    : 8.730311             3.165655             4.956165
| 62>   H                    : 6.340234             3.723684             6.452433
| 63>   H                    : 7.425371             4.894638             6.015371
| 64>   H                    : 6.636750             3.988568             4.765022
| 65>   C                      9.582655             6.879623             4.936623
| 66>   O                      10.255227            6.090616             5.863854
| 67>   H                      10.330314            6.486114             6.755497
| 68>   H                      10.083130            7.853261             4.736883
| 69>   H                      9.466581             6.489050             3.892743
| 70>   H                      8.555110             7.126426             5.235489
| 71> *
| 72>
| 73>                          ****END OF INPUT****
 Total Charge           Charge          ....    0
 Multiplicity           Mult            ....    1
 Number of Electrons    NEL             ....   36
Dispersion correction           -0.001876360
FINAL SINGLE POINT ENERGY      -231.463044407911
Dispersion correction           -0.000247378
FINAL SINGLE POINT ENERGY      -115.731122094466

CARTESIAN COORDINATES (ANGSTROEM)
---------------------------------
  C      7.095750    3.934989    5.712976
  O      8.233398    3.019336    5.783510
  H      8.730311    3.165655    4.956165
  H      6.340234    3.723684    6.452433
  H      7.425371    4.894638    6.015371
  H      6.636750    3.988568    4.765022
  C      9.582655    6.879623    4.936623
  O     10.255227    6.090616    5.863854
  H     10.330314    6.486114    6.755497
  H     10.083130    7.853261    4.736883
  H      9.466581    6.489050    3.892743
  H      8.555110    7.126426    5.235489

 Multiplicity           Mult            ....    1
 Number of Electrons    NEL             ....   18
 Basis Dimension        Dim             ....  172

ORBITAL ENERGIES
----------------

  NO   OCC          E(Eh)            E(eV)
   0   2.0000     -19.234406      -523.3948
   1   2.0000     -10.317242      -280.7464
   2   2.0000      -1.138097       -30.9692
   3   2.0000      -0.795043       -21.6342
   4   2.0000      -0.618209       -16.8223
   5   2.0000      -0.538834       -14.6624
   6   2.0000      -0.529680       -14.4133
   7   2.0000      -0.419655       -11.4194
   8   2.0000      -0.372767       -10.1435
   9   0.0000       0.091262         2.4834
  10   0.0000       0.122810         3.3418
  11   0.0000       0.146211         3.9786
  12   0.0000       0.168873         4.5953
  13   0.0000       0.199479         5.4281

MULLIKEN ATOMIC CHARGES
-----------------------
   0 C :    0.001909
   1 O :   -0.000521
   2 H :   -0.000956
   3 H :    0.000089
   4 H :   -0.001189
   5 H :   -0.000447
   6 C :   -0.164298
   7 O :   -0.481683
   8 H :    0.325346
   9 H :    0.102732
  10 H :    0.121735
  11 H :    0.097283
Sum of atomic charges:   -0.0000000

LOEWDIN ATOMIC CHARGES
----------------------
   0 C :   -0.002885
   1 O :   -0.000825
   2 H :   -0.000972
   3 H :   -0.000007
   4 H :   -0.003056
   5 H :   -0.000072
   6 C :   -0.416195
   7 O :   -0.064285
   8 H :    0.184301
   9 H :    0.096102
  10 H :    0.115207
  11 H :    0.092688

  Mayer bond orders larger than 0.1
B(  6-C ,  7-O ) :   0.9947 B(  6-C ,  9-H ) :   0.9774 B(  6-C , 10-H ) :   0.9695
B(  6-C , 11-H ) :   0.9791 B(  7-O ,  8-H ) :   0.8840

Dispersion correction           -0.000271344
FINAL SINGLE POINT ENERGY      -115.730828721821

DIPOLE MOMENT
-------------
                                X             Y             Z
Electronic contribution:      0.95975      -1.25959       1.22453
Nuclear contribution   :     -1.16960       1.83024      -1.01408
                        -----------------------------------------
Total Dipole Moment    :     -0.20986       0.57066       0.21045
                        -----------------------------------------
Magnitude (a.u.)       :      0.64341
Magnitude (Debye)      :      1.63542

Rotational constants in cm-1:     4.482825     0.821631     0.797285
Rotational constants in MHz : 134391.703236 24631.876536 23902.007882

                             ****ORCA TERMINATED NORMALLY****
TOTAL RUN TIME: 0 days 0 hours 1 minutes 10 seconds 70 msec
