                         Program Version 4.1.2  - RELEASE  -
|  1> #Run DFT-D3 single point of the dimer
|  2> ! wB97X-D3 def2-TZVP TIGHTSCF CHELPG PMODEL PAL8
|  3>
|  4> %base "1-82_DFT_AB"
|  5>
|  6> %scf
|  7> MaxIter 1000
|  8> end
|  9>
| 10> * xyz 0 1
| 11>   C                      -2.564663            -10.829491           0.819036
| 12>   O                      -1.332082            -11.025152           1.444712
| 13>   H                      -1.579110            -11.609815           2.161669
| 14>   H                      -2.334350            -10.176657           -0.055430
| 15>   H                      -2.996839            -11.752730           0.453297
| 16>   H                      -3.253794            -10.236978           1.399588
| 17>   C                      0.147487             -10.878635           5.552531
| 18>   O                      -0.847567            -10.263458           6.365772
| 19>   H                      -1.074027            -9.403888            6.015301
| 20>   H                      -0.429552            -11.525158           4.836190
| 21>   H                      0.745412             -10.186834           4.917920
| 22>   H                      0.793972             -11.591896           6.171292
| 23> *
| 24>
| 25> #Run DFT-D3 single point of the molecule with dimer basis set
| 26> $new_job
| 27> %base "1-82_DFT_A"
| 28> ! wB97X-D3 def2-TZVP TIGHTSCF CHELPG PMODEL
| 29>
| 30> %scf
| 31> MaxIter 1000
| 32> end
| 33>
| 34> * xyz 0 1
| 35>   C                      -2.564663            -10.829491           0.819036
| 36>   O                      -1.332082            -11.025152           1.444712
| 37>   H                      -1.579110            -11.609815           2.161669
| 38>   H                      -2.334350            -10.176657           -0.055430
| 39>   H                      -2.996839            -11.752730           0.453297
| 40>   H                      -3.253794            -10.236978           1.399588
| 41>   C                    : 0.147487             -10.878635           5.552531
| 42>   O                    : -0.847567            -10.263458           6.365772
| 43>   H                    : -1.074027            -9.403888            6.015301
| 44>   H                    : -0.429552            -11.525158           4.836190
| 45>   H                    : 0.745412             -10.186834           4.917920
| 46>   H                    : 0.793972             -11.591896           6.171292
| 47> *
| 48>
| 49> #Run DFT-D3 single point of the particle with dimer basis set
| 50> $new_job
| 51> %base "1-82_DFT_B"
| 52> ! wB97X-D3 def2-TZVP TIGHTSCF CHELPG PMODEL
| 53>
| 54> %scf
| 55> MaxIter 1000
| 56> end
| 57>
| 58> * xyz 0 1
| 59>   C                    : -2.564663            -10.829491           0.819036
| 60>   O                    : -1.332082            -11.025152           1.444712
| 61>   H                    : -1.579110            -11.609815           2.161669
| 62>   H                    : -2.334350            -10.176657           -0.055430
| 63>   H                    : -2.996839            -11.752730           0.453297
| 64>   H                    : -3.253794            -10.236978           1.399588
| 65>   C                      0.147487             -10.878635           5.552531
| 66>   O                      -0.847567            -10.263458           6.365772
| 67>   H                      -1.074027            -9.403888            6.015301
| 68>   H                      -0.429552            -11.525158           4.836190
| 69>   H                      0.745412             -10.186834           4.917920
| 70>   H                      0.793972             -11.591896           6.171292
| 71> *
| 72>
| 73>                          ****END OF INPUT****
 Total Charge           Charge          ....    0
 Multiplicity           Mult            ....    1
 Number of Electrons    NEL             ....   36
Dispersion correction           -0.000961859
FINAL SINGLE POINT ENERGY      -231.465993812973
Dispersion correction           -0.000214971
FINAL SINGLE POINT ENERGY      -115.733871180828

CARTESIAN COORDINATES (ANGSTROEM)
---------------------------------
  C     -2.564663  -10.829491    0.819036
  O     -1.332082  -11.025152    1.444712
  H     -1.579110  -11.609815    2.161669
  H     -2.334350  -10.176657   -0.055430
  H     -2.996839  -11.752730    0.453297
  H     -3.253794  -10.236978    1.399588
  C      0.147487  -10.878635    5.552531
  O     -0.847567  -10.263458    6.365772
  H     -1.074027   -9.403888    6.015301
  H     -0.429552  -11.525158    4.836190
  H      0.745412  -10.186834    4.917920
  H      0.793972  -11.591896    6.171292

 Multiplicity           Mult            ....    1
 Number of Electrons    NEL             ....   18
 Basis Dimension        Dim             ....  172

ORBITAL ENERGIES
----------------

  NO   OCC          E(Eh)            E(eV)
   0   2.0000     -19.229290      -523.2556
   1   2.0000     -10.325515      -280.9716
   2   2.0000      -1.133026       -30.8312
   3   2.0000      -0.789584       -21.4857
   4   2.0000      -0.610681       -16.6175
   5   2.0000      -0.529473       -14.4077
   6   2.0000      -0.524069       -14.2606
   7   2.0000      -0.436776       -11.8853
   8   2.0000      -0.367727       -10.0064
   9   0.0000       0.083436         2.2704
  10   0.0000       0.115100         3.1320
  11   0.0000       0.144043         3.9196
  12   0.0000       0.172325         4.6892
  13   0.0000       0.190456         5.1826

MULLIKEN ATOMIC CHARGES
-----------------------
   0 C :   -0.000025
   1 O :    0.000028
   2 H :   -0.000445
   3 H :    0.000002
   4 H :    0.000001
   5 H :   -0.000000
   6 C :   -0.168487
   7 O :   -0.476340
   8 H :    0.315522
   9 H :    0.104918
  10 H :    0.107464
  11 H :    0.117362
Sum of atomic charges:    0.0000000

LOEWDIN ATOMIC CHARGES
----------------------
   0 C :   -0.000019
   1 O :   -0.000179
   2 H :   -0.001636
   3 H :   -0.000000
   4 H :   -0.000000
   5 H :   -0.000002
   6 C :   -0.389414
   7 O :   -0.086849
   8 H :    0.164062
   9 H :    0.101171
  10 H :    0.097998
  11 H :    0.114868

  Mayer bond orders larger than 0.1
B(  6-C ,  7-O ) :   0.9970 B(  6-C ,  9-H ) :   0.9818 B(  6-C , 10-H ) :   0.9722
B(  6-C , 11-H ) :   0.9691 B(  7-O ,  8-H ) :   0.8983

Dispersion correction           -0.000263625
FINAL SINGLE POINT ENERGY      -115.731133792222

DIPOLE MOMENT
-------------
                                X             Y             Z
Electronic contribution:     -1.15728       0.81164       1.18119
Nuclear contribution   :      1.40293      -0.48688      -1.73864
                        -----------------------------------------
Total Dipole Moment    :      0.24565       0.32476      -0.55746
                        -----------------------------------------
Magnitude (a.u.)       :      0.69034
Magnitude (Debye)      :      1.75471

Rotational constants in cm-1:     4.116344     0.817158     0.781406
Rotational constants in MHz : 123404.887114 24497.772239 23425.975096

                             ****ORCA TERMINATED NORMALLY****
TOTAL RUN TIME: 0 days 0 hours 5 minutes 43 seconds 336 msec
