                         Program Version 4.1.2  - RELEASE  -
|  1> #Run DFT-D3 single point of the dimer
|  2> ! wB97X-D3 def2-TZVP TIGHTSCF CHELPG PMODEL PAL8
|  3>
|  4> %base "17-50_DFT_AB"
|  5>
|  6> %scf
|  7> MaxIter 1000
|  8> end
|  9>
| 10> * xyz 0 1
| 11>   C                      8.855435             2.500085             -1.398292
| 12>   O                      8.460156             1.355056             -0.672985
| 13>   H                      9.255421             1.118995             -0.121987
| 14>   H                      9.214119             3.364614             -0.741264
| 15>   H                      9.646805             2.202095             -2.062144
| 16>   H                      8.024161             2.826217             -2.019382
| 17>   C                      10.006193            3.023497             2.387987
| 18>   O                      9.008992             3.597998             3.216723
| 19>   H                      8.144207             3.307288             2.901018
| 20>   H                      9.695812             2.898919             1.395559
| 21>   H                      10.964039            3.566239             2.285630
| 22>   H                      10.212016            1.968806             2.642863
| 23> *
| 24>
| 25> #Run DFT-D3 single point of the molecule with dimer basis set
| 26> $new_job
| 27> %base "17-50_DFT_A"
| 28> ! wB97X-D3 def2-TZVP TIGHTSCF CHELPG PMODEL
| 29>
| 30> %scf
| 31> MaxIter 1000
| 32> end
| 33>
| 34> * xyz 0 1
| 35>   C                      8.855435             2.500085             -1.398292
| 36>   O                      8.460156             1.355056             -0.672985
| 37>   H                      9.255421             1.118995             -0.121987
| 38>   H                      9.214119             3.364614             -0.741264
| 39>   H                      9.646805             2.202095             -2.062144
| 40>   H                      8.024161             2.826217             -2.019382
| 41>   C                    : 10.006193            3.023497             2.387987
| 42>   O                    : 9.008992             3.597998             3.216723
| 43>   H                    : 8.144207             3.307288             2.901018
| 44>   H                    : 9.695812             2.898919             1.395559
| 45>   H                    : 10.964039            3.566239             2.285630
| 46>   H                    : 10.212016            1.968806             2.642863
| 47> *
| 48>
| 49> #Run DFT-D3 single point of the particle with dimer basis set
| 50> $new_job
| 51> %base "17-50_DFT_B"
| 52> ! wB97X-D3 def2-TZVP TIGHTSCF CHELPG PMODEL
| 53>
| 54> %scf
| 55> MaxIter 1000
| 56> end
| 57>
| 58> * xyz 0 1
| 59>   C                    : 8.855435             2.500085             -1.398292
| 60>   O                    : 8.460156             1.355056             -0.672985
| 61>   H                    : 9.255421             1.118995             -0.121987
| 62>   H                    : 9.214119             3.364614             -0.741264
| 63>   H                    : 9.646805             2.202095             -2.062144
| 64>   H                    : 8.024161             2.826217             -2.019382
| 65>   C                      10.006193            3.023497             2.387987
| 66>   O                      9.008992             3.597998             3.216723
| 67>   H                      8.144207             3.307288             2.901018
| 68>   H                      9.695812             2.898919             1.395559
| 69>   H                      10.964039            3.566239             2.285630
| 70>   H                      10.212016            1.968806             2.642863
| 71> *
| 72>
| 73>                          ****END OF INPUT****
 Total Charge           Charge          ....    0
 Multiplicity           Mult            ....    1
 Number of Electrons    NEL             ....   36
Dispersion correction           -0.001755804
FINAL SINGLE POINT ENERGY      -231.464515686485
Dispersion correction           -0.000231603
FINAL SINGLE POINT ENERGY      -115.733870197725

CARTESIAN COORDINATES (ANGSTROEM)
---------------------------------
  C      8.855435    2.500085   -1.398292
  O      8.460156    1.355056   -0.672985
  H      9.255421    1.118995   -0.121987
  H      9.214119    3.364614   -0.741264
  H      9.646805    2.202095   -2.062144
  H      8.024161    2.826217   -2.019382
  C     10.006193    3.023497    2.387987
  O      9.008992    3.597998    3.216723
  H      8.144207    3.307288    2.901018
  H      9.695812    2.898919    1.395559
  H     10.964039    3.566239    2.285630
  H     10.212016    1.968806    2.642863

 Multiplicity           Mult            ....    1
 Number of Electrons    NEL             ....   18
 Basis Dimension        Dim             ....  172

ORBITAL ENERGIES
----------------

  NO   OCC          E(Eh)            E(eV)
   0   2.0000     -19.233381      -523.3669
   1   2.0000     -10.311040      -280.5777
   2   2.0000      -1.134630       -30.8749
   3   2.0000      -0.800677       -21.7875
   4   2.0000      -0.617465       -16.8021
   5   2.0000      -0.536896       -14.6097
   6   2.0000      -0.525384       -14.2964
   7   2.0000      -0.435147       -11.8410
   8   2.0000      -0.373176       -10.1546
   9   0.0000       0.079890         2.1739
  10   0.0000       0.120788         3.2868
  11   0.0000       0.146959         3.9989
  12   0.0000       0.170162         4.6303
  13   0.0000       0.195198         5.3116

MULLIKEN ATOMIC CHARGES
-----------------------
   0 C :   -0.000366
   1 O :    0.000473
   2 H :   -0.001803
   3 H :    0.001959
   4 H :    0.000110
   5 H :   -0.000099
   6 C :   -0.160834
   7 O :   -0.476042
   8 H :    0.319353
   9 H :    0.099214
  10 H :    0.120855
  11 H :    0.097179
Sum of atomic charges:   -0.0000000

LOEWDIN ATOMIC CHARGES
----------------------
   0 C :   -0.005744
   1 O :   -0.001048
   2 H :   -0.003652
   3 H :   -0.005208
   4 H :   -0.000049
   5 H :   -0.000063
   6 C :   -0.381757
   7 O :   -0.078952
   8 H :    0.174804
   9 H :    0.091283
  10 H :    0.112226
  11 H :    0.098161

  Mayer bond orders larger than 0.1
B(  6-C ,  7-O ) :   1.0012 B(  6-C ,  9-H ) :   0.9828 B(  6-C , 10-H ) :   0.9712
B(  6-C , 11-H ) :   0.9780 B(  7-O ,  8-H ) :   0.8952

Dispersion correction           -0.000252905
FINAL SINGLE POINT ENERGY      -115.729588792413

DIPOLE MOMENT
-------------
                                X             Y             Z
Electronic contribution:     -1.20495       0.95209       1.23439
Nuclear contribution   :      1.03436      -1.36135      -1.81466
                        -----------------------------------------
Total Dipole Moment    :     -0.17059      -0.40927      -0.58027
                        -----------------------------------------
Magnitude (a.u.)       :      0.73028
Magnitude (Debye)      :      1.85622

Rotational constants in cm-1:     4.535808     0.815318     0.784230
Rotational constants in MHz : 135980.100471 24442.609445 23510.627457

                             ****ORCA TERMINATED NORMALLY****
TOTAL RUN TIME: 0 days 0 hours 1 minutes 11 seconds 50 msec
