                         Program Version 4.1.2  - RELEASE  -
|  1> #Run DFT-D3 single point of the dimer
|  2> ! wB97X-D3 def2-TZVP TIGHTSCF CHELPG PMODEL PAL8
|  3>
|  4> %base "8-79_DFT_AB"
|  5>
|  6> %scf
|  7> MaxIter 1000
|  8> end
|  9>
| 10> * xyz 0 1
| 11>   C                      6.555521             2.875121             5.302771
| 12>   O                      5.960526             2.912413             6.541502
| 13>   H                      5.034107             2.707951             6.433674
| 14>   H                      6.880396             3.815636             4.981021
| 15>   H                      7.546284             2.419773             5.320943
| 16>   H                      5.929050             2.395693             4.578541
| 17>   C                      3.249225             3.038504             10.023126
| 18>   O                      1.995367             2.482952             9.742321
| 19>   H                      2.069505             1.547390             10.004658
| 20>   H                      3.385172             3.935449             9.501430
| 21>   H                      3.374864             3.187775             11.147714
| 22>   H                      4.066608             2.405667             9.708746
| 23> *
| 24>
| 25> #Run DFT-D3 single point of the molecule with dimer basis set
| 26> $new_job
| 27> %base "8-79_DFT_A"
| 28> ! wB97X-D3 def2-TZVP TIGHTSCF CHELPG PMODEL
| 29>
| 30> %scf
| 31> MaxIter 1000
| 32> end
| 33>
| 34> * xyz 0 1
| 35>   C                      6.555521             2.875121             5.302771
| 36>   O                      5.960526             2.912413             6.541502
| 37>   H                      5.034107             2.707951             6.433674
| 38>   H                      6.880396             3.815636             4.981021
| 39>   H                      7.546284             2.419773             5.320943
| 40>   H                      5.929050             2.395693             4.578541
| 41>   C                    : 3.249225             3.038504             10.023126
| 42>   O                    : 1.995367             2.482952             9.742321
| 43>   H                    : 2.069505             1.547390             10.004658
| 44>   H                    : 3.385172             3.935449             9.501430
| 45>   H                    : 3.374864             3.187775             11.147714
| 46>   H                    : 4.066608             2.405667             9.708746
| 47> *
| 48>
| 49> #Run DFT-D3 single point of the particle with dimer basis set
| 50> $new_job
| 51> %base "8-79_DFT_B"
| 52> ! wB97X-D3 def2-TZVP TIGHTSCF CHELPG PMODEL
| 53>
| 54> %scf
| 55> MaxIter 1000
| 56> end
| 57>
| 58> * xyz 0 1
| 59>   C                    : 6.555521             2.875121             5.302771
| 60>   O                    : 5.960526             2.912413             6.541502
| 61>   H                    : 5.034107             2.707951             6.433674
| 62>   H                    : 6.880396             3.815636             4.981021
| 63>   H                    : 7.546284             2.419773             5.320943
| 64>   H                    : 5.929050             2.395693             4.578541
| 65>   C                      3.249225             3.038504             10.023126
| 66>   O                      1.995367             2.482952             9.742321
| 67>   H                      2.069505             1.547390             10.004658
| 68>   H                      3.385172             3.935449             9.501430
| 69>   H                      3.374864             3.187775             11.147714
| 70>   H                      4.066608             2.405667             9.708746
| 71> *
| 72>
| 73>                          ****END OF INPUT****
 Total Charge           Charge          ....    0
 Multiplicity           Mult            ....    1
 Number of Electrons    NEL             ....   36
Dispersion correction           -0.000839861
FINAL SINGLE POINT ENERGY      -231.462995960097
Dispersion correction           -0.000227656
FINAL SINGLE POINT ENERGY      -115.728646309075

CARTESIAN COORDINATES (ANGSTROEM)
---------------------------------
  C      6.555521    2.875121    5.302771
  O      5.960526    2.912413    6.541502
  H      5.034107    2.707951    6.433674
  H      6.880396    3.815636    4.981021
  H      7.546284    2.419773    5.320943
  H      5.929050    2.395693    4.578541
  C      3.249225    3.038504   10.023126
  O      1.995367    2.482952    9.742321
  H      2.069505    1.547390   10.004658
  H      3.385172    3.935449    9.501430
  H      3.374864    3.187775   11.147714
  H      4.066608    2.405667    9.708746

 Multiplicity           Mult            ....    1
 Number of Electrons    NEL             ....   18
 Basis Dimension        Dim             ....  172

ORBITAL ENERGIES
----------------

  NO   OCC          E(Eh)            E(eV)
   0   2.0000     -19.232441      -523.3413
   1   2.0000     -10.309517      -280.5362
   2   2.0000      -1.140151       -31.0251
   3   2.0000      -0.794500       -21.6194
   4   2.0000      -0.612754       -16.6739
   5   2.0000      -0.543138       -14.7795
   6   2.0000      -0.528642       -14.3851
   7   2.0000      -0.438293       -11.9266
   8   2.0000      -0.371413       -10.1067
   9   0.0000       0.086701         2.3593
  10   0.0000       0.112499         3.0613
  11   0.0000       0.144780         3.9397
  12   0.0000       0.177861         4.8399
  13   0.0000       0.192135         5.2283

MULLIKEN ATOMIC CHARGES
-----------------------
   0 C :   -0.000094
   1 O :   -0.000084
   2 H :    0.000203
   3 H :    0.000002
   4 H :    0.000001
   5 H :    0.000003
   6 C :   -0.165816
   7 O :   -0.467698
   8 H :    0.317144
   9 H :    0.120659
  10 H :    0.092659
  11 H :    0.103022
Sum of atomic charges:    0.0000000

LOEWDIN ATOMIC CHARGES
----------------------
   0 C :   -0.000020
   1 O :   -0.000157
   2 H :   -0.000176
   3 H :   -0.000000
   4 H :   -0.000000
   5 H :   -0.000000
   6 C :   -0.397264
   7 O :   -0.072335
   8 H :    0.181005
   9 H :    0.096261
  10 H :    0.101290
  11 H :    0.091397

  Mayer bond orders larger than 0.1
B(  6-C ,  7-O ) :   1.0040 B(  6-C ,  9-H ) :   0.9741 B(  6-C , 10-H ) :   0.9763
B(  6-C , 11-H ) :   0.9780 B(  7-O ,  8-H ) :   0.8981

Dispersion correction           -0.000227060
FINAL SINGLE POINT ENERGY      -115.733223618235

DIPOLE MOMENT
-------------
                                X             Y             Z
Electronic contribution:     -1.72051      -0.52694      -0.51720
Nuclear contribution   :      2.25758       0.15349       0.74543
                        -----------------------------------------
Total Dipole Moment    :      0.53707      -0.37344       0.22823
                        -----------------------------------------
Magnitude (a.u.)       :      0.69282
Magnitude (Debye)      :      1.76100

Rotational constants in cm-1:     4.276939     0.845224     0.818332
Rotational constants in MHz : 128219.405312 25339.187787 24532.989481

                             ****ORCA TERMINATED NORMALLY****
TOTAL RUN TIME: 0 days 0 hours 0 minutes 41 seconds 609 msec
