                         Program Version 4.1.2  - RELEASE  -
|  1> #Run DFT-D3 single point of the dimer
|  2> ! wB97X-D3 def2-TZVP TIGHTSCF CHELPG PMODEL PAL8
|  3>
|  4> %base "18-24_DFT_AB"
|  5>
|  6> %scf
|  7> MaxIter 1000
|  8> end
|  9>
| 10> * xyz 0 1
| 11>   C                      -5.176520            -0.642955            5.468790
| 12>   O                      -4.038877            -1.295501            5.945422
| 13>   H                      -4.126203            -2.205438            5.650035
| 14>   H                      -5.286508            -0.774904            4.375683
| 15>   H                      -6.105946            -0.911018            5.899308
| 16>   H                      -5.090722            0.414521             5.747167
| 17>   C                      -5.155608            4.448761             6.495203
| 18>   O                      -4.963587            4.813747             5.143795
| 19>   H                      -4.164699            5.306233             4.967387
| 20>   H                      -5.003782            5.333135             7.120820
| 21>   H                      -6.091171            3.966939             6.766882
| 22>   H                      -4.363425            3.691716             6.857259
| 23> *
| 24>
| 25> #Run DFT-D3 single point of the molecule with dimer basis set
| 26> $new_job
| 27> %base "18-24_DFT_A"
| 28> ! wB97X-D3 def2-TZVP TIGHTSCF CHELPG PMODEL
| 29>
| 30> %scf
| 31> MaxIter 1000
| 32> end
| 33>
| 34> * xyz 0 1
| 35>   C                      -5.176520            -0.642955            5.468790
| 36>   O                      -4.038877            -1.295501            5.945422
| 37>   H                      -4.126203            -2.205438            5.650035
| 38>   H                      -5.286508            -0.774904            4.375683
| 39>   H                      -6.105946            -0.911018            5.899308
| 40>   H                      -5.090722            0.414521             5.747167
| 41>   C                    : -5.155608            4.448761             6.495203
| 42>   O                    : -4.963587            4.813747             5.143795
| 43>   H                    : -4.164699            5.306233             4.967387
| 44>   H                    : -5.003782            5.333135             7.120820
| 45>   H                    : -6.091171            3.966939             6.766882
| 46>   H                    : -4.363425            3.691716             6.857259
| 47> *
| 48>
| 49> #Run DFT-D3 single point of the particle with dimer basis set
| 50> $new_job
| 51> %base "18-24_DFT_B"
| 52> ! wB97X-D3 def2-TZVP TIGHTSCF CHELPG PMODEL
| 53>
| 54> %scf
| 55> MaxIter 1000
| 56> end
| 57>
| 58> * xyz 0 1
| 59>   C                    : -5.176520            -0.642955            5.468790
| 60>   O                    : -4.038877            -1.295501            5.945422
| 61>   H                    : -4.126203            -2.205438            5.650035
| 62>   H                    : -5.286508            -0.774904            4.375683
| 63>   H                    : -6.105946            -0.911018            5.899308
| 64>   H                    : -5.090722            0.414521             5.747167
| 65>   C                      -5.155608            4.448761             6.495203
| 66>   O                      -4.963587            4.813747             5.143795
| 67>   H                      -4.164699            5.306233             4.967387
| 68>   H                      -5.003782            5.333135             7.120820
| 69>   H                      -6.091171            3.966939             6.766882
| 70>   H                      -4.363425            3.691716             6.857259
| 71> *
| 72>
| 73>                          ****END OF INPUT****
 Total Charge           Charge          ....    0
 Multiplicity           Mult            ....    1
 Number of Electrons    NEL             ....   36
Dispersion correction           -0.000783602
FINAL SINGLE POINT ENERGY      -231.464401195373
Dispersion correction           -0.000229559
FINAL SINGLE POINT ENERGY      -115.734101002245

CARTESIAN COORDINATES (ANGSTROEM)
---------------------------------
  C     -5.176520   -0.642955    5.468790
  O     -4.038877   -1.295501    5.945422
  H     -4.126203   -2.205438    5.650035
  H     -5.286508   -0.774904    4.375683
  H     -6.105946   -0.911018    5.899308
  H     -5.090722    0.414521    5.747167
  C     -5.155608    4.448761    6.495203
  O     -4.963587    4.813747    5.143795
  H     -4.164699    5.306233    4.967387
  H     -5.003782    5.333135    7.120820
  H     -6.091171    3.966939    6.766882
  H     -4.363425    3.691716    6.857259

 Multiplicity           Mult            ....    1
 Number of Electrons    NEL             ....   18
 Basis Dimension        Dim             ....  172

ORBITAL ENERGIES
----------------

  NO   OCC          E(Eh)            E(eV)
   0   2.0000     -19.228537      -523.2351
   1   2.0000     -10.320414      -280.8327
   2   2.0000      -1.133724       -30.8502
   3   2.0000      -0.796763       -21.6810
   4   2.0000      -0.613528       -16.6949
   5   2.0000      -0.542062       -14.7503
   6   2.0000      -0.526224       -14.3193
   7   2.0000      -0.423917       -11.5354
   8   2.0000      -0.369301       -10.0492
   9   0.0000       0.088259         2.4016
  10   0.0000       0.115071         3.1312
  11   0.0000       0.143667         3.9094
  12   0.0000       0.172207         4.6860
  13   0.0000       0.189425         5.1545

MULLIKEN ATOMIC CHARGES
-----------------------
   0 C :   -0.000483
   1 O :    0.000013
   2 H :    0.000000
   3 H :    0.000006
   4 H :    0.000026
   5 H :    0.000822
   6 C :   -0.164012
   7 O :   -0.487365
   8 H :    0.321727
   9 H :    0.107744
  10 H :    0.129584
  11 H :    0.091939
Sum of atomic charges:    0.0000000

LOEWDIN ATOMIC CHARGES
----------------------
   0 C :   -0.000073
   1 O :   -0.000002
   2 H :   -0.000000
   3 H :   -0.000001
   4 H :   -0.000002
   5 H :   -0.000110
   6 C :   -0.390320
   7 O :   -0.077820
   8 H :    0.166141
   9 H :    0.094484
  10 H :    0.106891
  11 H :    0.100812

  Mayer bond orders larger than 0.1
B(  6-C ,  7-O ) :   0.9916 B(  6-C ,  9-H ) :   0.9827 B(  6-C , 10-H ) :   0.9672
B(  6-C , 11-H ) :   0.9745 B(  7-O ,  8-H ) :   0.8909

Dispersion correction           -0.000265467
FINAL SINGLE POINT ENERGY      -115.729799591923

DIPOLE MOMENT
-------------
                                X             Y             Z
Electronic contribution:     -0.03339       0.45669      -1.86435
Nuclear contribution   :      0.46074      -0.26893       2.30218
                        -----------------------------------------
Total Dipole Moment    :      0.42735       0.18776       0.43784
                        -----------------------------------------
Magnitude (a.u.)       :      0.63999
Magnitude (Debye)      :      1.62671

Rotational constants in cm-1:     4.398191     0.810979     0.786262
Rotational constants in MHz : 131854.454501 24312.538594 23571.540934

                             ****ORCA TERMINATED NORMALLY****
TOTAL RUN TIME: 0 days 0 hours 1 minutes 0 seconds 35 msec
