                         Program Version 4.1.2  - RELEASE  -
|  1> #Run DFT-D3 single point of the dimer
|  2> ! wB97X-D3 def2-TZVP TIGHTSCF CHELPG PMODEL PAL8
|  3>
|  4> %base "11-143_DFT_AB"
|  5>
|  6> %scf
|  7> MaxIter 1000
|  8> end
|  9>
| 10> * xyz 0 1
| 11>   C                      3.963104             -1.894302            -6.831238
| 12>   O                      4.841024             -1.628224            -5.724773
| 13>   H                      5.315042             -2.462843            -5.462940
| 14>   H                      3.675892             -0.939994            -7.360445
| 15>   H                      4.399781             -2.566132            -7.606293
| 16>   H                      3.045565             -2.437522            -6.505905
| 17>   C                      1.492828             0.368408             -5.091656
| 18>   O                      1.961456             0.876587             -3.881381
| 19>   H                      2.572465             0.270275             -3.456347
| 20>   H                      2.162575             0.620419             -5.884801
| 21>   H                      1.356467             -0.711084            -4.939639
| 22>   H                      0.515742             0.725289             -5.371675
| 23> *
| 24>
| 25> #Run DFT-D3 single point of the molecule with dimer basis set
| 26> $new_job
| 27> %base "11-143_DFT_A"
| 28> ! wB97X-D3 def2-TZVP TIGHTSCF CHELPG PMODEL
| 29>
| 30> %scf
| 31> MaxIter 1000
| 32> end
| 33>
| 34> * xyz 0 1
| 35>   C                      3.963104             -1.894302            -6.831238
| 36>   O                      4.841024             -1.628224            -5.724773
| 37>   H                      5.315042             -2.462843            -5.462940
| 38>   H                      3.675892             -0.939994            -7.360445
| 39>   H                      4.399781             -2.566132            -7.606293
| 40>   H                      3.045565             -2.437522            -6.505905
| 41>   C                    : 1.492828             0.368408             -5.091656
| 42>   O                    : 1.961456             0.876587             -3.881381
| 43>   H                    : 2.572465             0.270275             -3.456347
| 44>   H                    : 2.162575             0.620419             -5.884801
| 45>   H                    : 1.356467             -0.711084            -4.939639
| 46>   H                    : 0.515742             0.725289             -5.371675
| 47> *
| 48>
| 49> #Run DFT-D3 single point of the particle with dimer basis set
| 50> $new_job
| 51> %base "11-143_DFT_B"
| 52> ! wB97X-D3 def2-TZVP TIGHTSCF CHELPG PMODEL
| 53>
| 54> %scf
| 55> MaxIter 1000
| 56> end
| 57>
| 58> * xyz 0 1
| 59>   C                    : 3.963104             -1.894302            -6.831238
| 60>   O                    : 4.841024             -1.628224            -5.724773
| 61>   H                    : 5.315042             -2.462843            -5.462940
| 62>   H                    : 3.675892             -0.939994            -7.360445
| 63>   H                    : 4.399781             -2.566132            -7.606293
| 64>   H                    : 3.045565             -2.437522            -6.505905
| 65>   C                      1.492828             0.368408             -5.091656
| 66>   O                      1.961456             0.876587             -3.881381
| 67>   H                      2.572465             0.270275             -3.456347
| 68>   H                      2.162575             0.620419             -5.884801
| 69>   H                      1.356467             -0.711084            -4.939639
| 70>   H                      0.515742             0.725289             -5.371675
| 71> *
| 72>
| 73>                          ****END OF INPUT****
 Total Charge           Charge          ....    0
 Multiplicity           Mult            ....    1
 Number of Electrons    NEL             ....   36
Dispersion correction           -0.001762642
FINAL SINGLE POINT ENERGY      -231.467533819631
Dispersion correction           -0.000276692
FINAL SINGLE POINT ENERGY      -115.732971368028

CARTESIAN COORDINATES (ANGSTROEM)
---------------------------------
  C      3.963104   -1.894302   -6.831238
  O      4.841024   -1.628224   -5.724773
  H      5.315042   -2.462843   -5.462940
  H      3.675892   -0.939994   -7.360445
  H      4.399781   -2.566132   -7.606293
  H      3.045565   -2.437522   -6.505905
  C      1.492828    0.368408   -5.091656
  O      1.961456    0.876587   -3.881381
  H      2.572465    0.270275   -3.456347
  H      2.162575    0.620419   -5.884801
  H      1.356467   -0.711084   -4.939639
  H      0.515742    0.725289   -5.371675

 Multiplicity           Mult            ....    1
 Number of Electrons    NEL             ....   18
 Basis Dimension        Dim             ....  172

ORBITAL ENERGIES
----------------

  NO   OCC          E(Eh)            E(eV)
   0   2.0000     -19.225384      -523.1493
   1   2.0000     -10.307079      -280.4699
   2   2.0000      -1.138822       -30.9889
   3   2.0000      -0.798306       -21.7230
   4   2.0000      -0.610638       -16.6163
   5   2.0000      -0.553182       -15.0529
   6   2.0000      -0.535373       -14.5682
   7   2.0000      -0.419538       -11.4162
   8   2.0000      -0.372662       -10.1406
   9   0.0000       0.078992         2.1495
  10   0.0000       0.119242         3.2447
  11   0.0000       0.147205         4.0056
  12   0.0000       0.174369         4.7448
  13   0.0000       0.176777         4.8103

MULLIKEN ATOMIC CHARGES
-----------------------
   0 C :   -0.000266
   1 O :    0.000303
   2 H :    0.000010
   3 H :   -0.001416
   4 H :   -0.000215
   5 H :   -0.001117
   6 C :   -0.148516
   7 O :   -0.481137
   8 H :    0.319349
   9 H :    0.104023
  10 H :    0.098506
  11 H :    0.110477
Sum of atomic charges:    0.0000000

LOEWDIN ATOMIC CHARGES
----------------------
   0 C :   -0.005085
   1 O :   -0.000152
   2 H :   -0.000009
   3 H :   -0.002688
   4 H :   -0.000023
   5 H :   -0.001633
   6 C :   -0.388514
   7 O :   -0.066729
   8 H :    0.169773
   9 H :    0.092563
  10 H :    0.100498
  11 H :    0.101998

  Mayer bond orders larger than 0.1
B(  6-C ,  7-O ) :   1.0022 B(  6-C ,  9-H ) :   0.9765 B(  6-C , 10-H ) :   0.9938
B(  6-C , 11-H ) :   0.9678 B(  7-O ,  8-H ) :   0.8953

Dispersion correction           -0.000226568
FINAL SINGLE POINT ENERGY      -115.732642716201

DIPOLE MOMENT
-------------
                                X             Y             Z
Electronic contribution:      0.54102       0.81808       1.47481
Nuclear contribution   :     -0.35338      -1.41462      -1.67346
                        -----------------------------------------
Total Dipole Moment    :      0.18764      -0.59653      -0.19865
                        -----------------------------------------
Magnitude (a.u.)       :      0.65614
Magnitude (Debye)      :      1.66777

Rotational constants in cm-1:     4.417311     0.848509     0.824887
Rotational constants in MHz : 132427.664498 25437.666272 24729.501016

                             ****ORCA TERMINATED NORMALLY****
TOTAL RUN TIME: 0 days 0 hours 1 minutes 11 seconds 232 msec
