                         Program Version 4.1.2  - RELEASE  -
|  1> #Run DFT-D3 single point of the dimer
|  2> ! wB97X-D3 def2-TZVP TIGHTSCF CHELPG PMODEL PAL8
|  3>
|  4> %base "16-28_DFT_AB"
|  5>
|  6> %scf
|  7> MaxIter 1000
|  8> end
|  9>
| 10> * xyz 0 1
| 11>   C                      -9.948473            -1.812941            5.438624
| 12>   O                      -9.656483            -1.904055            6.869065
| 13>   H                      -8.898172            -2.436655            7.042660
| 14>   H                      -10.795136           -1.169837            5.194730
| 15>   H                      -9.039130            -1.454169            4.871001
| 16>   H                      -10.203844           -2.769139            4.921275
| 17>   C                      -6.453457            -0.292748            3.025583
| 18>   O                      -7.118976            0.113840             4.133951
| 19>   H                      -6.482829            0.713591             4.577241
| 20>   H                      -7.026724            -1.111261            2.492437
| 21>   H                      -6.333896            0.490249             2.235554
| 22>   H                      -5.489757            -0.618275            3.381762
| 23> *
| 24>
| 25> #Run DFT-D3 single point of the molecule with dimer basis set
| 26> $new_job
| 27> %base "16-28_DFT_A"
| 28> ! wB97X-D3 def2-TZVP TIGHTSCF CHELPG PMODEL
| 29>
| 30> %scf
| 31> MaxIter 1000
| 32> end
| 33>
| 34> * xyz 0 1
| 35>   C                      -9.948473            -1.812941            5.438624
| 36>   O                      -9.656483            -1.904055            6.869065
| 37>   H                      -8.898172            -2.436655            7.042660
| 38>   H                      -10.795136           -1.169837            5.194730
| 39>   H                      -9.039130            -1.454169            4.871001
| 40>   H                      -10.203844           -2.769139            4.921275
| 41>   C                    : -6.453457            -0.292748            3.025583
| 42>   O                    : -7.118976            0.113840             4.133951
| 43>   H                    : -6.482829            0.713591             4.577241
| 44>   H                    : -7.026724            -1.111261            2.492437
| 45>   H                    : -6.333896            0.490249             2.235554
| 46>   H                    : -5.489757            -0.618275            3.381762
| 47> *
| 48>
| 49> #Run DFT-D3 single point of the particle with dimer basis set
| 50> $new_job
| 51> %base "16-28_DFT_B"
| 52> ! wB97X-D3 def2-TZVP TIGHTSCF CHELPG PMODEL
| 53>
| 54> %scf
| 55> MaxIter 1000
| 56> end
| 57>
| 58> * xyz 0 1
| 59>   C                    : -9.948473            -1.812941            5.438624
| 60>   O                    : -9.656483            -1.904055            6.869065
| 61>   H                    : -8.898172            -2.436655            7.042660
| 62>   H                    : -10.795136           -1.169837            5.194730
| 63>   H                    : -9.039130            -1.454169            4.871001
| 64>   H                    : -10.203844           -2.769139            4.921275
| 65>   C                      -6.453457            -0.292748            3.025583
| 66>   O                      -7.118976            0.113840             4.133951
| 67>   H                      -6.482829            0.713591             4.577241
| 68>   H                      -7.026724            -1.111261            2.492437
| 69>   H                      -6.333896            0.490249             2.235554
| 70>   H                      -5.489757            -0.618275            3.381762
| 71> *
| 72>
| 73>                          ****END OF INPUT****
 Total Charge           Charge          ....    0
 Multiplicity           Mult            ....    1
 Number of Electrons    NEL             ....   36
Dispersion correction           -0.001358708
FINAL SINGLE POINT ENERGY      -231.460849523401
Dispersion correction           -0.000296861
FINAL SINGLE POINT ENERGY      -115.730303789329

CARTESIAN COORDINATES (ANGSTROEM)
---------------------------------
  C     -9.948473   -1.812941    5.438624
  O     -9.656483   -1.904055    6.869065
  H     -8.898172   -2.436655    7.042660
  H    -10.795136   -1.169837    5.194730
  H     -9.039130   -1.454169    4.871001
  H    -10.203844   -2.769139    4.921275
  C     -6.453457   -0.292748    3.025583
  O     -7.118976    0.113840    4.133951
  H     -6.482829    0.713591    4.577241
  H     -7.026724   -1.111261    2.492437
  H     -6.333896    0.490249    2.235554
  H     -5.489757   -0.618275    3.381762

 Multiplicity           Mult            ....    1
 Number of Electrons    NEL             ....   18
 Basis Dimension        Dim             ....  172

ORBITAL ENERGIES
----------------

  NO   OCC          E(Eh)            E(eV)
   0   2.0000     -19.233200      -523.3620
   1   2.0000     -10.313286      -280.6388
   2   2.0000      -1.157328       -31.4925
   3   2.0000      -0.784096       -21.3363
   4   2.0000      -0.619722       -16.8635
   5   2.0000      -0.555933       -15.1277
   6   2.0000      -0.529372       -14.4049
   7   2.0000      -0.429657       -11.6916
   8   2.0000      -0.368636       -10.0311
   9   0.0000       0.096539         2.6270
  10   0.0000       0.116226         3.1627
  11   0.0000       0.154546         4.2054
  12   0.0000       0.172715         4.6998
  13   0.0000       0.193612         5.2685

MULLIKEN ATOMIC CHARGES
-----------------------
   0 C :    0.001130
   1 O :   -0.000067
   2 H :   -0.000183
   3 H :   -0.000069
   4 H :   -0.006716
   5 H :   -0.000105
   6 C :   -0.149442
   7 O :   -0.444499
   8 H :    0.314339
   9 H :    0.110087
  10 H :    0.085026
  11 H :    0.090497
Sum of atomic charges:   -0.0000000

LOEWDIN ATOMIC CHARGES
----------------------
   0 C :   -0.003450
   1 O :   -0.000024
   2 H :   -0.000085
   3 H :   -0.000068
   4 H :   -0.008900
   5 H :   -0.000015
   6 C :   -0.440898
   7 O :   -0.032438
   8 H :    0.189290
   9 H :    0.114308
  10 H :    0.092516
  11 H :    0.089764

  Mayer bond orders larger than 0.1
B(  6-C ,  7-O ) :   1.0033 B(  6-C ,  9-H ) :   0.9733 B(  6-C , 10-H ) :   0.9647
B(  6-C , 11-H ) :   0.9932 B(  7-O ,  8-H ) :   0.8939

Dispersion correction           -0.000206607
FINAL SINGLE POINT ENERGY      -115.729095124404

DIPOLE MOMENT
-------------
                                X             Y             Z
Electronic contribution:     -1.01061       0.45462       1.48704
Nuclear contribution   :      1.63605      -0.22992      -1.58940
                        -----------------------------------------
Total Dipole Moment    :      0.62544       0.22469      -0.10237
                        -----------------------------------------
Magnitude (a.u.)       :      0.67241
Magnitude (Debye)      :      1.70914

Rotational constants in cm-1:     4.127675     0.898289     0.856937
Rotational constants in MHz : 123744.579121 26930.039758 25690.333445

                             ****ORCA TERMINATED NORMALLY****
TOTAL RUN TIME: 0 days 0 hours 1 minutes 5 seconds 334 msec
