                         Program Version 4.1.2  - RELEASE  -
|  1> #Run DFT-D3 single point of the dimer
|  2> ! wB97X-D3 def2-TZVP TIGHTSCF CHELPG PMODEL PAL8
|  3>
|  4> %base "7-180_DFT_AB"
|  5>
|  6> %scf
|  7> MaxIter 1000
|  8> end
|  9>
| 10> * xyz 0 1
| 11>   C                      -4.689874            2.477957             -5.657461
| 12>   O                      -4.070348            3.742163             -5.395652
| 13>   H                      -3.950294            3.802633             -4.417182
| 14>   H                      -5.262581            2.615438             -6.581683
| 15>   H                      -3.949888            1.703794             -5.863848
| 16>   H                      -5.266612            2.155315             -4.816156
| 17>   C                      -3.322712            4.496069             -1.381422
| 18>   O                      -4.046440            3.672575             -2.286686
| 19>   H                      -4.540441            2.947560             -1.866418
| 20>   H                      -2.791277            5.191939             -2.030407
| 21>   H                      -4.010575            5.026944             -0.666010
| 22>   H                      -2.645470            3.961505             -0.674929
| 23> *
| 24>
| 25> #Run DFT-D3 single point of the molecule with dimer basis set
| 26> $new_job
| 27> %base "7-180_DFT_A"
| 28> ! wB97X-D3 def2-TZVP TIGHTSCF CHELPG PMODEL
| 29>
| 30> %scf
| 31> MaxIter 1000
| 32> end
| 33>
| 34> * xyz 0 1
| 35>   C                      -4.689874            2.477957             -5.657461
| 36>   O                      -4.070348            3.742163             -5.395652
| 37>   H                      -3.950294            3.802633             -4.417182
| 38>   H                      -5.262581            2.615438             -6.581683
| 39>   H                      -3.949888            1.703794             -5.863848
| 40>   H                      -5.266612            2.155315             -4.816156
| 41>   C                    : -3.322712            4.496069             -1.381422
| 42>   O                    : -4.046440            3.672575             -2.286686
| 43>   H                    : -4.540441            2.947560             -1.866418
| 44>   H                    : -2.791277            5.191939             -2.030407
| 45>   H                    : -4.010575            5.026944             -0.666010
| 46>   H                    : -2.645470            3.961505             -0.674929
| 47> *
| 48>
| 49> #Run DFT-D3 single point of the particle with dimer basis set
| 50> $new_job
| 51> %base "7-180_DFT_B"
| 52> ! wB97X-D3 def2-TZVP TIGHTSCF CHELPG PMODEL
| 53>
| 54> %scf
| 55> MaxIter 1000
| 56> end
| 57>
| 58> * xyz 0 1
| 59>   C                    : -4.689874            2.477957             -5.657461
| 60>   O                    : -4.070348            3.742163             -5.395652
| 61>   H                    : -3.950294            3.802633             -4.417182
| 62>   H                    : -5.262581            2.615438             -6.581683
| 63>   H                    : -3.949888            1.703794             -5.863848
| 64>   H                    : -5.266612            2.155315             -4.816156
| 65>   C                      -3.322712            4.496069             -1.381422
| 66>   O                      -4.046440            3.672575             -2.286686
| 67>   H                      -4.540441            2.947560             -1.866418
| 68>   H                      -2.791277            5.191939             -2.030407
| 69>   H                      -4.010575            5.026944             -0.666010
| 70>   H                      -2.645470            3.961505             -0.674929
| 71> *
| 72>
| 73>                          ****END OF INPUT****
 Total Charge           Charge          ....    0
 Multiplicity           Mult            ....    1
 Number of Electrons    NEL             ....   36
Dispersion correction           -0.001626632
FINAL SINGLE POINT ENERGY      -231.476230423925
Dispersion correction           -0.000240506
FINAL SINGLE POINT ENERGY      -115.734441318278

CARTESIAN COORDINATES (ANGSTROEM)
---------------------------------
  C     -4.689874    2.477957   -5.657461
  O     -4.070348    3.742163   -5.395652
  H     -3.950294    3.802633   -4.417182
  H     -5.262581    2.615438   -6.581683
  H     -3.949888    1.703794   -5.863848
  H     -5.266612    2.155315   -4.816156
  C     -3.322712    4.496069   -1.381422
  O     -4.046440    3.672575   -2.286686
  H     -4.540441    2.947560   -1.866418
  H     -2.791277    5.191939   -2.030407
  H     -4.010575    5.026944   -0.666010
  H     -2.645470    3.961505   -0.674929

 Multiplicity           Mult            ....    1
 Number of Electrons    NEL             ....   18
 Basis Dimension        Dim             ....  172

ORBITAL ENERGIES
----------------

  NO   OCC          E(Eh)            E(eV)
   0   2.0000     -19.230939      -523.3005
   1   2.0000     -10.320172      -280.8262
   2   2.0000      -1.128637       -30.7118
   3   2.0000      -0.794462       -21.6184
   4   2.0000      -0.614313       -16.7163
   5   2.0000      -0.528661       -14.3856
   6   2.0000      -0.524627       -14.2758
   7   2.0000      -0.434365       -11.8197
   8   2.0000      -0.370268       -10.0755
   9   0.0000       0.097721         2.6591
  10   0.0000       0.123555         3.3621
  11   0.0000       0.150550         4.0967
  12   0.0000       0.179439         4.8828
  13   0.0000       0.200960         5.4684

MULLIKEN ATOMIC CHARGES
-----------------------
   0 C :    0.002027
   1 O :   -0.000517
   2 H :   -0.008031
   3 H :   -0.000154
   4 H :   -0.000135
   5 H :   -0.002541
   6 C :   -0.146189
   7 O :   -0.478493
   8 H :    0.314694
   9 H :    0.126632
  10 H :    0.094206
  11 H :    0.098502
Sum of atomic charges:   -0.0000000

LOEWDIN ATOMIC CHARGES
----------------------
   0 C :   -0.003028
   1 O :   -0.002356
   2 H :   -0.027186
   3 H :   -0.000040
   4 H :   -0.000053
   5 H :   -0.001122
   6 C :   -0.381365
   7 O :   -0.062096
   8 H :    0.172024
   9 H :    0.111158
  10 H :    0.097959
  11 H :    0.096105

  Mayer bond orders larger than 0.1
B(  6-C ,  7-O ) :   0.9975 B(  6-C ,  9-H ) :   0.9761 B(  6-C , 10-H ) :   0.9723
B(  6-C , 11-H ) :   0.9668 B(  7-O ,  8-H ) :   0.8907

Dispersion correction           -0.000272285
FINAL SINGLE POINT ENERGY      -115.733835485350

DIPOLE MOMENT
-------------
                                X             Y             Z
Electronic contribution:     -0.80323      -0.97465      -1.28189
Nuclear contribution   :      0.77951       0.83505       1.92556
                        -----------------------------------------
Total Dipole Moment    :     -0.02371      -0.13960       0.64366
                        -----------------------------------------
Magnitude (a.u.)       :      0.65905
Magnitude (Debye)      :      1.67518

Rotational constants in cm-1:     4.234406     0.818168     0.781882
Rotational constants in MHz : 126944.300359 24528.050547 23440.218162

                             ****ORCA TERMINATED NORMALLY****
TOTAL RUN TIME: 0 days 0 hours 1 minutes 9 seconds 88 msec
