                         Program Version 4.1.2  - RELEASE  -
|  1> #Run DFT-D3 single point of the dimer
|  2> ! wB97X-D3 def2-TZVP TIGHTSCF CHELPG PMODEL PAL8
|  3>
|  4> %base "8-123_DFT_AB"
|  5>
|  6> %scf
|  7> MaxIter 1000
|  8> end
|  9>
| 10> * xyz 0 1
| 11>   C                      -6.308179            -5.387465            -2.161918
| 12>   O                      -4.901234            -5.451709            -1.749648
| 13>   H                      -4.873933            -6.027285            -0.960875
| 14>   H                      -6.791508            -4.616564            -1.659120
| 15>   H                      -6.432112            -5.097386            -3.261564
| 16>   H                      -6.785034            -6.313867            -1.949980
| 17>   C                      -5.450394            -7.017792            1.970977
| 18>   O                      -6.042229            -6.920867            0.673254
| 19>   H                      -6.564923            -7.763865            0.522771
| 20>   H                      -4.782055            -7.916130            2.135093
| 21>   H                      -4.793322            -6.180792            2.074901
| 22>   H                      -6.219856            -6.898667            2.649508
| 23> *
| 24>
| 25> #Run DFT-D3 single point of the molecule with dimer basis set
| 26> $new_job
| 27> %base "8-123_DFT_A"
| 28> ! wB97X-D3 def2-TZVP TIGHTSCF CHELPG PMODEL
| 29>
| 30> %scf
| 31> MaxIter 1000
| 32> end
| 33>
| 34> * xyz 0 1
| 35>   C                      -6.308179            -5.387465            -2.161918
| 36>   O                      -4.901234            -5.451709            -1.749648
| 37>   H                      -4.873933            -6.027285            -0.960875
| 38>   H                      -6.791508            -4.616564            -1.659120
| 39>   H                      -6.432112            -5.097386            -3.261564
| 40>   H                      -6.785034            -6.313867            -1.949980
| 41>   C                    : -5.450394            -7.017792            1.970977
| 42>   O                    : -6.042229            -6.920867            0.673254
| 43>   H                    : -6.564923            -7.763865            0.522771
| 44>   H                    : -4.782055            -7.916130            2.135093
| 45>   H                    : -4.793322            -6.180792            2.074901
| 46>   H                    : -6.219856            -6.898667            2.649508
| 47> *
| 48>
| 49> #Run DFT-D3 single point of the particle with dimer basis set
| 50> $new_job
| 51> %base "8-123_DFT_B"
| 52> ! wB97X-D3 def2-TZVP TIGHTSCF CHELPG PMODEL
| 53>
| 54> %scf
| 55> MaxIter 1000
| 56> end
| 57>
| 58> * xyz 0 1
| 59>   C                    : -6.308179            -5.387465            -2.161918
| 60>   O                    : -4.901234            -5.451709            -1.749648
| 61>   H                    : -4.873933            -6.027285            -0.960875
| 62>   H                    : -6.791508            -4.616564            -1.659120
| 63>   H                    : -6.432112            -5.097386            -3.261564
| 64>   H                    : -6.785034            -6.313867            -1.949980
| 65>   C                      -5.450394            -7.017792            1.970977
| 66>   O                      -6.042229            -6.920867            0.673254
| 67>   H                      -6.564923            -7.763865            0.522771
| 68>   H                      -4.782055            -7.916130            2.135093
| 69>   H                      -4.793322            -6.180792            2.074901
| 70>   H                      -6.219856            -6.898667            2.649508
| 71> *
| 72>
| 73>                          ****END OF INPUT****
 Total Charge           Charge          ....    0
 Multiplicity           Mult            ....    1
 Number of Electrons    NEL             ....   36
Dispersion correction           -0.001869479
FINAL SINGLE POINT ENERGY      -231.466375413784
Dispersion correction           -0.000252693
FINAL SINGLE POINT ENERGY      -115.729261248991

CARTESIAN COORDINATES (ANGSTROEM)
---------------------------------
  C     -6.308179   -5.387465   -2.161918
  O     -4.901234   -5.451709   -1.749648
  H     -4.873933   -6.027285   -0.960875
  H     -6.791508   -4.616564   -1.659120
  H     -6.432112   -5.097386   -3.261564
  H     -6.785034   -6.313867   -1.949980
  C     -5.450394   -7.017792    1.970977
  O     -6.042229   -6.920867    0.673254
  H     -6.564923   -7.763865    0.522771
  H     -4.782055   -7.916130    2.135093
  H     -4.793322   -6.180792    2.074901
  H     -6.219856   -6.898667    2.649508

 Multiplicity           Mult            ....    1
 Number of Electrons    NEL             ....   18
 Basis Dimension        Dim             ....  172

ORBITAL ENERGIES
----------------

  NO   OCC          E(Eh)            E(eV)
   0   2.0000     -19.232883      -523.3534
   1   2.0000     -10.308104      -280.4978
   2   2.0000      -1.123841       -30.5813
   3   2.0000      -0.796695       -21.6792
   4   2.0000      -0.598368       -16.2824
   5   2.0000      -0.554337       -15.0843
   6   2.0000      -0.520941       -14.1755
   7   2.0000      -0.430825       -11.7233
   8   2.0000      -0.375296       -10.2123
   9   0.0000       0.098333         2.6758
  10   0.0000       0.126874         3.4524
  11   0.0000       0.151749         4.1293
  12   0.0000       0.183087         4.9820
  13   0.0000       0.203517         5.5380

MULLIKEN ATOMIC CHARGES
-----------------------
   0 C :    0.010289
   1 O :   -0.000616
   2 H :   -0.010233
   3 H :   -0.003108
   4 H :   -0.000249
   5 H :   -0.006634
   6 C :   -0.160345
   7 O :   -0.477756
   8 H :    0.314376
   9 H :    0.100986
  10 H :    0.120355
  11 H :    0.112936
Sum of atomic charges:   -0.0000000

LOEWDIN ATOMIC CHARGES
----------------------
   0 C :   -0.010275
   1 O :   -0.002802
   2 H :   -0.023601
   3 H :   -0.000908
   4 H :   -0.000096
   5 H :   -0.003673
   6 C :   -0.369690
   7 O :   -0.074417
   8 H :    0.191440
   9 H :    0.104038
  10 H :    0.105215
  11 H :    0.084768

  Mayer bond orders larger than 0.1
B(  6-C ,  7-O ) :   0.9884 B(  6-C ,  9-H ) :   0.9683 B(  6-C , 10-H ) :   0.9775
B(  6-C , 11-H ) :   0.9803 B(  7-O ,  8-H ) :   0.8928

Dispersion correction           -0.000242445
FINAL SINGLE POINT ENERGY      -115.729970867736

DIPOLE MOMENT
-------------
                                X             Y             Z
Electronic contribution:     -0.72653       0.21631      -1.55729
Nuclear contribution   :      0.64674      -0.74506       2.01087
                        -----------------------------------------
Total Dipole Moment    :     -0.07979      -0.52875       0.45358
                        -----------------------------------------
Magnitude (a.u.)       :      0.70120
Magnitude (Debye)      :      1.78230

Rotational constants in cm-1:     4.281973     0.819095     0.794846
Rotational constants in MHz : 128370.310570 24555.854720 23828.875700

                             ****ORCA TERMINATED NORMALLY****
TOTAL RUN TIME: 0 days 0 hours 0 minutes 47 seconds 42 msec
