                         Program Version 4.1.2  - RELEASE  -
|  1> #Run DFT-D3 single point of the dimer
|  2> ! wB97X-D3 def2-TZVP TIGHTSCF CHELPG PMODEL PAL8
|  3>
|  4> %base "3-142_DFT_AB"
|  5>
|  6> %scf
|  7> MaxIter 1000
|  8> end
|  9>
| 10> * xyz 0 1
| 11>   C                      -3.609709            -6.212238            11.084964
| 12>   O                      -4.364734            -5.445713            10.082139
| 13>   H                      -4.900436            -4.779414            10.518448
| 14>   H                      -3.996064            -6.014864            12.063790
| 15>   H                      -3.631724            -7.334633            10.985328
| 16>   H                      -2.523652            -5.863047            11.239573
| 17>   C                      -5.088783            -9.536046            9.311641
| 18>   O                      -5.169613            -10.257828           10.555872
| 19>   H                      -5.059206            -9.633268            11.275877
| 20>   H                      -4.578815            -10.188779           8.621450
| 21>   H                      -6.097560            -9.299392            8.898117
| 22>   H                      -4.579162            -8.571571            9.383033
| 23> *
| 24>
| 25> #Run DFT-D3 single point of the molecule with dimer basis set
| 26> $new_job
| 27> %base "3-142_DFT_A"
| 28> ! wB97X-D3 def2-TZVP TIGHTSCF CHELPG PMODEL
| 29>
| 30> %scf
| 31> MaxIter 1000
| 32> end
| 33>
| 34> * xyz 0 1
| 35>   C                      -3.609709            -6.212238            11.084964
| 36>   O                      -4.364734            -5.445713            10.082139
| 37>   H                      -4.900436            -4.779414            10.518448
| 38>   H                      -3.996064            -6.014864            12.063790
| 39>   H                      -3.631724            -7.334633            10.985328
| 40>   H                      -2.523652            -5.863047            11.239573
| 41>   C                    : -5.088783            -9.536046            9.311641
| 42>   O                    : -5.169613            -10.257828           10.555872
| 43>   H                    : -5.059206            -9.633268            11.275877
| 44>   H                    : -4.578815            -10.188779           8.621450
| 45>   H                    : -6.097560            -9.299392            8.898117
| 46>   H                    : -4.579162            -8.571571            9.383033
| 47> *
| 48>
| 49> #Run DFT-D3 single point of the particle with dimer basis set
| 50> $new_job
| 51> %base "3-142_DFT_B"
| 52> ! wB97X-D3 def2-TZVP TIGHTSCF CHELPG PMODEL
| 53>
| 54> %scf
| 55> MaxIter 1000
| 56> end
| 57>
| 58> * xyz 0 1
| 59>   C                    : -3.609709            -6.212238            11.084964
| 60>   O                    : -4.364734            -5.445713            10.082139
| 61>   H                    : -4.900436            -4.779414            10.518448
| 62>   H                    : -3.996064            -6.014864            12.063790
| 63>   H                    : -3.631724            -7.334633            10.985328
| 64>   H                    : -2.523652            -5.863047            11.239573
| 65>   C                      -5.088783            -9.536046            9.311641
| 66>   O                      -5.169613            -10.257828           10.555872
| 67>   H                      -5.059206            -9.633268            11.275877
| 68>   H                      -4.578815            -10.188779           8.621450
| 69>   H                      -6.097560            -9.299392            8.898117
| 70>   H                      -4.579162            -8.571571            9.383033
| 71> *
| 72>
| 73>                          ****END OF INPUT****
 Total Charge           Charge          ....    0
 Multiplicity           Mult            ....    1
 Number of Electrons    NEL             ....   36
Dispersion correction           -0.001636409
FINAL SINGLE POINT ENERGY      -231.462170179417
Dispersion correction           -0.000298218
FINAL SINGLE POINT ENERGY      -115.725981585211

CARTESIAN COORDINATES (ANGSTROEM)
---------------------------------
  C     -3.609709   -6.212238   11.084964
  O     -4.364734   -5.445713   10.082139
  H     -4.900436   -4.779414   10.518448
  H     -3.996064   -6.014864   12.063790
  H     -3.631724   -7.334633   10.985328
  H     -2.523652   -5.863047   11.239573
  C     -5.088783   -9.536046    9.311641
  O     -5.169613  -10.257828   10.555872
  H     -5.059206   -9.633268   11.275877
  H     -4.578815  -10.188779    8.621450
  H     -6.097560   -9.299392    8.898117
  H     -4.579162   -8.571571    9.383033

 Multiplicity           Mult            ....    1
 Number of Electrons    NEL             ....   18
 Basis Dimension        Dim             ....  172

ORBITAL ENERGIES
----------------

  NO   OCC          E(Eh)            E(eV)
   0   2.0000     -19.230292      -523.2828
   1   2.0000     -10.315889      -280.7096
   2   2.0000      -1.128132       -30.6980
   3   2.0000      -0.796425       -21.6718
   4   2.0000      -0.609655       -16.5895
   5   2.0000      -0.533222       -14.5097
   6   2.0000      -0.522662       -14.2224
   7   2.0000      -0.440181       -11.9779
   8   2.0000      -0.373242       -10.1564
   9   0.0000       0.074172         2.0183
  10   0.0000       0.123529         3.3614
  11   0.0000       0.149175         4.0592
  12   0.0000       0.164654         4.4805
  13   0.0000       0.185787         5.0555

MULLIKEN ATOMIC CHARGES
-----------------------
   0 C :   -0.000905
   1 O :   -0.000013
   2 H :   -0.000038
   3 H :   -0.000003
   4 H :   -0.000251
   5 H :    0.000095
   6 C :   -0.165475
   7 O :   -0.476673
   8 H :    0.313126
   9 H :    0.122455
  10 H :    0.101523
  11 H :    0.106159
Sum of atomic charges:   -0.0000000

LOEWDIN ATOMIC CHARGES
----------------------
   0 C :   -0.004266
   1 O :   -0.000348
   2 H :   -0.000027
   3 H :   -0.000037
   4 H :   -0.004995
   5 H :   -0.000021
   6 C :   -0.362362
   7 O :   -0.094044
   8 H :    0.164415
   9 H :    0.103002
  10 H :    0.100128
  11 H :    0.098555

  Mayer bond orders larger than 0.1
B(  6-C ,  7-O ) :   0.9990 B(  6-C ,  9-H ) :   0.9790 B(  6-C , 10-H ) :   0.9750
B(  6-C , 11-H ) :   0.9721 B(  7-O ,  8-H ) :   0.9047

Dispersion correction           -0.000263026
FINAL SINGLE POINT ENERGY      -115.735313889147

DIPOLE MOMENT
-------------
                                X             Y             Z
Electronic contribution:     -0.06238      -1.01534       1.51670
Nuclear contribution   :      0.18396       1.71692      -1.55835
                        -----------------------------------------
Total Dipole Moment    :      0.12158       0.70158      -0.04165
                        -----------------------------------------
Magnitude (a.u.)       :      0.71325
Magnitude (Debye)      :      1.81295

Rotational constants in cm-1:     4.290613     0.805651     0.776107
Rotational constants in MHz : 128629.354702 24152.795330 23267.108248

                             ****ORCA TERMINATED NORMALLY****
TOTAL RUN TIME: 0 days 0 hours 5 minutes 48 seconds 937 msec
