                         Program Version 4.1.2  - RELEASE  -
|  1> #Run DFT-D3 single point of the dimer
|  2> ! wB97X-D3 def2-TZVP TIGHTSCF CHELPG PMODEL PAL8
|  3>
|  4> %base "14-119_DFT_AB"
|  5>
|  6> %scf
|  7> MaxIter 1000
|  8> end
|  9>
| 10> * xyz 0 1
| 11>   C                      -3.307224            -8.265760            -8.116430
| 12>   O                      -2.245746            -8.230731            -7.104452
| 13>   H                      -2.675553            -8.615451            -6.387941
| 14>   H                      -3.365377            -9.278434            -8.597574
| 15>   H                      -4.354667            -8.109546            -7.761746
| 16>   H                      -3.089242            -7.494867            -8.978860
| 17>   C                      -4.671088            -9.849897            -4.556921
| 18>   O                      -4.402940            -11.153101           -5.187244
| 19>   H                      -5.112127            -11.728131           -5.143515
| 20>   H                      -4.524432            -8.988286            -5.194301
| 21>   H                      -5.672615            -9.720271            -4.047371
| 22>   H                      -3.966060            -9.802081            -3.676224
| 23> *
| 24>
| 25> #Run DFT-D3 single point of the molecule with dimer basis set
| 26> $new_job
| 27> %base "14-119_DFT_A"
| 28> ! wB97X-D3 def2-TZVP TIGHTSCF CHELPG PMODEL
| 29>
| 30> %scf
| 31> MaxIter 1000
| 32> end
| 33>
| 34> * xyz 0 1
| 35>   C                      -3.307224            -8.265760            -8.116430
| 36>   O                      -2.245746            -8.230731            -7.104452
| 37>   H                      -2.675553            -8.615451            -6.387941
| 38>   H                      -3.365377            -9.278434            -8.597574
| 39>   H                      -4.354667            -8.109546            -7.761746
| 40>   H                      -3.089242            -7.494867            -8.978860
| 41>   C                    : -4.671088            -9.849897            -4.556921
| 42>   O                    : -4.402940            -11.153101           -5.187244
| 43>   H                    : -5.112127            -11.728131           -5.143515
| 44>   H                    : -4.524432            -8.988286            -5.194301
| 45>   H                    : -5.672615            -9.720271            -4.047371
| 46>   H                    : -3.966060            -9.802081            -3.676224
| 47> *
| 48>
| 49> #Run DFT-D3 single point of the particle with dimer basis set
| 50> $new_job
| 51> %base "14-119_DFT_B"
| 52> ! wB97X-D3 def2-TZVP TIGHTSCF CHELPG PMODEL
| 53>
| 54> %scf
| 55> MaxIter 1000
| 56> end
| 57>
| 58> * xyz 0 1
| 59>   C                    : -3.307224            -8.265760            -8.116430
| 60>   O                    : -2.245746            -8.230731            -7.104452
| 61>   H                    : -2.675553            -8.615451            -6.387941
| 62>   H                    : -3.365377            -9.278434            -8.597574
| 63>   H                    : -4.354667            -8.109546            -7.761746
| 64>   H                    : -3.089242            -7.494867            -8.978860
| 65>   C                      -4.671088            -9.849897            -4.556921
| 66>   O                      -4.402940            -11.153101           -5.187244
| 67>   H                      -5.112127            -11.728131           -5.143515
| 68>   H                      -4.524432            -8.988286            -5.194301
| 69>   H                      -5.672615            -9.720271            -4.047371
| 70>   H                      -3.966060            -9.802081            -3.676224
| 71> *
| 72>
| 73>                          ****END OF INPUT****
 Total Charge           Charge          ....    0
 Multiplicity           Mult            ....    1
 Number of Electrons    NEL             ....   36
Dispersion correction           -0.001800737
FINAL SINGLE POINT ENERGY      -231.453052832417
Dispersion correction           -0.000281296
FINAL SINGLE POINT ENERGY      -115.725611419114

CARTESIAN COORDINATES (ANGSTROEM)
---------------------------------
  C     -3.307224   -8.265760   -8.116430
  O     -2.245746   -8.230731   -7.104452
  H     -2.675553   -8.615451   -6.387941
  H     -3.365377   -9.278434   -8.597574
  H     -4.354667   -8.109546   -7.761746
  H     -3.089242   -7.494867   -8.978860
  C     -4.671088   -9.849897   -4.556921
  O     -4.402940  -11.153101   -5.187244
  H     -5.112127  -11.728131   -5.143515
  H     -4.524432   -8.988286   -5.194301
  H     -5.672615   -9.720271   -4.047371
  H     -3.966060   -9.802081   -3.676224

 Multiplicity           Mult            ....    1
 Number of Electrons    NEL             ....   18
 Basis Dimension        Dim             ....  172

ORBITAL ENERGIES
----------------

  NO   OCC          E(Eh)            E(eV)
   0   2.0000     -19.226829      -523.1886
   1   2.0000     -10.326262      -280.9919
   2   2.0000      -1.127346       -30.6766
   3   2.0000      -0.800894       -21.7934
   4   2.0000      -0.609529       -16.5861
   5   2.0000      -0.538306       -14.6481
   6   2.0000      -0.510831       -13.9004
   7   2.0000      -0.433066       -11.7843
   8   2.0000      -0.377092       -10.2612
   9   0.0000       0.091424         2.4878
  10   0.0000       0.125026         3.4021
  11   0.0000       0.145745         3.9659
  12   0.0000       0.177743         4.8366
  13   0.0000       0.182716         4.9719

MULLIKEN ATOMIC CHARGES
-----------------------
   0 C :    0.000679
   1 O :   -0.000995
   2 H :    0.003297
   3 H :   -0.000510
   4 H :   -0.000015
   5 H :    0.000097
   6 C :   -0.190745
   7 O :   -0.481609
   8 H :    0.308064
   9 H :    0.125689
  10 H :    0.118689
  11 H :    0.117358
Sum of atomic charges:   -0.0000000

LOEWDIN ATOMIC CHARGES
----------------------
   0 C :   -0.001983
   1 O :   -0.000350
   2 H :   -0.004733
   3 H :   -0.000240
   4 H :   -0.001078
   5 H :   -0.000010
   6 C :   -0.347829
   7 O :   -0.090934
   8 H :    0.131219
   9 H :    0.100261
  10 H :    0.105298
  11 H :    0.110378

  Mayer bond orders larger than 0.1
B(  6-C ,  7-O ) :   0.9999 B(  6-C ,  9-H ) :   0.9643 B(  6-C , 10-H ) :   0.9724
B(  6-C , 11-H ) :   0.9829 B(  7-O ,  8-H ) :   0.9088

Dispersion correction           -0.000304855
FINAL SINGLE POINT ENERGY      -115.726157722115

DIPOLE MOMENT
-------------
                                X             Y             Z
Electronic contribution:      0.37680      -1.56899      -0.99891
Nuclear contribution   :     -0.98478       1.74442       1.31270
                        -----------------------------------------
Total Dipole Moment    :     -0.60799       0.17543       0.31379
                        -----------------------------------------
Magnitude (a.u.)       :      0.70632
Magnitude (Debye)      :      1.79533

Rotational constants in cm-1:     4.392823     0.760897     0.742625
Rotational constants in MHz : 131693.528765 22811.113093 22263.325333

                             ****ORCA TERMINATED NORMALLY****
TOTAL RUN TIME: 0 days 0 hours 1 minutes 7 seconds 39 msec
