                         Program Version 4.1.2  - RELEASE  -
|  1> #Run DFT-D3 single point of the dimer
|  2> ! wB97X-D3 def2-TZVP TIGHTSCF CHELPG PMODEL PAL8
|  3>
|  4> %base "15-204_DFT_AB"
|  5>
|  6> %scf
|  7> MaxIter 1000
|  8> end
|  9>
| 10> * xyz 0 1
| 11>   C                      10.598297            2.837385             -1.801896
| 12>   O                      9.379781             3.385239             -1.482951
| 13>   H                      9.251129             4.139549             -2.120449
| 14>   H                      10.914625            2.204961             -0.999284
| 15>   H                      10.628990            2.281580             -2.793136
| 16>   H                      11.305323            3.649385             -1.894489
| 17>   C                      9.038887             6.526056             -2.664774
| 18>   O                      8.434015             5.502491             -3.416970
| 19>   H                      7.926180             5.920093             -4.109591
| 20>   H                      9.811241             7.077461             -3.162450
| 21>   H                      8.338956             7.297819             -2.298111
| 22>   H                      9.469062             6.170115             -1.708386
| 23> *
| 24>
| 25> #Run DFT-D3 single point of the molecule with dimer basis set
| 26> $new_job
| 27> %base "15-204_DFT_A"
| 28> ! wB97X-D3 def2-TZVP TIGHTSCF CHELPG PMODEL
| 29>
| 30> %scf
| 31> MaxIter 1000
| 32> end
| 33>
| 34> * xyz 0 1
| 35>   C                      10.598297            2.837385             -1.801896
| 36>   O                      9.379781             3.385239             -1.482951
| 37>   H                      9.251129             4.139549             -2.120449
| 38>   H                      10.914625            2.204961             -0.999284
| 39>   H                      10.628990            2.281580             -2.793136
| 40>   H                      11.305323            3.649385             -1.894489
| 41>   C                    : 9.038887             6.526056             -2.664774
| 42>   O                    : 8.434015             5.502491             -3.416970
| 43>   H                    : 7.926180             5.920093             -4.109591
| 44>   H                    : 9.811241             7.077461             -3.162450
| 45>   H                    : 8.338956             7.297819             -2.298111
| 46>   H                    : 9.469062             6.170115             -1.708386
| 47> *
| 48>
| 49> #Run DFT-D3 single point of the particle with dimer basis set
| 50> $new_job
| 51> %base "15-204_DFT_B"
| 52> ! wB97X-D3 def2-TZVP TIGHTSCF CHELPG PMODEL
| 53>
| 54> %scf
| 55> MaxIter 1000
| 56> end
| 57>
| 58> * xyz 0 1
| 59>   C                    : 10.598297            2.837385             -1.801896
| 60>   O                    : 9.379781             3.385239             -1.482951
| 61>   H                    : 9.251129             4.139549             -2.120449
| 62>   H                    : 10.914625            2.204961             -0.999284
| 63>   H                    : 10.628990            2.281580             -2.793136
| 64>   H                    : 11.305323            3.649385             -1.894489
| 65>   C                      9.038887             6.526056             -2.664774
| 66>   O                      8.434015             5.502491             -3.416970
| 67>   H                      7.926180             5.920093             -4.109591
| 68>   H                      9.811241             7.077461             -3.162450
| 69>   H                      8.338956             7.297819             -2.298111
| 70>   H                      9.469062             6.170115             -1.708386
| 71> *
| 72>
| 73>                          ****END OF INPUT****
 Total Charge           Charge          ....    0
 Multiplicity           Mult            ....    1
 Number of Electrons    NEL             ....   36
Dispersion correction           -0.001822550
FINAL SINGLE POINT ENERGY      -231.471667657376
Dispersion correction           -0.000217562
FINAL SINGLE POINT ENERGY      -115.732394394850

CARTESIAN COORDINATES (ANGSTROEM)
---------------------------------
  C     10.598297    2.837385   -1.801896
  O      9.379781    3.385239   -1.482951
  H      9.251129    4.139549   -2.120449
  H     10.914625    2.204961   -0.999284
  H     10.628990    2.281580   -2.793136
  H     11.305323    3.649385   -1.894489
  C      9.038887    6.526056   -2.664774
  O      8.434015    5.502491   -3.416970
  H      7.926180    5.920093   -4.109591
  H      9.811241    7.077461   -3.162450
  H      8.338956    7.297819   -2.298111
  H      9.469062    6.170115   -1.708386

 Multiplicity           Mult            ....    1
 Number of Electrons    NEL             ....   18
 Basis Dimension        Dim             ....  172

ORBITAL ENERGIES
----------------

  NO   OCC          E(Eh)            E(eV)
   0   2.0000     -19.235058      -523.4126
   1   2.0000     -10.312949      -280.6296
   2   2.0000      -1.142040       -31.0765
   3   2.0000      -0.798516       -21.7287
   4   2.0000      -0.617353       -16.7990
   5   2.0000      -0.541376       -14.7316
   6   2.0000      -0.527006       -14.3406
   7   2.0000      -0.432975       -11.7818
   8   2.0000      -0.377076       -10.2608
   9   0.0000       0.097820         2.6618
  10   0.0000       0.124085         3.3765
  11   0.0000       0.150033         4.0826
  12   0.0000       0.186031         5.0621
  13   0.0000       0.204946         5.5769

MULLIKEN ATOMIC CHARGES
-----------------------
   0 C :   -0.002002
   1 O :   -0.000100
   2 H :    0.000530
   3 H :   -0.000027
   4 H :   -0.000269
   5 H :    0.000339
   6 C :   -0.173676
   7 O :   -0.457486
   8 H :    0.310464
   9 H :    0.106039
  10 H :    0.102902
  11 H :    0.113287
Sum of atomic charges:    0.0000000

LOEWDIN ATOMIC CHARGES
----------------------
   0 C :   -0.001714
   1 O :   -0.003318
   2 H :   -0.026577
   3 H :   -0.000019
   4 H :   -0.000119
   5 H :   -0.000329
   6 C :   -0.391920
   7 O :   -0.044933
   8 H :    0.168227
   9 H :    0.089049
  10 H :    0.096823
  11 H :    0.114830

  Mayer bond orders larger than 0.1
B(  6-C ,  7-O ) :   1.0025 B(  6-C ,  9-H ) :   0.9712 B(  6-C , 10-H ) :   0.9761
B(  6-C , 11-H ) :   0.9798 B(  7-O ,  8-H ) :   0.8988

Dispersion correction           -0.000253628
FINAL SINGLE POINT ENERGY      -115.734359488629

DIPOLE MOMENT
-------------
                                X             Y             Z
Electronic contribution:     -0.72245      -1.53449      -1.03810
Nuclear contribution   :      0.62884       2.20646       0.89615
                        -----------------------------------------
Total Dipole Moment    :     -0.09361       0.67198      -0.14195
                        -----------------------------------------
Magnitude (a.u.)       :      0.69316
Magnitude (Debye)      :      1.76187

Rotational constants in cm-1:     4.481910     0.824188     0.795360
Rotational constants in MHz : 134364.276121 24708.540270 23844.285001

                             ****ORCA TERMINATED NORMALLY****
TOTAL RUN TIME: 0 days 0 hours 1 minutes 6 seconds 166 msec
