                         Program Version 4.1.2  - RELEASE  -
|  1> #Run DFT-D3 single point of the dimer
|  2> ! wB97X-D3 def2-TZVP TIGHTSCF CHELPG PMODEL PAL8
|  3>
|  4> %base "19-104_DFT_AB"
|  5>
|  6> %scf
|  7> MaxIter 1000
|  8> end
|  9>
| 10> * xyz 0 1
| 11>   C                      10.695585            5.804026             -9.585432
| 12>   O                      10.520854            4.713502             -8.722632
| 13>   H                      10.299957            5.135141             -7.866166
| 14>   H                      11.089620            5.402777             -10.519049
| 15>   H                      9.779639             6.421214             -9.795723
| 16>   H                      11.544549            6.403537             -9.255654
| 17>   C                      7.298053             3.163485             -7.609605
| 18>   O                      7.927927             2.859628             -8.825408
| 19>   H                      8.530583             3.569372             -9.131966
| 20>   H                      6.640703             3.988560             -7.772951
| 21>   H                      6.696490             2.329643             -7.244909
| 22>   H                      8.113094             3.351254             -6.863576
| 23> *
| 24>
| 25> #Run DFT-D3 single point of the molecule with dimer basis set
| 26> $new_job
| 27> %base "19-104_DFT_A"
| 28> ! wB97X-D3 def2-TZVP TIGHTSCF CHELPG PMODEL
| 29>
| 30> %scf
| 31> MaxIter 1000
| 32> end
| 33>
| 34> * xyz 0 1
| 35>   C                      10.695585            5.804026             -9.585432
| 36>   O                      10.520854            4.713502             -8.722632
| 37>   H                      10.299957            5.135141             -7.866166
| 38>   H                      11.089620            5.402777             -10.519049
| 39>   H                      9.779639             6.421214             -9.795723
| 40>   H                      11.544549            6.403537             -9.255654
| 41>   C                    : 7.298053             3.163485             -7.609605
| 42>   O                    : 7.927927             2.859628             -8.825408
| 43>   H                    : 8.530583             3.569372             -9.131966
| 44>   H                    : 6.640703             3.988560             -7.772951
| 45>   H                    : 6.696490             2.329643             -7.244909
| 46>   H                    : 8.113094             3.351254             -6.863576
| 47> *
| 48>
| 49> #Run DFT-D3 single point of the particle with dimer basis set
| 50> $new_job
| 51> %base "19-104_DFT_B"
| 52> ! wB97X-D3 def2-TZVP TIGHTSCF CHELPG PMODEL
| 53>
| 54> %scf
| 55> MaxIter 1000
| 56> end
| 57>
| 58> * xyz 0 1
| 59>   C                    : 10.695585            5.804026             -9.585432
| 60>   O                    : 10.520854            4.713502             -8.722632
| 61>   H                    : 10.299957            5.135141             -7.866166
| 62>   H                    : 11.089620            5.402777             -10.519049
| 63>   H                    : 9.779639             6.421214             -9.795723
| 64>   H                    : 11.544549            6.403537             -9.255654
| 65>   C                      7.298053             3.163485             -7.609605
| 66>   O                      7.927927             2.859628             -8.825408
| 67>   H                      8.530583             3.569372             -9.131966
| 68>   H                      6.640703             3.988560             -7.772951
| 69>   H                      6.696490             2.329643             -7.244909
| 70>   H                      8.113094             3.351254             -6.863576
| 71> *
| 72>
| 73>                          ****END OF INPUT****
 Total Charge           Charge          ....    0
 Multiplicity           Mult            ....    1
 Number of Electrons    NEL             ....   36
Dispersion correction           -0.001686489
FINAL SINGLE POINT ENERGY      -231.471754823066
Dispersion correction           -0.000234765
FINAL SINGLE POINT ENERGY      -115.733777261311

CARTESIAN COORDINATES (ANGSTROEM)
---------------------------------
  C     10.695585    5.804026   -9.585432
  O     10.520854    4.713502   -8.722632
  H     10.299957    5.135141   -7.866166
  H     11.089620    5.402777  -10.519049
  H      9.779639    6.421214   -9.795723
  H     11.544549    6.403537   -9.255654
  C      7.298053    3.163485   -7.609605
  O      7.927927    2.859628   -8.825408
  H      8.530583    3.569372   -9.131966
  H      6.640703    3.988560   -7.772951
  H      6.696490    2.329643   -7.244909
  H      8.113094    3.351254   -6.863576

 Multiplicity           Mult            ....    1
 Number of Electrons    NEL             ....   18
 Basis Dimension        Dim             ....  172

ORBITAL ENERGIES
----------------

  NO   OCC          E(Eh)            E(eV)
   0   2.0000     -19.225560      -523.1541
   1   2.0000     -10.311735      -280.5966
   2   2.0000      -1.131164       -30.7805
   3   2.0000      -0.793949       -21.6045
   4   2.0000      -0.604158       -16.4400
   5   2.0000      -0.550944       -14.9920
   6   2.0000      -0.532430       -14.4882
   7   2.0000      -0.419682       -11.4201
   8   2.0000      -0.369928       -10.0662
   9   0.0000       0.067606         1.8397
  10   0.0000       0.129526         3.5246
  11   0.0000       0.149979         4.0811
  12   0.0000       0.167510         4.5582
  13   0.0000       0.188692         5.1346

MULLIKEN ATOMIC CHARGES
-----------------------
   0 C :   -0.001785
   1 O :   -0.002455
   2 H :    0.000012
   3 H :    0.000130
   4 H :   -0.000160
   5 H :   -0.000014
   6 C :   -0.149725
   7 O :   -0.488257
   8 H :    0.318359
   9 H :    0.105110
  10 H :    0.121383
  11 H :    0.097403
Sum of atomic charges:    0.0000000

LOEWDIN ATOMIC CHARGES
----------------------
   0 C :   -0.002522
   1 O :   -0.007602
   2 H :   -0.001248
   3 H :   -0.000064
   4 H :   -0.000252
   5 H :   -0.000059
   6 C :   -0.387505
   7 O :   -0.080973
   8 H :    0.180940
   9 H :    0.089998
  10 H :    0.108314
  11 H :    0.100974

  Mayer bond orders larger than 0.1
B(  6-C ,  7-O ) :   0.9844 B(  6-C ,  9-H ) :   0.9816 B(  6-C , 10-H ) :   0.9689
B(  6-C , 11-H ) :   0.9823 B(  7-O ,  8-H ) :   0.8963

Dispersion correction           -0.000229534
FINAL SINGLE POINT ENERGY      -115.733014080011

DIPOLE MOMENT
-------------
                                X             Y             Z
Electronic contribution:      0.63927      -0.48583      -1.50559
Nuclear contribution   :     -0.52915       1.04652       1.79785
                        -----------------------------------------
Total Dipole Moment    :      0.11012       0.56069       0.29227
                        -----------------------------------------
Magnitude (a.u.)       :      0.64181
Magnitude (Debye)      :      1.63134

Rotational constants in cm-1:     4.259711     0.839412     0.816697
Rotational constants in MHz : 127702.922953 25164.938806 24483.964768

                             ****ORCA TERMINATED NORMALLY****
TOTAL RUN TIME: 0 days 0 hours 0 minutes 52 seconds 506 msec
