                         Program Version 4.1.2  - RELEASE  -
|  1> #Run DFT-D3 single point of the dimer
|  2> ! wB97X-D3 def2-TZVP TIGHTSCF CHELPG PMODEL PAL8
|  3>
|  4> %base "22-128_DFT_AB"
|  5>
|  6> %scf
|  7> MaxIter 1000
|  8> end
|  9>
| 10> * xyz 0 1
| 11>   C                      -0.749633            2.416253             -3.313901
| 12>   O                      -0.861180            1.452458             -2.250456
| 13>   H                      0.018248             1.215378             -2.084135
| 14>   H                      -1.723585            2.657808             -3.810069
| 15>   H                      -0.325219            3.272619             -2.879507
| 16>   H                      -0.054227            2.091398             -4.053934
| 17>   C                      1.036957             3.574297             2.264222
| 18>   O                      0.901714             3.131418             0.918129
| 19>   H                      0.500410             3.835096             0.466656
| 20>   H                      1.735530             4.431400             2.282061
| 21>   H                      0.118558             3.792975             2.761185
| 22>   H                      1.387067             2.884953             2.982155
| 23> *
| 24>
| 25> #Run DFT-D3 single point of the molecule with dimer basis set
| 26> $new_job
| 27> %base "22-128_DFT_A"
| 28> ! wB97X-D3 def2-TZVP TIGHTSCF CHELPG PMODEL
| 29>
| 30> %scf
| 31> MaxIter 1000
| 32> end
| 33>
| 34> * xyz 0 1
| 35>   C                      -0.749633            2.416253             -3.313901
| 36>   O                      -0.861180            1.452458             -2.250456
| 37>   H                      0.018248             1.215378             -2.084135
| 38>   H                      -1.723585            2.657808             -3.810069
| 39>   H                      -0.325219            3.272619             -2.879507
| 40>   H                      -0.054227            2.091398             -4.053934
| 41>   C                    : 1.036957             3.574297             2.264222
| 42>   O                    : 0.901714             3.131418             0.918129
| 43>   H                    : 0.500410             3.835096             0.466656
| 44>   H                    : 1.735530             4.431400             2.282061
| 45>   H                    : 0.118558             3.792975             2.761185
| 46>   H                    : 1.387067             2.884953             2.982155
| 47> *
| 48>
| 49> #Run DFT-D3 single point of the particle with dimer basis set
| 50> $new_job
| 51> %base "22-128_DFT_B"
| 52> ! wB97X-D3 def2-TZVP TIGHTSCF CHELPG PMODEL
| 53>
| 54> %scf
| 55> MaxIter 1000
| 56> end
| 57>
| 58> * xyz 0 1
| 59>   C                    : -0.749633            2.416253             -3.313901
| 60>   O                    : -0.861180            1.452458             -2.250456
| 61>   H                    : 0.018248             1.215378             -2.084135
| 62>   H                    : -1.723585            2.657808             -3.810069
| 63>   H                    : -0.325219            3.272619             -2.879507
| 64>   H                    : -0.054227            2.091398             -4.053934
| 65>   C                      1.036957             3.574297             2.264222
| 66>   O                      0.901714             3.131418             0.918129
| 67>   H                      0.500410             3.835096             0.466656
| 68>   H                      1.735530             4.431400             2.282061
| 69>   H                      0.118558             3.792975             2.761185
| 70>   H                      1.387067             2.884953             2.982155
| 71> *
| 72>
| 73>                          ****END OF INPUT****
 Total Charge           Charge          ....    0
 Multiplicity           Mult            ....    1
 Number of Electrons    NEL             ....   36
Dispersion correction           -0.000914705
FINAL SINGLE POINT ENERGY      -231.458817755960
Dispersion correction           -0.000216039
FINAL SINGLE POINT ENERGY      -115.730263854322

CARTESIAN COORDINATES (ANGSTROEM)
---------------------------------
  C     -0.749633    2.416253   -3.313901
  O     -0.861180    1.452458   -2.250456
  H      0.018248    1.215378   -2.084135
  H     -1.723585    2.657808   -3.810069
  H     -0.325219    3.272619   -2.879507
  H     -0.054227    2.091398   -4.053934
  C      1.036957    3.574297    2.264222
  O      0.901714    3.131418    0.918129
  H      0.500410    3.835096    0.466656
  H      1.735530    4.431400    2.282061
  H      0.118558    3.792975    2.761185
  H      1.387067    2.884953    2.982155

 Multiplicity           Mult            ....    1
 Number of Electrons    NEL             ....   18
 Basis Dimension        Dim             ....  172

ORBITAL ENERGIES
----------------

  NO   OCC          E(Eh)            E(eV)
   0   2.0000     -19.229752      -523.2682
   1   2.0000     -10.308935      -280.5204
   2   2.0000      -1.142229       -31.0816
   3   2.0000      -0.806485       -21.9456
   4   2.0000      -0.611523       -16.6404
   5   2.0000      -0.552289       -15.0285
   6   2.0000      -0.528942       -14.3932
   7   2.0000      -0.430715       -11.7204
   8   2.0000      -0.378184       -10.2909
   9   0.0000       0.087226         2.3735
  10   0.0000       0.123784         3.3683
  11   0.0000       0.150419         4.0931
  12   0.0000       0.177340         4.8257
  13   0.0000       0.199509         5.4289

MULLIKEN ATOMIC CHARGES
-----------------------
   0 C :    0.000057
   1 O :   -0.000160
   2 H :   -0.000914
   3 H :    0.000012
   4 H :   -0.000208
   5 H :    0.000002
   6 C :   -0.174698
   7 O :   -0.466531
   8 H :    0.313446
   9 H :    0.101964
  10 H :    0.102905
  11 H :    0.124125
Sum of atomic charges:    0.0000000

LOEWDIN ATOMIC CHARGES
----------------------
   0 C :   -0.000161
   1 O :   -0.000251
   2 H :   -0.000758
   3 H :   -0.000001
   4 H :   -0.000108
   5 H :   -0.000002
   6 C :   -0.377860
   7 O :   -0.064823
   8 H :    0.150032
   9 H :    0.100293
  10 H :    0.091760
  11 H :    0.101879

  Mayer bond orders larger than 0.1
B(  6-C ,  7-O ) :   0.9989 B(  6-C ,  9-H ) :   0.9860 B(  6-C , 10-H ) :   0.9737
B(  6-C , 11-H ) :   0.9721 B(  7-O ,  8-H ) :   0.9049

Dispersion correction           -0.000239355
FINAL SINGLE POINT ENERGY      -115.727671704650

DIPOLE MOMENT
-------------
                                X             Y             Z
Electronic contribution:     -0.13079      -0.75500      -1.76145
Nuclear contribution   :     -0.08058       1.35709       2.04934
                        -----------------------------------------
Total Dipole Moment    :     -0.21137       0.60208       0.28790
                        -----------------------------------------
Magnitude (a.u.)       :      0.70005
Magnitude (Debye)      :      1.77938

Rotational constants in cm-1:     4.617745     0.812448     0.795936
Rotational constants in MHz : 138436.525357 24356.585800 23861.575336

                             ****ORCA TERMINATED NORMALLY****
TOTAL RUN TIME: 0 days 0 hours 0 minutes 54 seconds 488 msec
