                         Program Version 4.1.2  - RELEASE  -
|  1> #Run DFT-D3 single point of the dimer
|  2> ! wB97X-D3 def2-TZVP TIGHTSCF CHELPG PMODEL PAL8
|  3>
|  4> %base "20-190_DFT_AB"
|  5>
|  6> %scf
|  7> MaxIter 1000
|  8> end
|  9>
| 10> * xyz 0 1
| 11>   C                      -3.572831            -2.518480            -3.619282
| 12>   O                      -2.201665            -2.609266            -3.374965
| 13>   H                      -1.933915            -3.521238            -3.503153
| 14>   H                      -4.055319            -3.201278            -2.917605
| 15>   H                      -3.926328            -1.556956            -3.334496
| 16>   H                      -3.891178            -2.573715            -4.624249
| 17>   C                      -3.331310            -6.055816            -3.086817
| 18>   O                      -2.105490            -5.613339            -2.688533
| 19>   H                      -1.456967            -6.305582            -2.864196
| 20>   H                      -4.237121            -5.471085            -2.682077
| 21>   H                      -3.476573            -6.009731            -4.181249
| 22>   H                      -3.507395            -7.181582            -2.902595
| 23> *
| 24>
| 25> #Run DFT-D3 single point of the molecule with dimer basis set
| 26> $new_job
| 27> %base "20-190_DFT_A"
| 28> ! wB97X-D3 def2-TZVP TIGHTSCF CHELPG PMODEL
| 29>
| 30> %scf
| 31> MaxIter 1000
| 32> end
| 33>
| 34> * xyz 0 1
| 35>   C                      -3.572831            -2.518480            -3.619282
| 36>   O                      -2.201665            -2.609266            -3.374965
| 37>   H                      -1.933915            -3.521238            -3.503153
| 38>   H                      -4.055319            -3.201278            -2.917605
| 39>   H                      -3.926328            -1.556956            -3.334496
| 40>   H                      -3.891178            -2.573715            -4.624249
| 41>   C                    : -3.331310            -6.055816            -3.086817
| 42>   O                    : -2.105490            -5.613339            -2.688533
| 43>   H                    : -1.456967            -6.305582            -2.864196
| 44>   H                    : -4.237121            -5.471085            -2.682077
| 45>   H                    : -3.476573            -6.009731            -4.181249
| 46>   H                    : -3.507395            -7.181582            -2.902595
| 47> *
| 48>
| 49> #Run DFT-D3 single point of the particle with dimer basis set
| 50> $new_job
| 51> %base "20-190_DFT_B"
| 52> ! wB97X-D3 def2-TZVP TIGHTSCF CHELPG PMODEL
| 53>
| 54> %scf
| 55> MaxIter 1000
| 56> end
| 57>
| 58> * xyz 0 1
| 59>   C                    : -3.572831            -2.518480            -3.619282
| 60>   O                    : -2.201665            -2.609266            -3.374965
| 61>   H                    : -1.933915            -3.521238            -3.503153
| 62>   H                    : -4.055319            -3.201278            -2.917605
| 63>   H                    : -3.926328            -1.556956            -3.334496
| 64>   H                    : -3.891178            -2.573715            -4.624249
| 65>   C                      -3.331310            -6.055816            -3.086817
| 66>   O                      -2.105490            -5.613339            -2.688533
| 67>   H                      -1.456967            -6.305582            -2.864196
| 68>   H                      -4.237121            -5.471085            -2.682077
| 69>   H                      -3.476573            -6.009731            -4.181249
| 70>   H                      -3.507395            -7.181582            -2.902595
| 71> *
| 72>
| 73>                          ****END OF INPUT****
 Total Charge           Charge          ....    0
 Multiplicity           Mult            ....    1
 Number of Electrons    NEL             ....   36
Dispersion correction           -0.002191966
FINAL SINGLE POINT ENERGY      -231.465560906074
Dispersion correction           -0.000227100
FINAL SINGLE POINT ENERGY      -115.731781723528

CARTESIAN COORDINATES (ANGSTROEM)
---------------------------------
  C     -3.572831   -2.518480   -3.619282
  O     -2.201665   -2.609266   -3.374965
  H     -1.933915   -3.521238   -3.503153
  H     -4.055319   -3.201278   -2.917605
  H     -3.926328   -1.556956   -3.334496
  H     -3.891178   -2.573715   -4.624249
  C     -3.331310   -6.055816   -3.086817
  O     -2.105490   -5.613339   -2.688533
  H     -1.456967   -6.305582   -2.864196
  H     -4.237121   -5.471085   -2.682077
  H     -3.476573   -6.009731   -4.181249
  H     -3.507395   -7.181582   -2.902595

 Multiplicity           Mult            ....    1
 Number of Electrons    NEL             ....   18
 Basis Dimension        Dim             ....  172

ORBITAL ENERGIES
----------------

  NO   OCC          E(Eh)            E(eV)
   0   2.0000     -19.237858      -523.4887
   1   2.0000     -10.322829      -280.8985
   2   2.0000      -1.156360       -31.4662
   3   2.0000      -0.786939       -21.4137
   4   2.0000      -0.625254       -17.0140
   5   2.0000      -0.537083       -14.6148
   6   2.0000      -0.532834       -14.4992
   7   2.0000      -0.429729       -11.6935
   8   2.0000      -0.368405       -10.0248
   9   0.0000       0.094721         2.5775
  10   0.0000       0.122169         3.3244
  11   0.0000       0.149081         4.0567
  12   0.0000       0.183053         4.9811
  13   0.0000       0.190156         5.1744

MULLIKEN ATOMIC CHARGES
-----------------------
   0 C :    0.002675
   1 O :   -0.000535
   2 H :   -0.008859
   3 H :    0.001320
   4 H :    0.000173
   5 H :   -0.000422
   6 C :   -0.181211
   7 O :   -0.447727
   8 H :    0.322561
   9 H :    0.114631
  10 H :    0.099366
  11 H :    0.098027
Sum of atomic charges:   -0.0000000

LOEWDIN ATOMIC CHARGES
----------------------
   0 C :   -0.004928
   1 O :   -0.002750
   2 H :   -0.021894
   3 H :   -0.005027
   4 H :   -0.000009
   5 H :   -0.000180
   6 C :   -0.444722
   7 O :   -0.014542
   8 H :    0.181157
   9 H :    0.120322
  10 H :    0.091332
  11 H :    0.101240

  Mayer bond orders larger than 0.1
B(  6-C ,  7-O ) :   1.0089 B(  6-C ,  9-H ) :   0.9698 B(  6-C , 10-H ) :   0.9759
B(  6-C , 11-H ) :   0.9727 B(  7-O ,  8-H ) :   0.8895

Dispersion correction           -0.000250373
FINAL SINGLE POINT ENERGY      -115.728710129166

DIPOLE MOMENT
-------------
                                X             Y             Z
Electronic contribution:      1.75075       0.83729       0.71905
Nuclear contribution   :     -1.75737      -1.43624      -0.97518
                        -----------------------------------------
Total Dipole Moment    :     -0.00662      -0.59895      -0.25614
                        -----------------------------------------
Magnitude (a.u.)       :      0.65145
Magnitude (Debye)      :      1.65587

Rotational constants in cm-1:     4.212836     0.863620     0.818887
Rotational constants in MHz : 126297.641569 25890.671168 24549.605238

                             ****ORCA TERMINATED NORMALLY****
TOTAL RUN TIME: 0 days 0 hours 1 minutes 10 seconds 534 msec
