                         Program Version 4.1.2  - RELEASE  -
|  1> #Run DFT-D3 single point of the dimer
|  2> ! wB97X-D3 def2-TZVP TIGHTSCF CHELPG PMODEL PAL8
|  3>
|  4> %base "10-139_DFT_AB"
|  5>
|  6> %scf
|  7> MaxIter 1000
|  8> end
|  9>
| 10> * xyz 0 1
| 11>   C                      -3.729851            3.038293             4.185323
| 12>   O                      -3.523052            2.471416             5.433180
| 13>   H                      -4.135422            2.762021             6.113348
| 14>   H                      -4.740345            3.461552             4.070275
| 15>   H                      -3.093136            3.884884             4.062776
| 16>   H                      -3.567683            2.320354             3.352861
| 17>   C                      -3.238889            4.918494             7.898113
| 18>   O                      -4.165077            3.808282             7.721132
| 19>   H                      -4.247115            3.385438             8.589834
| 20>   H                      -3.174638            5.307419             8.953087
| 21>   H                      -2.318098            4.611922             7.595619
| 22>   H                      -3.522041            5.704634             7.272271
| 23> *
| 24>
| 25> #Run DFT-D3 single point of the molecule with dimer basis set
| 26> $new_job
| 27> %base "10-139_DFT_A"
| 28> ! wB97X-D3 def2-TZVP TIGHTSCF CHELPG PMODEL
| 29>
| 30> %scf
| 31> MaxIter 1000
| 32> end
| 33>
| 34> * xyz 0 1
| 35>   C                      -3.729851            3.038293             4.185323
| 36>   O                      -3.523052            2.471416             5.433180
| 37>   H                      -4.135422            2.762021             6.113348
| 38>   H                      -4.740345            3.461552             4.070275
| 39>   H                      -3.093136            3.884884             4.062776
| 40>   H                      -3.567683            2.320354             3.352861
| 41>   C                    : -3.238889            4.918494             7.898113
| 42>   O                    : -4.165077            3.808282             7.721132
| 43>   H                    : -4.247115            3.385438             8.589834
| 44>   H                    : -3.174638            5.307419             8.953087
| 45>   H                    : -2.318098            4.611922             7.595619
| 46>   H                    : -3.522041            5.704634             7.272271
| 47> *
| 48>
| 49> #Run DFT-D3 single point of the particle with dimer basis set
| 50> $new_job
| 51> %base "10-139_DFT_B"
| 52> ! wB97X-D3 def2-TZVP TIGHTSCF CHELPG PMODEL
| 53>
| 54> %scf
| 55> MaxIter 1000
| 56> end
| 57>
| 58> * xyz 0 1
| 59>   C                    : -3.729851            3.038293             4.185323
| 60>   O                    : -3.523052            2.471416             5.433180
| 61>   H                    : -4.135422            2.762021             6.113348
| 62>   H                    : -4.740345            3.461552             4.070275
| 63>   H                    : -3.093136            3.884884             4.062776
| 64>   H                    : -3.567683            2.320354             3.352861
| 65>   C                      -3.238889            4.918494             7.898113
| 66>   O                      -4.165077            3.808282             7.721132
| 67>   H                      -4.247115            3.385438             8.589834
| 68>   H                      -3.174638            5.307419             8.953087
| 69>   H                      -2.318098            4.611922             7.595619
| 70>   H                      -3.522041            5.704634             7.272271
| 71> *
| 72>
| 73>                          ****END OF INPUT****
 Total Charge           Charge          ....    0
 Multiplicity           Mult            ....    1
 Number of Electrons    NEL             ....   36
Dispersion correction           -0.001861407
FINAL SINGLE POINT ENERGY      -231.469440412958
Dispersion correction           -0.000246681
FINAL SINGLE POINT ENERGY      -115.733932498019

CARTESIAN COORDINATES (ANGSTROEM)
---------------------------------
  C     -3.729851    3.038293    4.185323
  O     -3.523052    2.471416    5.433180
  H     -4.135422    2.762021    6.113348
  H     -4.740345    3.461552    4.070275
  H     -3.093136    3.884884    4.062776
  H     -3.567683    2.320354    3.352861
  C     -3.238889    4.918494    7.898113
  O     -4.165077    3.808282    7.721132
  H     -4.247115    3.385438    8.589834
  H     -3.174638    5.307419    8.953087
  H     -2.318098    4.611922    7.595619
  H     -3.522041    5.704634    7.272271

 Multiplicity           Mult            ....    1
 Number of Electrons    NEL             ....   18
 Basis Dimension        Dim             ....  172

ORBITAL ENERGIES
----------------

  NO   OCC          E(Eh)            E(eV)
   0   2.0000     -19.229874      -523.2715
   1   2.0000     -10.305595      -280.4295
   2   2.0000      -1.121823       -30.5264
   3   2.0000      -0.805138       -21.9089
   4   2.0000      -0.600002       -16.3269
   5   2.0000      -0.546824       -14.8798
   6   2.0000      -0.524422       -14.2703
   7   2.0000      -0.440162       -11.9774
   8   2.0000      -0.375424       -10.2158
   9   0.0000       0.096220         2.6183
  10   0.0000       0.123162         3.3514
  11   0.0000       0.151577         4.1246
  12   0.0000       0.188220         5.1217
  13   0.0000       0.196481         5.3465

MULLIKEN ATOMIC CHARGES
-----------------------
   0 C :    0.000857
   1 O :   -0.000263
   2 H :   -0.008974
   3 H :   -0.000564
   4 H :   -0.000063
   5 H :   -0.000052
   6 C :   -0.170388
   7 O :   -0.478564
   8 H :    0.313712
   9 H :    0.106227
  10 H :    0.116125
  11 H :    0.121948
Sum of atomic charges:    0.0000000

LOEWDIN ATOMIC CHARGES
----------------------
   0 C :   -0.001546
   1 O :   -0.010033
   2 H :   -0.044809
   3 H :   -0.000148
   4 H :   -0.000078
   5 H :   -0.000032
   6 C :   -0.337272
   7 O :   -0.062856
   8 H :    0.171588
   9 H :    0.107569
  10 H :    0.081159
  11 H :    0.096457

  Mayer bond orders larger than 0.1
B(  6-C ,  7-O ) :   0.9844 B(  6-C ,  9-H ) :   0.9739 B(  6-C , 10-H ) :   0.9826
B(  6-C , 11-H ) :   0.9793 B(  7-O ,  8-H ) :   0.9008

Dispersion correction           -0.000248258
FINAL SINGLE POINT ENERGY      -115.728961439977

DIPOLE MOMENT
-------------
                                X             Y             Z
Electronic contribution:     -1.12587      -1.30898      -0.38806
Nuclear contribution   :      1.47752       1.52735       1.00109
                        -----------------------------------------
Total Dipole Moment    :      0.35165       0.21837       0.61303
                        -----------------------------------------
Magnitude (a.u.)       :      0.73970
Magnitude (Debye)      :      1.88016

Rotational constants in cm-1:     4.447383     0.803415     0.767406
Rotational constants in MHz : 133329.197774 24085.770315 23006.261859

                             ****ORCA TERMINATED NORMALLY****
TOTAL RUN TIME: 0 days 0 hours 1 minutes 5 seconds 921 msec
