                         Program Version 4.1.2  - RELEASE  -
|  1> #Run DFT-D3 single point of the dimer
|  2> ! wB97X-D3 def2-TZVP TIGHTSCF CHELPG PMODEL PAL8
|  3>
|  4> %base "13-52_DFT_AB"
|  5>
|  6> %scf
|  7> MaxIter 1000
|  8> end
|  9>
| 10> * xyz 0 1
| 11>   C                      -2.615448            -10.755304           2.628873
| 12>   O                      -2.908532            -9.997534            1.453146
| 13>   H                      -3.393054            -10.558160           0.797230
| 14>   H                      -3.465573            -11.407798           2.994486
| 15>   H                      -1.643496            -11.228046           2.392343
| 16>   H                      -2.479222            -10.048655           3.452952
| 17>   C                      -0.928917            -10.983566           -2.640763
| 18>   O                      -0.381111            -10.784562           -1.350864
| 19>   H                      -0.633451            -9.900913            -1.077589
| 20>   H                      -2.030045            -11.105637           -2.622247
| 21>   H                      -0.622373            -10.169376           -3.405240
| 22>   H                      -0.643391            -12.010807           -2.977018
| 23> *
| 24>
| 25> #Run DFT-D3 single point of the molecule with dimer basis set
| 26> $new_job
| 27> %base "13-52_DFT_A"
| 28> ! wB97X-D3 def2-TZVP TIGHTSCF CHELPG PMODEL
| 29>
| 30> %scf
| 31> MaxIter 1000
| 32> end
| 33>
| 34> * xyz 0 1
| 35>   C                      -2.615448            -10.755304           2.628873
| 36>   O                      -2.908532            -9.997534            1.453146
| 37>   H                      -3.393054            -10.558160           0.797230
| 38>   H                      -3.465573            -11.407798           2.994486
| 39>   H                      -1.643496            -11.228046           2.392343
| 40>   H                      -2.479222            -10.048655           3.452952
| 41>   C                    : -0.928917            -10.983566           -2.640763
| 42>   O                    : -0.381111            -10.784562           -1.350864
| 43>   H                    : -0.633451            -9.900913            -1.077589
| 44>   H                    : -2.030045            -11.105637           -2.622247
| 45>   H                    : -0.622373            -10.169376           -3.405240
| 46>   H                    : -0.643391            -12.010807           -2.977018
| 47> *
| 48>
| 49> #Run DFT-D3 single point of the particle with dimer basis set
| 50> $new_job
| 51> %base "13-52_DFT_B"
| 52> ! wB97X-D3 def2-TZVP TIGHTSCF CHELPG PMODEL
| 53>
| 54> %scf
| 55> MaxIter 1000
| 56> end
| 57>
| 58> * xyz 0 1
| 59>   C                    : -2.615448            -10.755304           2.628873
| 60>   O                    : -2.908532            -9.997534            1.453146
| 61>   H                    : -3.393054            -10.558160           0.797230
| 62>   H                    : -3.465573            -11.407798           2.994486
| 63>   H                    : -1.643496            -11.228046           2.392343
| 64>   H                    : -2.479222            -10.048655           3.452952
| 65>   C                      -0.928917            -10.983566           -2.640763
| 66>   O                      -0.381111            -10.784562           -1.350864
| 67>   H                      -0.633451            -9.900913            -1.077589
| 68>   H                      -2.030045            -11.105637           -2.622247
| 69>   H                      -0.622373            -10.169376           -3.405240
| 70>   H                      -0.643391            -12.010807           -2.977018
| 71> *
| 72>
| 73>                          ****END OF INPUT****
 Total Charge           Charge          ....    0
 Multiplicity           Mult            ....    1
 Number of Electrons    NEL             ....   36
Dispersion correction           -0.001146824
FINAL SINGLE POINT ENERGY      -231.465334801808
Dispersion correction           -0.000258058
FINAL SINGLE POINT ENERGY      -115.730713388000

CARTESIAN COORDINATES (ANGSTROEM)
---------------------------------
  C     -2.615448  -10.755304    2.628873
  O     -2.908532   -9.997534    1.453146
  H     -3.393054  -10.558160    0.797230
  H     -3.465573  -11.407798    2.994486
  H     -1.643496  -11.228046    2.392343
  H     -2.479222  -10.048655    3.452952
  C     -0.928917  -10.983566   -2.640763
  O     -0.381111  -10.784562   -1.350864
  H     -0.633451   -9.900913   -1.077589
  H     -2.030045  -11.105637   -2.622247
  H     -0.622373  -10.169376   -3.405240
  H     -0.643391  -12.010807   -2.977018

 Multiplicity           Mult            ....    1
 Number of Electrons    NEL             ....   18
 Basis Dimension        Dim             ....  172

ORBITAL ENERGIES
----------------

  NO   OCC          E(Eh)            E(eV)
   0   2.0000     -19.234270      -523.3911
   1   2.0000     -10.324359      -280.9401
   2   2.0000      -1.138984       -30.9933
   3   2.0000      -0.789334       -21.4789
   4   2.0000      -0.608215       -16.5504
   5   2.0000      -0.541712       -14.7407
   6   2.0000      -0.520387       -14.1604
   7   2.0000      -0.432912       -11.7801
   8   2.0000      -0.375195       -10.2096
   9   0.0000       0.084801         2.3076
  10   0.0000       0.118930         3.2362
  11   0.0000       0.148913         4.0521
  12   0.0000       0.168232         4.5778
  13   0.0000       0.194745         5.2993

MULLIKEN ATOMIC CHARGES
-----------------------
   0 C :    0.000483
   1 O :   -0.000508
   2 H :   -0.000896
   3 H :   -0.000002
   4 H :   -0.001165
   5 H :   -0.000009
   6 C :   -0.173804
   7 O :   -0.465005
   8 H :    0.315992
   9 H :    0.104653
  10 H :    0.104138
  11 H :    0.116124
Sum of atomic charges:   -0.0000000

LOEWDIN ATOMIC CHARGES
----------------------
   0 C :   -0.000418
   1 O :   -0.000663
   2 H :   -0.000707
   3 H :   -0.000002
   4 H :   -0.000454
   5 H :   -0.000004
   6 C :   -0.403514
   7 O :   -0.075101
   8 H :    0.168033
   9 H :    0.094801
  10 H :    0.105268
  11 H :    0.112761

  Mayer bond orders larger than 0.1
B(  6-C ,  7-O ) :   1.0057 B(  6-C ,  9-H ) :   0.9700 B(  6-C , 10-H ) :   0.9699
B(  6-C , 11-H ) :   0.9742 B(  7-O ,  8-H ) :   0.8985

Dispersion correction           -0.000261866
FINAL SINGLE POINT ENERGY      -115.732638688495

DIPOLE MOMENT
-------------
                                X             Y             Z
Electronic contribution:      0.82169       0.21154       1.69752
Nuclear contribution   :     -1.19748       0.24130      -2.01321
                        -----------------------------------------
Total Dipole Moment    :     -0.37579       0.45284      -0.31569
                        -----------------------------------------
Magnitude (a.u.)       :      0.66779
Magnitude (Debye)      :      1.69740

Rotational constants in cm-1:     4.103073     0.822863     0.791384
Rotational constants in MHz : 123007.020971 24668.823354 23725.108702

                             ****ORCA TERMINATED NORMALLY****
TOTAL RUN TIME: 0 days 0 hours 1 minutes 8 seconds 639 msec
