                         Program Version 4.1.2  - RELEASE  -
|  1> #Run DFT-D3 single point of the dimer
|  2> ! wB97X-D3 def2-TZVP TIGHTSCF CHELPG PMODEL PAL8
|  3>
|  4> %base "22-187_DFT_AB"
|  5>
|  6> %scf
|  7> MaxIter 1000
|  8> end
|  9>
| 10> * xyz 0 1
| 11>   C                      1.758582             -1.437780            -2.185095
| 12>   O                      1.633150             -0.040761            -2.412999
| 13>   H                      1.922239             0.409102             -1.638238
| 14>   H                      2.724347             -1.540067            -1.692715
| 15>   H                      0.986000             -1.690466            -1.515458
| 16>   H                      1.769196             -1.988602            -3.101469
| 17>   C                      2.296630             -0.274171            1.603037
| 18>   O                      1.996984             0.535547             0.414808
| 19>   H                      1.250259             1.158687             0.614377
| 20>   H                      3.130297             -1.028135            1.464270
| 21>   H                      2.630375             0.364142             2.427170
| 22>   H                      1.420406             -0.880692            1.852502
| 23> *
| 24>
| 25> #Run DFT-D3 single point of the molecule with dimer basis set
| 26> $new_job
| 27> %base "22-187_DFT_A"
| 28> ! wB97X-D3 def2-TZVP TIGHTSCF CHELPG PMODEL
| 29>
| 30> %scf
| 31> MaxIter 1000
| 32> end
| 33>
| 34> * xyz 0 1
| 35>   C                      1.758582             -1.437780            -2.185095
| 36>   O                      1.633150             -0.040761            -2.412999
| 37>   H                      1.922239             0.409102             -1.638238
| 38>   H                      2.724347             -1.540067            -1.692715
| 39>   H                      0.986000             -1.690466            -1.515458
| 40>   H                      1.769196             -1.988602            -3.101469
| 41>   C                    : 2.296630             -0.274171            1.603037
| 42>   O                    : 1.996984             0.535547             0.414808
| 43>   H                    : 1.250259             1.158687             0.614377
| 44>   H                    : 3.130297             -1.028135            1.464270
| 45>   H                    : 2.630375             0.364142             2.427170
| 46>   H                    : 1.420406             -0.880692            1.852502
| 47> *
| 48>
| 49> #Run DFT-D3 single point of the particle with dimer basis set
| 50> $new_job
| 51> %base "22-187_DFT_B"
| 52> ! wB97X-D3 def2-TZVP TIGHTSCF CHELPG PMODEL
| 53>
| 54> %scf
| 55> MaxIter 1000
| 56> end
| 57>
| 58> * xyz 0 1
| 59>   C                    : 1.758582             -1.437780            -2.185095
| 60>   O                    : 1.633150             -0.040761            -2.412999
| 61>   H                    : 1.922239             0.409102             -1.638238
| 62>   H                    : 2.724347             -1.540067            -1.692715
| 63>   H                    : 0.986000             -1.690466            -1.515458
| 64>   H                    : 1.769196             -1.988602            -3.101469
| 65>   C                      2.296630             -0.274171            1.603037
| 66>   O                      1.996984             0.535547             0.414808
| 67>   H                      1.250259             1.158687             0.614377
| 68>   H                      3.130297             -1.028135            1.464270
| 69>   H                      2.630375             0.364142             2.427170
| 70>   H                      1.420406             -0.880692            1.852502
| 71> *
| 72>
| 73>                          ****END OF INPUT****
 Total Charge           Charge          ....    0
 Multiplicity           Mult            ....    1
 Number of Electrons    NEL             ....   36
Dispersion correction           -0.002046215
FINAL SINGLE POINT ENERGY      -231.469706120485
Dispersion correction           -0.000199885
FINAL SINGLE POINT ENERGY      -115.731443641344

CARTESIAN COORDINATES (ANGSTROEM)
---------------------------------
  C      1.758582   -1.437780   -2.185095
  O      1.633150   -0.040761   -2.412999
  H      1.922239    0.409102   -1.638238
  H      2.724347   -1.540067   -1.692715
  H      0.986000   -1.690466   -1.515458
  H      1.769196   -1.988602   -3.101469
  C      2.296630   -0.274171    1.603037
  O      1.996984    0.535547    0.414808
  H      1.250259    1.158687    0.614377
  H      3.130297   -1.028135    1.464270
  H      2.630375    0.364142    2.427170
  H      1.420406   -0.880692    1.852502

 Multiplicity           Mult            ....    1
 Number of Electrons    NEL             ....   18
 Basis Dimension        Dim             ....  172

ORBITAL ENERGIES
----------------

  NO   OCC          E(Eh)            E(eV)
   0   2.0000     -19.232816      -523.3515
   1   2.0000     -10.322890      -280.9001
   2   2.0000      -1.113212       -30.2920
   3   2.0000      -0.793374       -21.5888
   4   2.0000      -0.593399       -16.1472
   5   2.0000      -0.542924       -14.7737
   6   2.0000      -0.519445       -14.1348
   7   2.0000      -0.426370       -11.6021
   8   2.0000      -0.376031       -10.2323
   9   0.0000       0.097072         2.6415
  10   0.0000       0.129825         3.5327
  11   0.0000       0.141621         3.8537
  12   0.0000       0.187752         5.1090
  13   0.0000       0.196783         5.3547

MULLIKEN ATOMIC CHARGES
-----------------------
   0 C :    0.011578
   1 O :   -0.001974
   2 H :   -0.008063
   3 H :   -0.003178
   4 H :   -0.006639
   5 H :   -0.000212
   6 C :   -0.179473
   7 O :   -0.489287
   8 H :    0.318755
   9 H :    0.124358
  10 H :    0.117826
  11 H :    0.116308
Sum of atomic charges:   -0.0000000

LOEWDIN ATOMIC CHARGES
----------------------
   0 C :   -0.008761
   1 O :   -0.005349
   2 H :   -0.031428
   3 H :   -0.001330
   4 H :   -0.002211
   5 H :   -0.000121
   6 C :   -0.354978
   7 O :   -0.093623
   8 H :    0.184941
   9 H :    0.116884
  10 H :    0.098282
  11 H :    0.097694

  Mayer bond orders larger than 0.1
B(  6-C ,  7-O ) :   0.9797 B(  6-C ,  9-H ) :   0.9719 B(  6-C , 10-H ) :   0.9704
B(  6-C , 11-H ) :   0.9758 B(  7-O ,  8-H ) :   0.8899

Dispersion correction           -0.000277107
FINAL SINGLE POINT ENERGY      -115.730772049764

DIPOLE MOMENT
-------------
                                X             Y             Z
Electronic contribution:     -0.26830       0.96268      -1.52098
Nuclear contribution   :     -0.05974      -0.92872       2.17356
                        -----------------------------------------
Total Dipole Moment    :     -0.32804       0.03397       0.65257
                        -----------------------------------------
Magnitude (a.u.)       :      0.73118
Magnitude (Debye)      :      1.85850

Rotational constants in cm-1:     4.231105     0.768250     0.747339
Rotational constants in MHz : 126845.341093 23031.556240 22404.652749

                             ****ORCA TERMINATED NORMALLY****
TOTAL RUN TIME: 0 days 0 hours 1 minutes 8 seconds 713 msec
