                         Program Version 4.1.2  - RELEASE  -
|  1> #Run DFT-D3 single point of the dimer
|  2> ! wB97X-D3 def2-TZVP TIGHTSCF CHELPG PMODEL PAL8
|  3>
|  4> %base "17-178_DFT_AB"
|  5>
|  6> %scf
|  7> MaxIter 1000
|  8> end
|  9>
| 10> * xyz 0 1
| 11>   C                      -7.515037            5.582148             -3.315397
| 12>   O                      -6.525730            6.413087             -2.809489
| 13>   H                      -7.074586            7.115565             -2.361742
| 14>   H                      -8.167895            5.167696             -2.554163
| 15>   H                      -8.144789            6.128681             -3.981779
| 16>   H                      -7.049836            4.735349             -3.887886
| 17>   C                      -6.293331            5.922444             -6.337270
| 18>   O                      -5.239159            5.976326             -5.451876
| 19>   H                      -5.602778            6.388008             -4.641175
| 20>   H                      -5.932133            5.994813             -7.388418
| 21>   H                      -6.916755            4.990908             -6.234256
| 22>   H                      -6.929012            6.738098             -6.146326
| 23> *
| 24>
| 25> #Run DFT-D3 single point of the molecule with dimer basis set
| 26> $new_job
| 27> %base "17-178_DFT_A"
| 28> ! wB97X-D3 def2-TZVP TIGHTSCF CHELPG PMODEL
| 29>
| 30> %scf
| 31> MaxIter 1000
| 32> end
| 33>
| 34> * xyz 0 1
| 35>   C                      -7.515037            5.582148             -3.315397
| 36>   O                      -6.525730            6.413087             -2.809489
| 37>   H                      -7.074586            7.115565             -2.361742
| 38>   H                      -8.167895            5.167696             -2.554163
| 39>   H                      -8.144789            6.128681             -3.981779
| 40>   H                      -7.049836            4.735349             -3.887886
| 41>   C                    : -6.293331            5.922444             -6.337270
| 42>   O                    : -5.239159            5.976326             -5.451876
| 43>   H                    : -5.602778            6.388008             -4.641175
| 44>   H                    : -5.932133            5.994813             -7.388418
| 45>   H                    : -6.916755            4.990908             -6.234256
| 46>   H                    : -6.929012            6.738098             -6.146326
| 47> *
| 48>
| 49> #Run DFT-D3 single point of the particle with dimer basis set
| 50> $new_job
| 51> %base "17-178_DFT_B"
| 52> ! wB97X-D3 def2-TZVP TIGHTSCF CHELPG PMODEL
| 53>
| 54> %scf
| 55> MaxIter 1000
| 56> end
| 57>
| 58> * xyz 0 1
| 59>   C                    : -7.515037            5.582148             -3.315397
| 60>   O                    : -6.525730            6.413087             -2.809489
| 61>   H                    : -7.074586            7.115565             -2.361742
| 62>   H                    : -8.167895            5.167696             -2.554163
| 63>   H                    : -8.144789            6.128681             -3.981779
| 64>   H                    : -7.049836            4.735349             -3.887886
| 65>   C                      -6.293331            5.922444             -6.337270
| 66>   O                      -5.239159            5.976326             -5.451876
| 67>   H                      -5.602778            6.388008             -4.641175
| 68>   H                      -5.932133            5.994813             -7.388418
| 69>   H                      -6.916755            4.990908             -6.234256
| 70>   H                      -6.929012            6.738098             -6.146326
| 71> *
| 72>
| 73>                          ****END OF INPUT****
 Total Charge           Charge          ....    0
 Multiplicity           Mult            ....    1
 Number of Electrons    NEL             ....   36
Dispersion correction           -0.002315821
FINAL SINGLE POINT ENERGY      -231.471331834365
Dispersion correction           -0.000208847
FINAL SINGLE POINT ENERGY      -115.732621745396

CARTESIAN COORDINATES (ANGSTROEM)
---------------------------------
  C     -7.515037    5.582148   -3.315397
  O     -6.525730    6.413087   -2.809489
  H     -7.074586    7.115565   -2.361742
  H     -8.167895    5.167696   -2.554163
  H     -8.144789    6.128681   -3.981779
  H     -7.049836    4.735349   -3.887886
  C     -6.293331    5.922444   -6.337270
  O     -5.239159    5.976326   -5.451876
  H     -5.602778    6.388008   -4.641175
  H     -5.932133    5.994813   -7.388418
  H     -6.916755    4.990908   -6.234256
  H     -6.929012    6.738098   -6.146326

 Multiplicity           Mult            ....    1
 Number of Electrons    NEL             ....   18
 Basis Dimension        Dim             ....  172

ORBITAL ENERGIES
----------------

  NO   OCC          E(Eh)            E(eV)
   0   2.0000     -19.233914      -523.3814
   1   2.0000     -10.310144      -280.5533
   2   2.0000      -1.148010       -31.2389
   3   2.0000      -0.789672       -21.4881
   4   2.0000      -0.620213       -16.8769
   5   2.0000      -0.542588       -14.7646
   6   2.0000      -0.532980       -14.5031
   7   2.0000      -0.434039       -11.8108
   8   2.0000      -0.371276       -10.1029
   9   0.0000       0.069891         1.9018
  10   0.0000       0.140053         3.8110
  11   0.0000       0.146306         3.9812
  12   0.0000       0.168676         4.5899
  13   0.0000       0.195372         5.3163

MULLIKEN ATOMIC CHARGES
-----------------------
   0 C :   -0.012645
   1 O :    0.001117
   2 H :    0.000162
   3 H :   -0.000614
   4 H :   -0.000496
   5 H :    0.000248
   6 C :   -0.177480
   7 O :   -0.452280
   8 H :    0.317725
   9 H :    0.122949
  10 H :    0.091937
  11 H :    0.109377
Sum of atomic charges:   -0.0000000

LOEWDIN ATOMIC CHARGES
----------------------
   0 C :   -0.021031
   1 O :   -0.013690
   2 H :   -0.000629
   3 H :   -0.000214
   4 H :   -0.002931
   5 H :   -0.006643
   6 C :   -0.410812
   7 O :   -0.040207
   8 H :    0.195543
   9 H :    0.110786
  10 H :    0.101289
  11 H :    0.088540

  Mayer bond orders larger than 0.1
B(  6-C ,  7-O ) :   0.9980 B(  6-C ,  9-H ) :   0.9733 B(  6-C , 10-H ) :   0.9750
B(  6-C , 11-H ) :   0.9926 B(  7-O ,  8-H ) :   0.9007

Dispersion correction           -0.000223142
FINAL SINGLE POINT ENERGY      -115.732729217249

DIPOLE MOMENT
-------------
                                X             Y             Z
Electronic contribution:      1.53083       0.03276       1.05821
Nuclear contribution   :     -2.13744       0.24537      -0.88290
                        -----------------------------------------
Total Dipole Moment    :     -0.60661       0.27813       0.17531
                        -----------------------------------------
Magnitude (a.u.)       :      0.68997
Magnitude (Debye)      :      1.75377

Rotational constants in cm-1:     4.231406     0.869310     0.835906
Rotational constants in MHz : 126854.350037 26061.244588 25059.841440

                             ****ORCA TERMINATED NORMALLY****
TOTAL RUN TIME: 0 days 0 hours 1 minutes 10 seconds 2 msec
