                         Program Version 4.1.2  - RELEASE  -
|  1> #Run DFT-D3 single point of the dimer
|  2> ! wB97X-D3 def2-TZVP TIGHTSCF CHELPG PMODEL PAL8
|  3>
|  4> %base "3-48_DFT_AB"
|  5>
|  6> %scf
|  7> MaxIter 1000
|  8> end
|  9>
| 10> * xyz 0 1
| 11>   C                      -3.289817            3.839313             -6.482746
| 12>   O                      -4.185576            4.250906             -7.462851
| 13>   H                      -4.707539            3.455339             -7.545012
| 14>   H                      -3.645948            3.191517             -5.758856
| 15>   H                      -2.405513            3.242529             -6.901142
| 16>   H                      -2.662676            4.632680             -6.020365
| 17>   C                      -4.874273            6.458068             -10.305243
| 18>   O                      -4.525635            7.530858             -9.486293
| 19>   H                      -4.296660            8.299056             -10.007908
| 20>   H                      -3.987465            5.818103             -10.577843
| 21>   H                      -5.660014            5.771274             -9.909763
| 22>   H                      -5.419816            6.812913             -11.199365
| 23> *
| 24>
| 25> #Run DFT-D3 single point of the molecule with dimer basis set
| 26> $new_job
| 27> %base "3-48_DFT_A"
| 28> ! wB97X-D3 def2-TZVP TIGHTSCF CHELPG PMODEL
| 29>
| 30> %scf
| 31> MaxIter 1000
| 32> end
| 33>
| 34> * xyz 0 1
| 35>   C                      -3.289817            3.839313             -6.482746
| 36>   O                      -4.185576            4.250906             -7.462851
| 37>   H                      -4.707539            3.455339             -7.545012
| 38>   H                      -3.645948            3.191517             -5.758856
| 39>   H                      -2.405513            3.242529             -6.901142
| 40>   H                      -2.662676            4.632680             -6.020365
| 41>   C                    : -4.874273            6.458068             -10.305243
| 42>   O                    : -4.525635            7.530858             -9.486293
| 43>   H                    : -4.296660            8.299056             -10.007908
| 44>   H                    : -3.987465            5.818103             -10.577843
| 45>   H                    : -5.660014            5.771274             -9.909763
| 46>   H                    : -5.419816            6.812913             -11.199365
| 47> *
| 48>
| 49> #Run DFT-D3 single point of the particle with dimer basis set
| 50> $new_job
| 51> %base "3-48_DFT_B"
| 52> ! wB97X-D3 def2-TZVP TIGHTSCF CHELPG PMODEL
| 53>
| 54> %scf
| 55> MaxIter 1000
| 56> end
| 57>
| 58> * xyz 0 1
| 59>   C                    : -3.289817            3.839313             -6.482746
| 60>   O                    : -4.185576            4.250906             -7.462851
| 61>   H                    : -4.707539            3.455339             -7.545012
| 62>   H                    : -3.645948            3.191517             -5.758856
| 63>   H                    : -2.405513            3.242529             -6.901142
| 64>   H                    : -2.662676            4.632680             -6.020365
| 65>   C                      -4.874273            6.458068             -10.305243
| 66>   O                      -4.525635            7.530858             -9.486293
| 67>   H                      -4.296660            8.299056             -10.007908
| 68>   H                      -3.987465            5.818103             -10.577843
| 69>   H                      -5.660014            5.771274             -9.909763
| 70>   H                      -5.419816            6.812913             -11.199365
| 71> *
| 72>
| 73>                          ****END OF INPUT****
 Total Charge           Charge          ....    0
 Multiplicity           Mult            ....    1
 Number of Electrons    NEL             ....   36
Dispersion correction           -0.001204764
FINAL SINGLE POINT ENERGY      -231.454671730382
Dispersion correction           -0.000235394
FINAL SINGLE POINT ENERGY      -115.723841884533

CARTESIAN COORDINATES (ANGSTROEM)
---------------------------------
  C     -3.289817    3.839313   -6.482746
  O     -4.185576    4.250906   -7.462851
  H     -4.707539    3.455339   -7.545012
  H     -3.645948    3.191517   -5.758856
  H     -2.405513    3.242529   -6.901142
  H     -2.662676    4.632680   -6.020365
  C     -4.874273    6.458068  -10.305243
  O     -4.525635    7.530858   -9.486293
  H     -4.296660    8.299056  -10.007908
  H     -3.987465    5.818103  -10.577843
  H     -5.660014    5.771274   -9.909763
  H     -5.419816    6.812913  -11.199365

 Multiplicity           Mult            ....    1
 Number of Electrons    NEL             ....   18
 Basis Dimension        Dim             ....  172

ORBITAL ENERGIES
----------------

  NO   OCC          E(Eh)            E(eV)
   0   2.0000     -19.231263      -523.3093
   1   2.0000     -10.318888      -280.7912
   2   2.0000      -1.142533       -31.0899
   3   2.0000      -0.793017       -21.5791
   4   2.0000      -0.615886       -16.7591
   5   2.0000      -0.544105       -14.8058
   6   2.0000      -0.528400       -14.3785
   7   2.0000      -0.418773       -11.3954
   8   2.0000      -0.375769       -10.2252
   9   0.0000       0.089823         2.4442
  10   0.0000       0.116314         3.1651
  11   0.0000       0.143789         3.9127
  12   0.0000       0.177131         4.8200
  13   0.0000       0.193140         5.2556

MULLIKEN ATOMIC CHARGES
-----------------------
   0 C :    0.000107
   1 O :    0.000401
   2 H :   -0.000130
   3 H :   -0.000008
   4 H :   -0.000013
   5 H :   -0.000018
   6 C :   -0.171841
   7 O :   -0.474665
   8 H :    0.321575
   9 H :    0.101652
  10 H :    0.118506
  11 H :    0.104435
Sum of atomic charges:    0.0000000

LOEWDIN ATOMIC CHARGES
----------------------
   0 C :   -0.000076
   1 O :   -0.000583
   2 H :   -0.000257
   3 H :   -0.000002
   4 H :   -0.000003
   5 H :   -0.000012
   6 C :   -0.415339
   7 O :   -0.061680
   8 H :    0.170021
   9 H :    0.100475
  10 H :    0.109700
  11 H :    0.097756

  Mayer bond orders larger than 0.1
B(  6-C ,  7-O ) :   1.0020 B(  6-C ,  9-H ) :   0.9736 B(  6-C , 10-H ) :   0.9682
B(  6-C , 11-H ) :   0.9820 B(  7-O ,  8-H ) :   0.8940

Dispersion correction           -0.000259219
FINAL SINGLE POINT ENERGY      -115.731418728346

DIPOLE MOMENT
-------------
                                X             Y             Z
Electronic contribution:      0.51828       1.39268       1.25599
Nuclear contribution   :     -0.54156      -1.28988      -1.91691
                        -----------------------------------------
Total Dipole Moment    :     -0.02328       0.10279      -0.66091
                        -----------------------------------------
Magnitude (a.u.)       :      0.66927
Magnitude (Debye)      :      1.70114

Rotational constants in cm-1:     4.322899     0.825641     0.811178
Rotational constants in MHz : 129597.252462 24752.079622 24318.509351

                             ****ORCA TERMINATED NORMALLY****
TOTAL RUN TIME: 0 days 0 hours 6 minutes 23 seconds 361 msec
