                         Program Version 4.1.2  - RELEASE  -
|  1> #Run DFT-D3 single point of the dimer
|  2> ! wB97X-D3 def2-TZVP TIGHTSCF CHELPG PMODEL PAL8
|  3>
|  4> %base "4-133_DFT_AB"
|  5>
|  6> %scf
|  7> MaxIter 1000
|  8> end
|  9>
| 10> * xyz 0 1
| 11>   C                      2.765020             -4.179074            5.805482
| 12>   O                      3.311683             -5.446056            6.177687
| 13>   H                      3.331339             -5.364676            7.148464
| 14>   H                      2.715584             -4.021929            4.701500
| 15>   H                      1.758848             -4.116859            6.285104
| 16>   H                      3.338024             -3.374553            6.326295
| 17>   C                      3.110129             -9.245183            10.551385
| 18>   O                      3.731565             -9.255811            9.261966
| 19>   H                      4.133934             -8.359812            9.206433
| 20>   H                      2.979121             -8.278599            10.999272
| 21>   H                      2.126853             -9.721099            10.617478
| 22>   H                      3.728925             -9.814413            11.301840
| 23> *
| 24>
| 25> #Run DFT-D3 single point of the molecule with dimer basis set
| 26> $new_job
| 27> %base "4-133_DFT_A"
| 28> ! wB97X-D3 def2-TZVP TIGHTSCF CHELPG PMODEL
| 29>
| 30> %scf
| 31> MaxIter 1000
| 32> end
| 33>
| 34> * xyz 0 1
| 35>   C                      2.765020             -4.179074            5.805482
| 36>   O                      3.311683             -5.446056            6.177687
| 37>   H                      3.331339             -5.364676            7.148464
| 38>   H                      2.715584             -4.021929            4.701500
| 39>   H                      1.758848             -4.116859            6.285104
| 40>   H                      3.338024             -3.374553            6.326295
| 41>   C                    : 3.110129             -9.245183            10.551385
| 42>   O                    : 3.731565             -9.255811            9.261966
| 43>   H                    : 4.133934             -8.359812            9.206433
| 44>   H                    : 2.979121             -8.278599            10.999272
| 45>   H                    : 2.126853             -9.721099            10.617478
| 46>   H                    : 3.728925             -9.814413            11.301840
| 47> *
| 48>
| 49> #Run DFT-D3 single point of the particle with dimer basis set
| 50> $new_job
| 51> %base "4-133_DFT_B"
| 52> ! wB97X-D3 def2-TZVP TIGHTSCF CHELPG PMODEL
| 53>
| 54> %scf
| 55> MaxIter 1000
| 56> end
| 57>
| 58> * xyz 0 1
| 59>   C                    : 2.765020             -4.179074            5.805482
| 60>   O                    : 3.311683             -5.446056            6.177687
| 61>   H                    : 3.331339             -5.364676            7.148464
| 62>   H                    : 2.715584             -4.021929            4.701500
| 63>   H                    : 1.758848             -4.116859            6.285104
| 64>   H                    : 3.338024             -3.374553            6.326295
| 65>   C                      3.110129             -9.245183            10.551385
| 66>   O                      3.731565             -9.255811            9.261966
| 67>   H                      4.133934             -8.359812            9.206433
| 68>   H                      2.979121             -8.278599            10.999272
| 69>   H                      2.126853             -9.721099            10.617478
| 70>   H                      3.728925             -9.814413            11.301840
| 71> *
| 72>
| 73>                          ****END OF INPUT****
 Total Charge           Charge          ....    0
 Multiplicity           Mult            ....    1
 Number of Electrons    NEL             ....   36
Dispersion correction           -0.000651041
FINAL SINGLE POINT ENERGY      -231.461085471422
Dispersion correction           -0.000218761
FINAL SINGLE POINT ENERGY      -115.730904628517

CARTESIAN COORDINATES (ANGSTROEM)
---------------------------------
  C      2.765020   -4.179074    5.805482
  O      3.311683   -5.446056    6.177687
  H      3.331339   -5.364676    7.148464
  H      2.715584   -4.021929    4.701500
  H      1.758848   -4.116859    6.285104
  H      3.338024   -3.374553    6.326295
  C      3.110129   -9.245183   10.551385
  O      3.731565   -9.255811    9.261966
  H      4.133934   -8.359812    9.206433
  H      2.979121   -8.278599   10.999272
  H      2.126853   -9.721099   10.617478
  H      3.728925   -9.814413   11.301840

 Multiplicity           Mult            ....    1
 Number of Electrons    NEL             ....   18
 Basis Dimension        Dim             ....  172

ORBITAL ENERGIES
----------------

  NO   OCC          E(Eh)            E(eV)
   0   2.0000     -19.238517      -523.5067
   1   2.0000     -10.315697      -280.7044
   2   2.0000      -1.131867       -30.7997
   3   2.0000      -0.794405       -21.6168
   4   2.0000      -0.609871       -16.5954
   5   2.0000      -0.530510       -14.4359
   6   2.0000      -0.525390       -14.2966
   7   2.0000      -0.443475       -12.0676
   8   2.0000      -0.373727       -10.1696
   9   0.0000       0.081382         2.2145
  10   0.0000       0.108157         2.9431
  11   0.0000       0.146437         3.9847
  12   0.0000       0.174136         4.7385
  13   0.0000       0.192549         5.2395

MULLIKEN ATOMIC CHARGES
-----------------------
   0 C :    0.000055
   1 O :    0.000022
   2 H :   -0.000364
   3 H :    0.000002
   4 H :   -0.000006
   5 H :   -0.000004
   6 C :   -0.187156
   7 O :   -0.463430
   8 H :    0.320113
   9 H :    0.111565
  10 H :    0.118563
  11 H :    0.100640
Sum of atomic charges:    0.0000000

LOEWDIN ATOMIC CHARGES
----------------------
   0 C :   -0.000004
   1 O :   -0.000015
   2 H :   -0.000236
   3 H :   -0.000001
   4 H :   -0.000000
   5 H :   -0.000000
   6 C :   -0.388485
   7 O :   -0.095161
   8 H :    0.187092
   9 H :    0.091615
  10 H :    0.103440
  11 H :    0.101756

  Mayer bond orders larger than 0.1
B(  6-C ,  7-O ) :   1.0130 B(  6-C ,  9-H ) :   0.9791 B(  6-C , 10-H ) :   0.9729
B(  6-C , 11-H ) :   0.9772 B(  7-O ,  8-H ) :   0.8974

Dispersion correction           -0.000264922
FINAL SINGLE POINT ENERGY      -115.730899739860

DIPOLE MOMENT
-------------
                                X             Y             Z
Electronic contribution:      0.71877      -0.09135      -1.87026
Nuclear contribution   :     -0.72679       0.68114       2.34054
                        -----------------------------------------
Total Dipole Moment    :     -0.00802       0.58980       0.47028
                        -----------------------------------------
Magnitude (a.u.)       :      0.75438
Magnitude (Debye)      :      1.91747

Rotational constants in cm-1:     4.347957     0.805060     0.775626
Rotational constants in MHz : 130348.484515 24135.079257 23252.694344

                             ****ORCA TERMINATED NORMALLY****
TOTAL RUN TIME: 0 days 0 hours 1 minutes 23 seconds 80 msec
