                         Program Version 4.1.2  - RELEASE  -
|  1> #Run DFT-D3 single point of the dimer
|  2> ! wB97X-D3 def2-TZVP TIGHTSCF CHELPG PMODEL PAL8
|  3>
|  4> %base "13-155_DFT_AB"
|  5>
|  6> %scf
|  7> MaxIter 1000
|  8> end
|  9>
| 10> * xyz 0 1
| 11>   C                      -5.096008            -3.753451            3.326381
| 12>   O                      -5.380777            -2.400970            2.826767
| 13>   H                      -4.569839            -1.883165            2.985100
| 14>   H                      -5.602730            -3.811661            4.240219
| 15>   H                      -5.307437            -4.498748            2.542012
| 16>   H                      -4.063225            -3.850784            3.599259
| 17>   C                      -3.767638            0.228919             2.490762
| 18>   O                      -3.083280            -1.011143            2.849007
| 19>   H                      -2.235799            -0.874718            2.410152
| 20>   H                      -3.069654            0.908435             2.090588
| 21>   H                      -4.519421            0.019585             1.676281
| 22>   H                      -4.254546            0.670043             3.350451
| 23> *
| 24>
| 25> #Run DFT-D3 single point of the molecule with dimer basis set
| 26> $new_job
| 27> %base "13-155_DFT_A"
| 28> ! wB97X-D3 def2-TZVP TIGHTSCF CHELPG PMODEL
| 29>
| 30> %scf
| 31> MaxIter 1000
| 32> end
| 33>
| 34> * xyz 0 1
| 35>   C                      -5.096008            -3.753451            3.326381
| 36>   O                      -5.380777            -2.400970            2.826767
| 37>   H                      -4.569839            -1.883165            2.985100
| 38>   H                      -5.602730            -3.811661            4.240219
| 39>   H                      -5.307437            -4.498748            2.542012
| 40>   H                      -4.063225            -3.850784            3.599259
| 41>   C                    : -3.767638            0.228919             2.490762
| 42>   O                    : -3.083280            -1.011143            2.849007
| 43>   H                    : -2.235799            -0.874718            2.410152
| 44>   H                    : -3.069654            0.908435             2.090588
| 45>   H                    : -4.519421            0.019585             1.676281
| 46>   H                    : -4.254546            0.670043             3.350451
| 47> *
| 48>
| 49> #Run DFT-D3 single point of the particle with dimer basis set
| 50> $new_job
| 51> %base "13-155_DFT_B"
| 52> ! wB97X-D3 def2-TZVP TIGHTSCF CHELPG PMODEL
| 53>
| 54> %scf
| 55> MaxIter 1000
| 56> end
| 57>
| 58> * xyz 0 1
| 59>   C                    : -5.096008            -3.753451            3.326381
| 60>   O                    : -5.380777            -2.400970            2.826767
| 61>   H                    : -4.569839            -1.883165            2.985100
| 62>   H                    : -5.602730            -3.811661            4.240219
| 63>   H                    : -5.307437            -4.498748            2.542012
| 64>   H                    : -4.063225            -3.850784            3.599259
| 65>   C                      -3.767638            0.228919             2.490762
| 66>   O                      -3.083280            -1.011143            2.849007
| 67>   H                      -2.235799            -0.874718            2.410152
| 68>   H                      -3.069654            0.908435             2.090588
| 69>   H                      -4.519421            0.019585             1.676281
| 70>   H                      -4.254546            0.670043             3.350451
| 71> *
| 72>
| 73>                          ****END OF INPUT****
 Total Charge           Charge          ....    0
 Multiplicity           Mult            ....    1
 Number of Electrons    NEL             ....   36
Dispersion correction           -0.001866392
FINAL SINGLE POINT ENERGY      -231.466480998692
Dispersion correction           -0.000242624
FINAL SINGLE POINT ENERGY      -115.729594472031

CARTESIAN COORDINATES (ANGSTROEM)
---------------------------------
  C     -5.096008   -3.753451    3.326381
  O     -5.380777   -2.400970    2.826767
  H     -4.569839   -1.883165    2.985100
  H     -5.602730   -3.811661    4.240219
  H     -5.307437   -4.498748    2.542012
  H     -4.063225   -3.850784    3.599259
  C     -3.767638    0.228919    2.490762
  O     -3.083280   -1.011143    2.849007
  H     -2.235799   -0.874718    2.410152
  H     -3.069654    0.908435    2.090588
  H     -4.519421    0.019585    1.676281
  H     -4.254546    0.670043    3.350451

 Multiplicity           Mult            ....    1
 Number of Electrons    NEL             ....   18
 Basis Dimension        Dim             ....  172

ORBITAL ENERGIES
----------------

  NO   OCC          E(Eh)            E(eV)
   0   2.0000     -19.231883      -523.3261
   1   2.0000     -10.315467      -280.6981
   2   2.0000      -1.126749       -30.6604
   3   2.0000      -0.795703       -21.6522
   4   2.0000      -0.605988       -16.4898
   5   2.0000      -0.536857       -14.6086
   6   2.0000      -0.520480       -14.1630
   7   2.0000      -0.447180       -12.1684
   8   2.0000      -0.375243       -10.2109
   9   0.0000       0.099633         2.7112
  10   0.0000       0.123081         3.3492
  11   0.0000       0.149428         4.0661
  12   0.0000       0.186872         5.0850
  13   0.0000       0.199730         5.4349

MULLIKEN ATOMIC CHARGES
-----------------------
   0 C :    0.001996
   1 O :   -0.001799
   2 H :    0.002429
   3 H :   -0.000503
   4 H :    0.000022
   5 H :   -0.003495
   6 C :   -0.190547
   7 O :   -0.467070
   8 H :    0.308760
   9 H :    0.117830
  10 H :    0.110669
  11 H :    0.121707
Sum of atomic charges:    0.0000000

LOEWDIN ATOMIC CHARGES
----------------------
   0 C :   -0.004417
   1 O :   -0.008080
   2 H :   -0.056678
   3 H :   -0.000071
   4 H :   -0.000039
   5 H :   -0.001957
   6 C :   -0.340413
   7 O :   -0.059362
   8 H :    0.169611
   9 H :    0.089420
  10 H :    0.108839
  11 H :    0.103146

  Mayer bond orders larger than 0.1
B(  6-C ,  7-O ) :   0.9915 B(  6-C ,  9-H ) :   0.9803 B(  6-C , 10-H ) :   0.9773
B(  6-C , 11-H ) :   0.9756 B(  7-O ,  8-H ) :   0.9064

Dispersion correction           -0.000243543
FINAL SINGLE POINT ENERGY      -115.731696317439

DIPOLE MOMENT
-------------
                                X             Y             Z
Electronic contribution:      0.73822      -1.53403       0.60880
Nuclear contribution   :     -0.46488       2.15677      -1.02564
                        -----------------------------------------
Total Dipole Moment    :      0.27334       0.62274      -0.41684
                        -----------------------------------------
Magnitude (a.u.)       :      0.79767
Magnitude (Debye)      :      2.02750

Rotational constants in cm-1:     4.219862     0.797700     0.772567
Rotational constants in MHz : 126508.288258 23914.432207 23160.983331

                             ****ORCA TERMINATED NORMALLY****
TOTAL RUN TIME: 0 days 0 hours 1 minutes 12 seconds 605 msec
