                         Program Version 4.1.2  - RELEASE  -
|  1> #Run DFT-D3 single point of the dimer
|  2> ! wB97X-D3 def2-TZVP TIGHTSCF CHELPG PMODEL PAL8
|  3>
|  4> %base "5-178_DFT_AB"
|  5>
|  6> %scf
|  7> MaxIter 1000
|  8> end
|  9>
| 10> * xyz 0 1
| 11>   C                      5.933043             0.052721             -9.709095
| 12>   O                      5.528336             0.447051             -10.968198
| 13>   H                      5.157719             -0.297805            -11.447300
| 14>   H                      6.258533             -0.932075            -9.626614
| 15>   H                      6.793636             0.701506             -9.427070
| 16>   H                      5.139158             0.209402             -9.025313
| 17>   C                      4.883244             -3.118072            -10.929616
| 18>   O                      5.604353             -2.171194            -11.780115
| 19>   H                      6.536852             -2.425342            -11.674643
| 20>   H                      3.844992             -3.309413            -11.121508
| 21>   H                      5.377725             -4.104453            -11.004845
| 22>   H                      4.933253             -2.812572            -9.878547
| 23> *
| 24>
| 25> #Run DFT-D3 single point of the molecule with dimer basis set
| 26> $new_job
| 27> %base "5-178_DFT_A"
| 28> ! wB97X-D3 def2-TZVP TIGHTSCF CHELPG PMODEL
| 29>
| 30> %scf
| 31> MaxIter 1000
| 32> end
| 33>
| 34> * xyz 0 1
| 35>   C                      5.933043             0.052721             -9.709095
| 36>   O                      5.528336             0.447051             -10.968198
| 37>   H                      5.157719             -0.297805            -11.447300
| 38>   H                      6.258533             -0.932075            -9.626614
| 39>   H                      6.793636             0.701506             -9.427070
| 40>   H                      5.139158             0.209402             -9.025313
| 41>   C                    : 4.883244             -3.118072            -10.929616
| 42>   O                    : 5.604353             -2.171194            -11.780115
| 43>   H                    : 6.536852             -2.425342            -11.674643
| 44>   H                    : 3.844992             -3.309413            -11.121508
| 45>   H                    : 5.377725             -4.104453            -11.004845
| 46>   H                    : 4.933253             -2.812572            -9.878547
| 47> *
| 48>
| 49> #Run DFT-D3 single point of the particle with dimer basis set
| 50> $new_job
| 51> %base "5-178_DFT_B"
| 52> ! wB97X-D3 def2-TZVP TIGHTSCF CHELPG PMODEL
| 53>
| 54> %scf
| 55> MaxIter 1000
| 56> end
| 57>
| 58> * xyz 0 1
| 59>   C                    : 5.933043             0.052721             -9.709095
| 60>   O                    : 5.528336             0.447051             -10.968198
| 61>   H                    : 5.157719             -0.297805            -11.447300
| 62>   H                    : 6.258533             -0.932075            -9.626614
| 63>   H                    : 6.793636             0.701506             -9.427070
| 64>   H                    : 5.139158             0.209402             -9.025313
| 65>   C                      4.883244             -3.118072            -10.929616
| 66>   O                      5.604353             -2.171194            -11.780115
| 67>   H                      6.536852             -2.425342            -11.674643
| 68>   H                      3.844992             -3.309413            -11.121508
| 69>   H                      5.377725             -4.104453            -11.004845
| 70>   H                      4.933253             -2.812572            -9.878547
| 71> *
| 72>
| 73>                          ****END OF INPUT****
 Total Charge           Charge          ....    0
 Multiplicity           Mult            ....    1
 Number of Electrons    NEL             ....   36
Dispersion correction           -0.002292568
FINAL SINGLE POINT ENERGY      -231.469151237063
Dispersion correction           -0.000223239
FINAL SINGLE POINT ENERGY      -115.732852940161

CARTESIAN COORDINATES (ANGSTROEM)
---------------------------------
  C      5.933043    0.052721   -9.709095
  O      5.528336    0.447051  -10.968198
  H      5.157719   -0.297805  -11.447300
  H      6.258533   -0.932075   -9.626614
  H      6.793636    0.701506   -9.427070
  H      5.139158    0.209402   -9.025313
  C      4.883244   -3.118072  -10.929616
  O      5.604353   -2.171194  -11.780115
  H      6.536852   -2.425342  -11.674643
  H      3.844992   -3.309413  -11.121508
  H      5.377725   -4.104453  -11.004845
  H      4.933253   -2.812572   -9.878547

 Multiplicity           Mult            ....    1
 Number of Electrons    NEL             ....   18
 Basis Dimension        Dim             ....  172

ORBITAL ENERGIES
----------------

  NO   OCC          E(Eh)            E(eV)
   0   2.0000     -19.235532      -523.4254
   1   2.0000     -10.317752      -280.7603
   2   2.0000      -1.123834       -30.5811
   3   2.0000      -0.798414       -21.7260
   4   2.0000      -0.599518       -16.3137
   5   2.0000      -0.535597       -14.5743
   6   2.0000      -0.531791       -14.4708
   7   2.0000      -0.437221       -11.8974
   8   2.0000      -0.376571       -10.2470
   9   0.0000       0.092643         2.5209
  10   0.0000       0.132383         3.6023
  11   0.0000       0.146130         3.9764
  12   0.0000       0.186783         5.0826
  13   0.0000       0.192489         5.2379

MULLIKEN ATOMIC CHARGES
-----------------------
   0 C :    0.004300
   1 O :    0.000163
   2 H :   -0.004161
   3 H :   -0.010747
   4 H :   -0.000018
   5 H :   -0.001571
   6 C :   -0.196033
   7 O :   -0.465242
   8 H :    0.318806
   9 H :    0.132085
  10 H :    0.110641
  11 H :    0.111779
Sum of atomic charges:   -0.0000000

LOEWDIN ATOMIC CHARGES
----------------------
   0 C :   -0.016297
   1 O :   -0.009444
   2 H :   -0.038878
   3 H :   -0.008746
   4 H :   -0.000155
   5 H :   -0.000340
   6 C :   -0.349965
   7 O :   -0.058783
   8 H :    0.178158
   9 H :    0.102841
  10 H :    0.102059
  11 H :    0.099551

  Mayer bond orders larger than 0.1
B(  6-C ,  7-O ) :   0.9878 B(  6-C ,  9-H ) :   0.9740 B(  6-C , 10-H ) :   0.9822
B(  6-C , 11-H ) :   0.9739 B(  7-O ,  8-H ) :   0.8969

Dispersion correction           -0.000256458
FINAL SINGLE POINT ENERGY      -115.730999754504

DIPOLE MOMENT
-------------
                                X             Y             Z
Electronic contribution:      0.65839       1.33856      -1.21289
Nuclear contribution   :     -0.39518      -1.91435       1.61925
                        -----------------------------------------
Total Dipole Moment    :      0.26320      -0.57578       0.40636
                        -----------------------------------------
Magnitude (a.u.)       :      0.75228
Magnitude (Debye)      :      1.91215

Rotational constants in cm-1:     4.360848     0.781960     0.755821
Rotational constants in MHz : 130734.924392 23442.579791 22658.937764

                             ****ORCA TERMINATED NORMALLY****
TOTAL RUN TIME: 0 days 0 hours 0 minutes 57 seconds 191 msec
