                         Program Version 4.1.2  - RELEASE  -
|  1> #Run DFT-D3 single point of the dimer
|  2> ! wB97X-D3 def2-TZVP TIGHTSCF CHELPG PMODEL PAL8
|  3>
|  4> %base "11-181_DFT_AB"
|  5>
|  6> %scf
|  7> MaxIter 1000
|  8> end
|  9>
| 10> * xyz 0 1
| 11>   C                      -11.209896           -8.211989            9.745576
| 12>   O                      -10.834857           -7.485148            10.855116
| 13>   H                      -10.149302           -6.842815            10.490866
| 14>   H                      -11.361402           -7.572291            8.793992
| 15>   H                      -10.412450           -8.917025            9.612272
| 16>   H                      -12.203967           -8.706620            9.878489
| 17>   C                      -10.375505           -4.960749            7.946851
| 18>   O                      -9.642178            -5.442567            9.053900
| 19>   H                      -8.691800            -5.201689            8.950636
| 20>   H                      -10.167035           -3.861458            7.836192
| 21>   H                      -10.193119           -5.459755            6.987035
| 22>   H                      -11.476513           -4.870037            8.202719
| 23> *
| 24>
| 25> #Run DFT-D3 single point of the molecule with dimer basis set
| 26> $new_job
| 27> %base "11-181_DFT_A"
| 28> ! wB97X-D3 def2-TZVP TIGHTSCF CHELPG PMODEL
| 29>
| 30> %scf
| 31> MaxIter 1000
| 32> end
| 33>
| 34> * xyz 0 1
| 35>   C                      -11.209896           -8.211989            9.745576
| 36>   O                      -10.834857           -7.485148            10.855116
| 37>   H                      -10.149302           -6.842815            10.490866
| 38>   H                      -11.361402           -7.572291            8.793992
| 39>   H                      -10.412450           -8.917025            9.612272
| 40>   H                      -12.203967           -8.706620            9.878489
| 41>   C                    : -10.375505           -4.960749            7.946851
| 42>   O                    : -9.642178            -5.442567            9.053900
| 43>   H                    : -8.691800            -5.201689            8.950636
| 44>   H                    : -10.167035           -3.861458            7.836192
| 45>   H                    : -10.193119           -5.459755            6.987035
| 46>   H                    : -11.476513           -4.870037            8.202719
| 47> *
| 48>
| 49> #Run DFT-D3 single point of the particle with dimer basis set
| 50> $new_job
| 51> %base "11-181_DFT_B"
| 52> ! wB97X-D3 def2-TZVP TIGHTSCF CHELPG PMODEL
| 53>
| 54> %scf
| 55> MaxIter 1000
| 56> end
| 57>
| 58> * xyz 0 1
| 59>   C                    : -11.209896           -8.211989            9.745576
| 60>   O                    : -10.834857           -7.485148            10.855116
| 61>   H                    : -10.149302           -6.842815            10.490866
| 62>   H                    : -11.361402           -7.572291            8.793992
| 63>   H                    : -10.412450           -8.917025            9.612272
| 64>   H                    : -12.203967           -8.706620            9.878489
| 65>   C                      -10.375505           -4.960749            7.946851
| 66>   O                      -9.642178            -5.442567            9.053900
| 67>   H                      -8.691800            -5.201689            8.950636
| 68>   H                      -10.167035           -3.861458            7.836192
| 69>   H                      -10.193119           -5.459755            6.987035
| 70>   H                      -11.476513           -4.870037            8.202719
| 71> *
| 72>
| 73>                          ****END OF INPUT****
 Total Charge           Charge          ....    0
 Multiplicity           Mult            ....    1
 Number of Electrons    NEL             ....   36
Dispersion correction           -0.002077624
FINAL SINGLE POINT ENERGY      -231.466828024409
Dispersion correction           -0.000218469
FINAL SINGLE POINT ENERGY      -115.727366793711

CARTESIAN COORDINATES (ANGSTROEM)
---------------------------------
  C    -11.209896   -8.211989    9.745576
  O    -10.834857   -7.485148   10.855116
  H    -10.149302   -6.842815   10.490866
  H    -11.361402   -7.572291    8.793992
  H    -10.412450   -8.917025    9.612272
  H    -12.203967   -8.706620    9.878489
  C    -10.375505   -4.960749    7.946851
  O     -9.642178   -5.442567    9.053900
  H     -8.691800   -5.201689    8.950636
  H    -10.167035   -3.861458    7.836192
  H    -10.193119   -5.459755    6.987035
  H    -11.476513   -4.870037    8.202719

 Multiplicity           Mult            ....    1
 Number of Electrons    NEL             ....   18
 Basis Dimension        Dim             ....  172

ORBITAL ENERGIES
----------------

  NO   OCC          E(Eh)            E(eV)
   0   2.0000     -19.234587      -523.3997
   1   2.0000     -10.321023      -280.8493
   2   2.0000      -1.132385       -30.8138
   3   2.0000      -0.789617       -21.4866
   4   2.0000      -0.607908       -16.5420
   5   2.0000      -0.546974       -14.8839
   6   2.0000      -0.519681       -14.1413
   7   2.0000      -0.422988       -11.5101
   8   2.0000      -0.375348       -10.2138
   9   0.0000       0.098215         2.6726
  10   0.0000       0.127090         3.4583
  11   0.0000       0.145763         3.9664
  12   0.0000       0.187727         5.1083
  13   0.0000       0.198160         5.3922

MULLIKEN ATOMIC CHARGES
-----------------------
   0 C :   -0.001935
   1 O :    0.000017
   2 H :   -0.007316
   3 H :    0.002927
   4 H :   -0.000856
   5 H :   -0.000143
   6 C :   -0.179437
   7 O :   -0.472675
   8 H :    0.319380
   9 H :    0.104021
  10 H :    0.111658
  11 H :    0.124358
Sum of atomic charges:   -0.0000000

LOEWDIN ATOMIC CHARGES
----------------------
   0 C :   -0.008477
   1 O :   -0.003406
   2 H :   -0.031384
   3 H :   -0.003763
   4 H :   -0.000404
   5 H :   -0.000094
   6 C :   -0.401200
   7 O :   -0.051669
   8 H :    0.184724
   9 H :    0.101436
  10 H :    0.095252
  11 H :    0.118986

  Mayer bond orders larger than 0.1
B(  6-C ,  7-O ) :   0.9930 B(  6-C ,  9-H ) :   0.9769 B(  6-C , 10-H ) :   0.9645
B(  6-C , 11-H ) :   0.9720 B(  7-O ,  8-H ) :   0.8891

Dispersion correction           -0.000260124
FINAL SINGLE POINT ENERGY      -115.731034558052

DIPOLE MOMENT
-------------
                                X             Y             Z
Electronic contribution:      0.87950      -0.89070       1.41912
Nuclear contribution   :     -0.57068       1.26814      -1.91110
                        -----------------------------------------
Total Dipole Moment    :      0.30882       0.37744      -0.49198
                        -----------------------------------------
Magnitude (a.u.)       :      0.69273
Magnitude (Debye)      :      1.76078

Rotational constants in cm-1:     4.178446     0.817391     0.793514
Rotational constants in MHz : 125266.663935 24504.762628 23788.945501

                             ****ORCA TERMINATED NORMALLY****
TOTAL RUN TIME: 0 days 0 hours 1 minutes 15 seconds 848 msec
