                         Program Version 4.1.2  - RELEASE  -
|  1> #Run DFT-D3 single point of the dimer
|  2> ! wB97X-D3 def2-TZVP TIGHTSCF CHELPG PMODEL PAL8
|  3>
|  4> %base "2-156_DFT_AB"
|  5>
|  6> %scf
|  7> MaxIter 1000
|  8> end
|  9>
| 10> * xyz 0 1
| 11>   C                      3.522016             3.639850             -5.642399
| 12>   O                      2.143090             3.550942             -6.096599
| 13>   H                      1.805661             2.673086             -5.987223
| 14>   H                      4.273496             3.105135             -6.260099
| 15>   H                      3.856484             4.635359             -5.653615
| 16>   H                      3.616482             3.242243             -4.599402
| 17>   C                      4.786536             1.934053             -9.169567
| 18>   O                      3.636102             1.549809             -9.905349
| 19>   H                      2.858225             2.027964             -9.611746
| 20>   H                      4.635874             2.952364             -8.679359
| 21>   H                      4.943372             1.307683             -8.255062
| 22>   H                      5.692643             1.914924             -9.832662
| 23> *
| 24>
| 25> #Run DFT-D3 single point of the molecule with dimer basis set
| 26> $new_job
| 27> %base "2-156_DFT_A"
| 28> ! wB97X-D3 def2-TZVP TIGHTSCF CHELPG PMODEL
| 29>
| 30> %scf
| 31> MaxIter 1000
| 32> end
| 33>
| 34> * xyz 0 1
| 35>   C                      3.522016             3.639850             -5.642399
| 36>   O                      2.143090             3.550942             -6.096599
| 37>   H                      1.805661             2.673086             -5.987223
| 38>   H                      4.273496             3.105135             -6.260099
| 39>   H                      3.856484             4.635359             -5.653615
| 40>   H                      3.616482             3.242243             -4.599402
| 41>   C                    : 4.786536             1.934053             -9.169567
| 42>   O                    : 3.636102             1.549809             -9.905349
| 43>   H                    : 2.858225             2.027964             -9.611746
| 44>   H                    : 4.635874             2.952364             -8.679359
| 45>   H                    : 4.943372             1.307683             -8.255062
| 46>   H                    : 5.692643             1.914924             -9.832662
| 47> *
| 48>
| 49> #Run DFT-D3 single point of the particle with dimer basis set
| 50> $new_job
| 51> %base "2-156_DFT_B"
| 52> ! wB97X-D3 def2-TZVP TIGHTSCF CHELPG PMODEL
| 53>
| 54> %scf
| 55> MaxIter 1000
| 56> end
| 57>
| 58> * xyz 0 1
| 59>   C                    : 3.522016             3.639850             -5.642399
| 60>   O                    : 2.143090             3.550942             -6.096599
| 61>   H                    : 1.805661             2.673086             -5.987223
| 62>   H                    : 4.273496             3.105135             -6.260099
| 63>   H                    : 3.856484             4.635359             -5.653615
| 64>   H                    : 3.616482             3.242243             -4.599402
| 65>   C                      4.786536             1.934053             -9.169567
| 66>   O                      3.636102             1.549809             -9.905349
| 67>   H                      2.858225             2.027964             -9.611746
| 68>   H                      4.635874             2.952364             -8.679359
| 69>   H                      4.943372             1.307683             -8.255062
| 70>   H                      5.692643             1.914924             -9.832662
| 71> *
| 72>
| 73>                          ****END OF INPUT****
 Total Charge           Charge          ....    0
 Multiplicity           Mult            ....    1
 Number of Electrons    NEL             ....   36
Dispersion correction           -0.001575876
FINAL SINGLE POINT ENERGY      -231.466670689861
Dispersion correction           -0.000278659
FINAL SINGLE POINT ENERGY      -115.733009501267

CARTESIAN COORDINATES (ANGSTROEM)
---------------------------------
  C      3.522016    3.639850   -5.642399
  O      2.143090    3.550942   -6.096599
  H      1.805661    2.673086   -5.987223
  H      4.273496    3.105135   -6.260099
  H      3.856484    4.635359   -5.653615
  H      3.616482    3.242243   -4.599402
  C      4.786536    1.934053   -9.169567
  O      3.636102    1.549809   -9.905349
  H      2.858225    2.027964   -9.611746
  H      4.635874    2.952364   -8.679359
  H      4.943372    1.307683   -8.255062
  H      5.692643    1.914924   -9.832662

 Multiplicity           Mult            ....    1
 Number of Electrons    NEL             ....   18
 Basis Dimension        Dim             ....  172

ORBITAL ENERGIES
----------------

  NO   OCC          E(Eh)            E(eV)
   0   2.0000     -19.230529      -523.2893
   1   2.0000     -10.325215      -280.9634
   2   2.0000      -1.133896       -30.8549
   3   2.0000      -0.789923       -21.4949
   4   2.0000      -0.612942       -16.6790
   5   2.0000      -0.533624       -14.5206
   6   2.0000      -0.523078       -14.2337
   7   2.0000      -0.430603       -11.7173
   8   2.0000      -0.371065       -10.0972
   9   0.0000       0.074808         2.0356
  10   0.0000       0.119881         3.2621
  11   0.0000       0.146064         3.9746
  12   0.0000       0.163139         4.4392
  13   0.0000       0.185000         5.0341

MULLIKEN ATOMIC CHARGES
-----------------------
   0 C :    0.004394
   1 O :   -0.000070
   2 H :   -0.000098
   3 H :   -0.006697
   4 H :   -0.000457
   5 H :   -0.000176
   6 C :   -0.158149
   7 O :   -0.478719
   8 H :    0.318641
   9 H :    0.099391
  10 H :    0.101210
  11 H :    0.120731
Sum of atomic charges:    0.0000000

LOEWDIN ATOMIC CHARGES
----------------------
   0 C :   -0.002472
   1 O :   -0.000070
   2 H :   -0.000093
   3 H :   -0.004279
   4 H :   -0.000091
   5 H :   -0.000015
   6 C :   -0.391573
   7 O :   -0.082775
   8 H :    0.167446
   9 H :    0.103919
  10 H :    0.098480
  11 H :    0.111524

  Mayer bond orders larger than 0.1
B(  6-C ,  7-O ) :   1.0045 B(  6-C ,  9-H ) :   0.9821 B(  6-C , 10-H ) :   0.9686
B(  6-C , 11-H ) :   0.9673 B(  7-O ,  8-H ) :   0.8963

Dispersion correction           -0.000267064
FINAL SINGLE POINT ENERGY      -115.731992666622

DIPOLE MOMENT
-------------
                                X             Y             Z
Electronic contribution:     -1.37756      -0.62563      -1.13650
Nuclear contribution   :      1.31434       1.09969       1.61868
                        -----------------------------------------
Total Dipole Moment    :     -0.06322       0.47406       0.48218
                        -----------------------------------------
Magnitude (a.u.)       :      0.67914
Magnitude (Debye)      :      1.72623

Rotational constants in cm-1:     4.138141     0.818873     0.782380
Rotational constants in MHz : 124058.346873 24549.196007 23455.158226

                             ****ORCA TERMINATED NORMALLY****
TOTAL RUN TIME: 0 days 0 hours 6 minutes 19 seconds 696 msec
