                         Program Version 4.1.2  - RELEASE  -
|  1> #Run DFT-D3 single point of the dimer
|  2> ! wB97X-D3 def2-TZVP TIGHTSCF CHELPG PMODEL PAL8
|  3>
|  4> %base "14-81_DFT_AB"
|  5>
|  6> %scf
|  7> MaxIter 1000
|  8> end
|  9>
| 10> * xyz 0 1
| 11>   C                      -4.858137            8.794378             -2.162719
| 12>   O                      -5.057893            9.023676             -0.762485
| 13>   H                      -4.277961            8.800261             -0.211867
| 14>   H                      -5.459045            7.976104             -2.597022
| 15>   H                      -5.076426            9.725379             -2.688449
| 16>   H                      -3.806476            8.543483             -2.442663
| 17>   C                      -9.205169            6.910443             -3.179025
| 18>   O                      -8.021357            7.648472             -2.983924
| 19>   H                      -8.204361            8.311799             -2.278597
| 20>   H                      -9.929243            7.448107             -3.819191
| 21>   H                      -9.029607            5.992954             -3.755281
| 22>   H                      -9.681577            6.510457             -2.310331
| 23> *
| 24>
| 25> #Run DFT-D3 single point of the molecule with dimer basis set
| 26> $new_job
| 27> %base "14-81_DFT_A"
| 28> ! wB97X-D3 def2-TZVP TIGHTSCF CHELPG PMODEL
| 29>
| 30> %scf
| 31> MaxIter 1000
| 32> end
| 33>
| 34> * xyz 0 1
| 35>   C                      -4.858137            8.794378             -2.162719
| 36>   O                      -5.057893            9.023676             -0.762485
| 37>   H                      -4.277961            8.800261             -0.211867
| 38>   H                      -5.459045            7.976104             -2.597022
| 39>   H                      -5.076426            9.725379             -2.688449
| 40>   H                      -3.806476            8.543483             -2.442663
| 41>   C                    : -9.205169            6.910443             -3.179025
| 42>   O                    : -8.021357            7.648472             -2.983924
| 43>   H                    : -8.204361            8.311799             -2.278597
| 44>   H                    : -9.929243            7.448107             -3.819191
| 45>   H                    : -9.029607            5.992954             -3.755281
| 46>   H                    : -9.681577            6.510457             -2.310331
| 47> *
| 48>
| 49> #Run DFT-D3 single point of the particle with dimer basis set
| 50> $new_job
| 51> %base "14-81_DFT_B"
| 52> ! wB97X-D3 def2-TZVP TIGHTSCF CHELPG PMODEL
| 53>
| 54> %scf
| 55> MaxIter 1000
| 56> end
| 57>
| 58> * xyz 0 1
| 59>   C                    : -4.858137            8.794378             -2.162719
| 60>   O                    : -5.057893            9.023676             -0.762485
| 61>   H                    : -4.277961            8.800261             -0.211867
| 62>   H                    : -5.459045            7.976104             -2.597022
| 63>   H                    : -5.076426            9.725379             -2.688449
| 64>   H                    : -3.806476            8.543483             -2.442663
| 65>   C                      -9.205169            6.910443             -3.179025
| 66>   O                      -8.021357            7.648472             -2.983924
| 67>   H                      -8.204361            8.311799             -2.278597
| 68>   H                      -9.929243            7.448107             -3.819191
| 69>   H                      -9.029607            5.992954             -3.755281
| 70>   H                      -9.681577            6.510457             -2.310331
| 71> *
| 72>
| 73>                          ****END OF INPUT****
 Total Charge           Charge          ....    0
 Multiplicity           Mult            ....    1
 Number of Electrons    NEL             ....   36
Dispersion correction           -0.001436772
FINAL SINGLE POINT ENERGY      -231.468334228444
Dispersion correction           -0.000282954
FINAL SINGLE POINT ENERGY      -115.732789755943

CARTESIAN COORDINATES (ANGSTROEM)
---------------------------------
  C     -4.858137    8.794378   -2.162719
  O     -5.057893    9.023676   -0.762485
  H     -4.277961    8.800261   -0.211867
  H     -5.459045    7.976104   -2.597022
  H     -5.076426    9.725379   -2.688449
  H     -3.806476    8.543483   -2.442663
  C     -9.205169    6.910443   -3.179025
  O     -8.021357    7.648472   -2.983924
  H     -8.204361    8.311799   -2.278597
  H     -9.929243    7.448107   -3.819191
  H     -9.029607    5.992954   -3.755281
  H     -9.681577    6.510457   -2.310331

 Multiplicity           Mult            ....    1
 Number of Electrons    NEL             ....   18
 Basis Dimension        Dim             ....  172

ORBITAL ENERGIES
----------------

  NO   OCC          E(Eh)            E(eV)
   0   2.0000     -19.236796      -523.4598
   1   2.0000     -10.310954      -280.5753
   2   2.0000      -1.135111       -30.8879
   3   2.0000      -0.796908       -21.6850
   4   2.0000      -0.610418       -16.6103
   5   2.0000      -0.543988       -14.8027
   6   2.0000      -0.526210       -14.3189
   7   2.0000      -0.429742       -11.6939
   8   2.0000      -0.376487       -10.2447
   9   0.0000       0.090619         2.4659
  10   0.0000       0.122659         3.3377
  11   0.0000       0.150067         4.0835
  12   0.0000       0.173599         4.7239
  13   0.0000       0.198217         5.3938

MULLIKEN ATOMIC CHARGES
-----------------------
   0 C :    0.001689
   1 O :    0.000063
   2 H :    0.000008
   3 H :   -0.008549
   4 H :   -0.000448
   5 H :   -0.000227
   6 C :   -0.171510
   7 O :   -0.461241
   8 H :    0.319209
   9 H :    0.099254
  10 H :    0.116315
  11 H :    0.105437
Sum of atomic charges:   -0.0000000

LOEWDIN ATOMIC CHARGES
----------------------
   0 C :   -0.005343
   1 O :   -0.000118
   2 H :   -0.000004
   3 H :   -0.009312
   4 H :   -0.000251
   5 H :   -0.000020
   6 C :   -0.400214
   7 O :   -0.069655
   8 H :    0.187813
   9 H :    0.097299
  10 H :    0.109826
  11 H :    0.089977

  Mayer bond orders larger than 0.1
B(  6-C ,  7-O ) :   1.0063 B(  6-C ,  9-H ) :   0.9765 B(  6-C , 10-H ) :   0.9753
B(  6-C , 11-H ) :   0.9720 B(  7-O ,  8-H ) :   0.8924

Dispersion correction           -0.000258001
FINAL SINGLE POINT ENERGY      -115.733101204617

DIPOLE MOMENT
-------------
                                X             Y             Z
Electronic contribution:      1.65113       0.96255       0.28178
Nuclear contribution   :     -2.22920      -0.86798       0.08889
                        -----------------------------------------
Total Dipole Moment    :     -0.57807       0.09457       0.37067
                        -----------------------------------------
Magnitude (a.u.)       :      0.69318
Magnitude (Debye)      :      1.76192

Rotational constants in cm-1:     4.423057     0.820409     0.798532
Rotational constants in MHz : 132599.921700 24595.255861 23939.398037

                             ****ORCA TERMINATED NORMALLY****
TOTAL RUN TIME: 0 days 0 hours 0 minutes 55 seconds 169 msec
