                         Program Version 4.1.2  - RELEASE  -
|  1> #Run DFT-D3 single point of the dimer
|  2> ! wB97X-D3 def2-TZVP TIGHTSCF CHELPG PMODEL PAL8
|  3>
|  4> %base "21-47_DFT_AB"
|  5>
|  6> %scf
|  7> MaxIter 1000
|  8> end
|  9>
| 10> * xyz 0 1
| 11>   C                      -4.571858            -8.509217            7.080362
| 12>   O                      -3.583468            -7.449682            7.394431
| 13>   H                      -3.572475            -6.902586            6.640899
| 14>   H                      -4.180799            -9.176255            6.298429
| 15>   H                      -4.673121            -9.129860            7.950470
| 16>   H                      -5.476760            -8.065264            6.898514
| 17>   C                      -5.919943            -5.264590            5.812033
| 18>   O                      -4.801855            -5.892888            5.255524
| 19>   H                      -5.073147            -6.405763            4.499573
| 20>   H                      -6.574539            -6.058706            6.165626
| 21>   H                      -5.671580            -4.421539            6.542132
| 22>   H                      -6.546800            -4.793408            5.010376
| 23> *
| 24>
| 25> #Run DFT-D3 single point of the molecule with dimer basis set
| 26> $new_job
| 27> %base "21-47_DFT_A"
| 28> ! wB97X-D3 def2-TZVP TIGHTSCF CHELPG PMODEL
| 29>
| 30> %scf
| 31> MaxIter 1000
| 32> end
| 33>
| 34> * xyz 0 1
| 35>   C                      -4.571858            -8.509217            7.080362
| 36>   O                      -3.583468            -7.449682            7.394431
| 37>   H                      -3.572475            -6.902586            6.640899
| 38>   H                      -4.180799            -9.176255            6.298429
| 39>   H                      -4.673121            -9.129860            7.950470
| 40>   H                      -5.476760            -8.065264            6.898514
| 41>   C                    : -5.919943            -5.264590            5.812033
| 42>   O                    : -4.801855            -5.892888            5.255524
| 43>   H                    : -5.073147            -6.405763            4.499573
| 44>   H                    : -6.574539            -6.058706            6.165626
| 45>   H                    : -5.671580            -4.421539            6.542132
| 46>   H                    : -6.546800            -4.793408            5.010376
| 47> *
| 48>
| 49> #Run DFT-D3 single point of the particle with dimer basis set
| 50> $new_job
| 51> %base "21-47_DFT_B"
| 52> ! wB97X-D3 def2-TZVP TIGHTSCF CHELPG PMODEL
| 53>
| 54> %scf
| 55> MaxIter 1000
| 56> end
| 57>
| 58> * xyz 0 1
| 59>   C                    : -4.571858            -8.509217            7.080362
| 60>   O                    : -3.583468            -7.449682            7.394431
| 61>   H                    : -3.572475            -6.902586            6.640899
| 62>   H                    : -4.180799            -9.176255            6.298429
| 63>   H                    : -4.673121            -9.129860            7.950470
| 64>   H                    : -5.476760            -8.065264            6.898514
| 65>   C                      -5.919943            -5.264590            5.812033
| 66>   O                      -4.801855            -5.892888            5.255524
| 67>   H                      -5.073147            -6.405763            4.499573
| 68>   H                      -6.574539            -6.058706            6.165626
| 69>   H                      -5.671580            -4.421539            6.542132
| 70>   H                      -6.546800            -4.793408            5.010376
| 71> *
| 72>
| 73>                          ****END OF INPUT****
 Total Charge           Charge          ....    0
 Multiplicity           Mult            ....    1
 Number of Electrons    NEL             ....   36
Dispersion correction           -0.002272037
FINAL SINGLE POINT ENERGY      -231.466554790737
Dispersion correction           -0.000238914
FINAL SINGLE POINT ENERGY      -115.730161031480

CARTESIAN COORDINATES (ANGSTROEM)
---------------------------------
  C     -4.571858   -8.509217    7.080362
  O     -3.583468   -7.449682    7.394431
  H     -3.572475   -6.902586    6.640899
  H     -4.180799   -9.176255    6.298429
  H     -4.673121   -9.129860    7.950470
  H     -5.476760   -8.065264    6.898514
  C     -5.919943   -5.264590    5.812033
  O     -4.801855   -5.892888    5.255524
  H     -5.073147   -6.405763    4.499573
  H     -6.574539   -6.058706    6.165626
  H     -5.671580   -4.421539    6.542132
  H     -6.546800   -4.793408    5.010376

 Multiplicity           Mult            ....    1
 Number of Electrons    NEL             ....   18
 Basis Dimension        Dim             ....  172

ORBITAL ENERGIES
----------------

  NO   OCC          E(Eh)            E(eV)
   0   2.0000     -19.229123      -523.2510
   1   2.0000     -10.320105      -280.8243
   2   2.0000      -1.143032       -31.1035
   3   2.0000      -0.790576       -21.5127
   4   2.0000      -0.616966       -16.7885
   5   2.0000      -0.546620       -14.8743
   6   2.0000      -0.522664       -14.2224
   7   2.0000      -0.431538       -11.7427
   8   2.0000      -0.368170       -10.0184
   9   0.0000       0.093656         2.5485
  10   0.0000       0.131258         3.5717
  11   0.0000       0.150763         4.1025
  12   0.0000       0.181175         4.9300
  13   0.0000       0.190509         5.1840

MULLIKEN ATOMIC CHARGES
-----------------------
   0 C :   -0.007353
   1 O :    0.001118
   2 H :   -0.004857
   3 H :    0.000051
   4 H :   -0.000729
   5 H :    0.000623
   6 C :   -0.171583
   7 O :   -0.465352
   8 H :    0.316331
   9 H :    0.104826
  10 H :    0.127844
  11 H :    0.099082
Sum of atomic charges:   -0.0000000

LOEWDIN ATOMIC CHARGES
----------------------
   0 C :   -0.012357
   1 O :   -0.004859
   2 H :   -0.028767
   3 H :   -0.000541
   4 H :   -0.000207
   5 H :   -0.004445
   6 C :   -0.401238
   7 O :   -0.028768
   8 H :    0.167576
   9 H :    0.095201
  10 H :    0.120424
  11 H :    0.097981

  Mayer bond orders larger than 0.1
B(  6-C ,  7-O ) :   0.9806 B(  6-C ,  9-H ) :   0.9790 B(  6-C , 10-H ) :   0.9680
B(  6-C , 11-H ) :   0.9772 B(  7-O ,  8-H ) :   0.8946

Dispersion correction           -0.000227489
FINAL SINGLE POINT ENERGY      -115.730027244853

DIPOLE MOMENT
-------------
                                X             Y             Z
Electronic contribution:      1.62294      -0.73181      -0.48665
Nuclear contribution   :     -2.23946       0.66359       0.19406
                        -----------------------------------------
Total Dipole Moment    :     -0.61653      -0.06823      -0.29259
                        -----------------------------------------
Magnitude (a.u.)       :      0.68584
Magnitude (Debye)      :      1.74326

Rotational constants in cm-1:     4.177256     0.848411     0.806880
Rotational constants in MHz : 125230.980225 25434.725880 24189.640746

                             ****ORCA TERMINATED NORMALLY****
TOTAL RUN TIME: 0 days 0 hours 1 minutes 3 seconds 699 msec
