                         Program Version 4.1.2  - RELEASE  -
|  1> #Run DFT-D3 single point of the dimer
|  2> ! wB97X-D3 def2-TZVP TIGHTSCF CHELPG PMODEL PAL8
|  3>
|  4> %base "13-8_DFT_AB"
|  5>
|  6> %scf
|  7> MaxIter 1000
|  8> end
|  9>
| 10> * xyz 0 1
| 11>   C                      -2.257604            -6.993449            -0.918277
| 12>   O                      -2.080523            -8.395982            -0.827367
| 13>   H                      -2.059170            -8.743386            0.111713
| 14>   H                      -1.423130            -6.407729            -0.539471
| 15>   H                      -2.370768            -6.724110            -2.003700
| 16>   H                      -3.147931            -6.621619            -0.383193
| 17>   C                      -5.962459            -8.021586            1.465362
| 18>   O                      -5.627130            -8.082584            2.823401
| 19>   H                      -4.845257            -8.568784            3.022787
| 20>   H                      -5.807610            -9.027297            1.034918
| 21>   H                      -7.024644            -7.824120            1.297368
| 22>   H                      -5.520833            -7.173313            0.824412
| 23> *
| 24>
| 25> #Run DFT-D3 single point of the molecule with dimer basis set
| 26> $new_job
| 27> %base "13-8_DFT_A"
| 28> ! wB97X-D3 def2-TZVP TIGHTSCF CHELPG PMODEL
| 29>
| 30> %scf
| 31> MaxIter 1000
| 32> end
| 33>
| 34> * xyz 0 1
| 35>   C                      -2.257604            -6.993449            -0.918277
| 36>   O                      -2.080523            -8.395982            -0.827367
| 37>   H                      -2.059170            -8.743386            0.111713
| 38>   H                      -1.423130            -6.407729            -0.539471
| 39>   H                      -2.370768            -6.724110            -2.003700
| 40>   H                      -3.147931            -6.621619            -0.383193
| 41>   C                    : -5.962459            -8.021586            1.465362
| 42>   O                    : -5.627130            -8.082584            2.823401
| 43>   H                    : -4.845257            -8.568784            3.022787
| 44>   H                    : -5.807610            -9.027297            1.034918
| 45>   H                    : -7.024644            -7.824120            1.297368
| 46>   H                    : -5.520833            -7.173313            0.824412
| 47> *
| 48>
| 49> #Run DFT-D3 single point of the particle with dimer basis set
| 50> $new_job
| 51> %base "13-8_DFT_B"
| 52> ! wB97X-D3 def2-TZVP TIGHTSCF CHELPG PMODEL
| 53>
| 54> %scf
| 55> MaxIter 1000
| 56> end
| 57>
| 58> * xyz 0 1
| 59>   C                    : -2.257604            -6.993449            -0.918277
| 60>   O                    : -2.080523            -8.395982            -0.827367
| 61>   H                    : -2.059170            -8.743386            0.111713
| 62>   H                    : -1.423130            -6.407729            -0.539471
| 63>   H                    : -2.370768            -6.724110            -2.003700
| 64>   H                    : -3.147931            -6.621619            -0.383193
| 65>   C                      -5.962459            -8.021586            1.465362
| 66>   O                      -5.627130            -8.082584            2.823401
| 67>   H                      -4.845257            -8.568784            3.022787
| 68>   H                      -5.807610            -9.027297            1.034918
| 69>   H                      -7.024644            -7.824120            1.297368
| 70>   H                      -5.520833            -7.173313            0.824412
| 71> *
| 72>
| 73>                          ****END OF INPUT****
 Total Charge           Charge          ....    0
 Multiplicity           Mult            ....    1
 Number of Electrons    NEL             ....   36
Dispersion correction           -0.001257672
FINAL SINGLE POINT ENERGY      -231.462981342695
Dispersion correction           -0.000274567
FINAL SINGLE POINT ENERGY      -115.733845833372

CARTESIAN COORDINATES (ANGSTROEM)
---------------------------------
  C     -2.257604   -6.993449   -0.918277
  O     -2.080523   -8.395982   -0.827367
  H     -2.059170   -8.743386    0.111713
  H     -1.423130   -6.407729   -0.539471
  H     -2.370768   -6.724110   -2.003700
  H     -3.147931   -6.621619   -0.383193
  C     -5.962459   -8.021586    1.465362
  O     -5.627130   -8.082584    2.823401
  H     -4.845257   -8.568784    3.022787
  H     -5.807610   -9.027297    1.034918
  H     -7.024644   -7.824120    1.297368
  H     -5.520833   -7.173313    0.824412

 Multiplicity           Mult            ....    1
 Number of Electrons    NEL             ....   18
 Basis Dimension        Dim             ....  172

ORBITAL ENERGIES
----------------

  NO   OCC          E(Eh)            E(eV)
   0   2.0000     -19.229361      -523.2575
   1   2.0000     -10.320396      -280.8323
   2   2.0000      -1.141036       -31.0492
   3   2.0000      -0.797945       -21.7132
   4   2.0000      -0.615878       -16.7589
   5   2.0000      -0.545568       -14.8457
   6   2.0000      -0.525680       -14.3045
   7   2.0000      -0.418180       -11.3793
   8   2.0000      -0.374359       -10.1868
   9   0.0000       0.080773         2.1979
  10   0.0000       0.119290         3.2460
  11   0.0000       0.147000         4.0001
  12   0.0000       0.161985         4.4078
  13   0.0000       0.190400         5.1811

MULLIKEN ATOMIC CHARGES
-----------------------
   0 C :   -0.001241
   1 O :    0.000062
   2 H :    0.000047
   3 H :   -0.000025
   4 H :    0.000108
   5 H :    0.001375
   6 C :   -0.158357
   7 O :   -0.478920
   8 H :    0.319743
   9 H :    0.102735
  10 H :    0.120126
  11 H :    0.094347
Sum of atomic charges:   -0.0000000

LOEWDIN ATOMIC CHARGES
----------------------
   0 C :   -0.000982
   1 O :   -0.000026
   2 H :   -0.000081
   3 H :   -0.000008
   4 H :   -0.000004
   5 H :   -0.002462
   6 C :   -0.405590
   7 O :   -0.058065
   8 H :    0.157844
   9 H :    0.098986
  10 H :    0.106139
  11 H :    0.104249

  Mayer bond orders larger than 0.1
B(  6-C ,  7-O ) :   1.0082 B(  6-C ,  9-H ) :   0.9875 B(  6-C , 10-H ) :   0.9717
B(  6-C , 11-H ) :   0.9643 B(  7-O ,  8-H ) :   0.8953

Dispersion correction           -0.000274656
FINAL SINGLE POINT ENERGY      -115.728767264688

DIPOLE MOMENT
-------------
                                X             Y             Z
Electronic contribution:      0.44024      -0.01826       1.88085
Nuclear contribution   :     -0.09185      -0.30186      -2.27392
                        -----------------------------------------
Total Dipole Moment    :      0.34839      -0.32012      -0.39307
                        -----------------------------------------
Magnitude (a.u.)       :      0.61511
Magnitude (Debye)      :      1.56349

Rotational constants in cm-1:     4.432379     0.817677     0.798189
Rotational constants in MHz : 132879.384011 24513.324985 23929.089701

                             ****ORCA TERMINATED NORMALLY****
TOTAL RUN TIME: 0 days 0 hours 1 minutes 4 seconds 907 msec
