                         Program Version 4.1.2  - RELEASE  -
|  1> #Run DFT-D3 single point of the dimer
|  2> ! wB97X-D3 def2-TZVP TIGHTSCF CHELPG PMODEL PAL8
|  3>
|  4> %base "2-150_DFT_AB"
|  5>
|  6> %scf
|  7> MaxIter 1000
|  8> end
|  9>
| 10> * xyz 0 1
| 11>   C                      -6.482457            -6.091744            -11.616427
| 12>   O                      -6.748681            -6.186808            -10.242572
| 13>   H                      -6.790137            -5.363731            -9.729532
| 14>   H                      -7.125715            -5.429157            -12.132322
| 15>   H                      -5.530468            -5.572866            -11.775662
| 16>   H                      -6.388227            -7.055093            -12.114680
| 17>   C                      -3.409944            -3.200661            -11.415578
| 18>   O                      -4.520809            -2.517860            -12.061190
| 19>   H                      -5.317092            -3.078029            -11.949362
| 20>   H                      -3.263767            -4.227433            -11.889245
| 21>   H                      -2.511898            -2.596734            -11.319365
| 22>   H                      -3.773420            -3.392380            -10.345352
| 23> *
| 24>
| 25> #Run DFT-D3 single point of the molecule with dimer basis set
| 26> $new_job
| 27> %base "2-150_DFT_A"
| 28> ! wB97X-D3 def2-TZVP TIGHTSCF CHELPG PMODEL
| 29>
| 30> %scf
| 31> MaxIter 1000
| 32> end
| 33>
| 34> * xyz 0 1
| 35>   C                      -6.482457            -6.091744            -11.616427
| 36>   O                      -6.748681            -6.186808            -10.242572
| 37>   H                      -6.790137            -5.363731            -9.729532
| 38>   H                      -7.125715            -5.429157            -12.132322
| 39>   H                      -5.530468            -5.572866            -11.775662
| 40>   H                      -6.388227            -7.055093            -12.114680
| 41>   C                    : -3.409944            -3.200661            -11.415578
| 42>   O                    : -4.520809            -2.517860            -12.061190
| 43>   H                    : -5.317092            -3.078029            -11.949362
| 44>   H                    : -3.263767            -4.227433            -11.889245
| 45>   H                    : -2.511898            -2.596734            -11.319365
| 46>   H                    : -3.773420            -3.392380            -10.345352
| 47> *
| 48>
| 49> #Run DFT-D3 single point of the particle with dimer basis set
| 50> $new_job
| 51> %base "2-150_DFT_B"
| 52> ! wB97X-D3 def2-TZVP TIGHTSCF CHELPG PMODEL
| 53>
| 54> %scf
| 55> MaxIter 1000
| 56> end
| 57>
| 58> * xyz 0 1
| 59>   C                    : -6.482457            -6.091744            -11.616427
| 60>   O                    : -6.748681            -6.186808            -10.242572
| 61>   H                    : -6.790137            -5.363731            -9.729532
| 62>   H                    : -7.125715            -5.429157            -12.132322
| 63>   H                    : -5.530468            -5.572866            -11.775662
| 64>   H                    : -6.388227            -7.055093            -12.114680
| 65>   C                      -3.409944            -3.200661            -11.415578
| 66>   O                      -4.520809            -2.517860            -12.061190
| 67>   H                      -5.317092            -3.078029            -11.949362
| 68>   H                      -3.263767            -4.227433            -11.889245
| 69>   H                      -2.511898            -2.596734            -11.319365
| 70>   H                      -3.773420            -3.392380            -10.345352
| 71> *
| 72>
| 73>                          ****END OF INPUT****
 Total Charge           Charge          ....    0
 Multiplicity           Mult            ....    1
 Number of Electrons    NEL             ....   36
Dispersion correction           -0.001740385
FINAL SINGLE POINT ENERGY      -231.459156883550
Dispersion correction           -0.000252825
FINAL SINGLE POINT ENERGY      -115.729698124158

CARTESIAN COORDINATES (ANGSTROEM)
---------------------------------
  C     -6.482457   -6.091744  -11.616427
  O     -6.748681   -6.186808  -10.242572
  H     -6.790137   -5.363731   -9.729532
  H     -7.125715   -5.429157  -12.132322
  H     -5.530468   -5.572866  -11.775662
  H     -6.388227   -7.055093  -12.114680
  C     -3.409944   -3.200661  -11.415578
  O     -4.520809   -2.517860  -12.061190
  H     -5.317092   -3.078029  -11.949362
  H     -3.263767   -4.227433  -11.889245
  H     -2.511898   -2.596734  -11.319365
  H     -3.773420   -3.392380  -10.345352

 Multiplicity           Mult            ....    1
 Number of Electrons    NEL             ....   18
 Basis Dimension        Dim             ....  172

ORBITAL ENERGIES
----------------

  NO   OCC          E(Eh)            E(eV)
   0   2.0000     -19.230284      -523.2826
   1   2.0000     -10.327585      -281.0279
   2   2.0000      -1.120271       -30.4841
   3   2.0000      -0.788082       -21.4448
   4   2.0000      -0.596507       -16.2318
   5   2.0000      -0.536954       -14.6113
   6   2.0000      -0.523886       -14.2557
   7   2.0000      -0.432621       -11.7722
   8   2.0000      -0.368888       -10.0380
   9   0.0000       0.067314         1.8317
  10   0.0000       0.132794         3.6135
  11   0.0000       0.143829         3.9138
  12   0.0000       0.148659         4.0452
  13   0.0000       0.193066         5.2536

MULLIKEN ATOMIC CHARGES
-----------------------
   0 C :   -0.000840
   1 O :    0.000069
   2 H :   -0.000110
   3 H :   -0.000051
   4 H :   -0.000355
   5 H :   -0.000068
   6 C :   -0.185237
   7 O :   -0.481369
   8 H :    0.317367
   9 H :    0.108645
  10 H :    0.139115
  11 H :    0.102834
Sum of atomic charges:   -0.0000000

LOEWDIN ATOMIC CHARGES
----------------------
   0 C :   -0.002497
   1 O :   -0.000031
   2 H :   -0.000124
   3 H :   -0.000426
   4 H :   -0.002948
   5 H :   -0.000024
   6 C :   -0.365691
   7 O :   -0.120056
   8 H :    0.177207
   9 H :    0.103985
  10 H :    0.106184
  11 H :    0.104422

  Mayer bond orders larger than 0.1
B(  6-C ,  7-O ) :   0.9842 B(  6-C ,  9-H ) :   0.9691 B(  6-C , 10-H ) :   0.9676
B(  6-C , 11-H ) :   0.9845 B(  7-O ,  8-H ) :   0.8994

Dispersion correction           -0.000251561
FINAL SINGLE POINT ENERGY      -115.728937039111

DIPOLE MOMENT
-------------
                                X             Y             Z
Electronic contribution:     -1.09938       1.06471      -0.98662
Nuclear contribution   :      1.06806      -1.67758       1.33527
                        -----------------------------------------
Total Dipole Moment    :     -0.03132      -0.61286       0.34865
                        -----------------------------------------
Magnitude (a.u.)       :      0.70579
Magnitude (Debye)      :      1.79397

Rotational constants in cm-1:     4.021984     0.792669     0.763681
Rotational constants in MHz : 120576.058477 23763.619231 22894.576606

                             ****ORCA TERMINATED NORMALLY****
TOTAL RUN TIME: 0 days 0 hours 6 minutes 22 seconds 340 msec
