                         Program Version 4.1.2  - RELEASE  -
|  1> #Run DFT-D3 single point of the dimer
|  2> ! wB97X-D3 def2-TZVP TIGHTSCF CHELPG PMODEL PAL8
|  3>
|  4> %base "13-150_DFT_AB"
|  5>
|  6> %scf
|  7> MaxIter 1000
|  8> end
|  9>
| 10> * xyz 0 1
| 11>   C                      -7.829633            5.112073             11.001045
| 12>   O                      -8.709947            4.077938             11.202108
| 13>   H                      -9.161039            3.962842             10.362003
| 14>   H                      -7.666366            5.285361             9.906156
| 15>   H                      -8.206770            5.965432             11.478272
| 16>   H                      -6.850857            4.838429             11.396125
| 17>   C                      -10.674539           4.738616             7.763492
| 18>   O                      -10.647703           4.184809             9.080172
| 19>   H                      -11.479660           4.431612             9.425711
| 20>   H                      -10.330515           5.758724             7.683504
| 21>   H                      -9.982586            4.164018             7.128428
| 22>   H                      -11.717842           4.694524             7.415379
| 23> *
| 24>
| 25> #Run DFT-D3 single point of the molecule with dimer basis set
| 26> $new_job
| 27> %base "13-150_DFT_A"
| 28> ! wB97X-D3 def2-TZVP TIGHTSCF CHELPG PMODEL
| 29>
| 30> %scf
| 31> MaxIter 1000
| 32> end
| 33>
| 34> * xyz 0 1
| 35>   C                      -7.829633            5.112073             11.001045
| 36>   O                      -8.709947            4.077938             11.202108
| 37>   H                      -9.161039            3.962842             10.362003
| 38>   H                      -7.666366            5.285361             9.906156
| 39>   H                      -8.206770            5.965432             11.478272
| 40>   H                      -6.850857            4.838429             11.396125
| 41>   C                    : -10.674539           4.738616             7.763492
| 42>   O                    : -10.647703           4.184809             9.080172
| 43>   H                    : -11.479660           4.431612             9.425711
| 44>   H                    : -10.330515           5.758724             7.683504
| 45>   H                    : -9.982586            4.164018             7.128428
| 46>   H                    : -11.717842           4.694524             7.415379
| 47> *
| 48>
| 49> #Run DFT-D3 single point of the particle with dimer basis set
| 50> $new_job
| 51> %base "13-150_DFT_B"
| 52> ! wB97X-D3 def2-TZVP TIGHTSCF CHELPG PMODEL
| 53>
| 54> %scf
| 55> MaxIter 1000
| 56> end
| 57>
| 58> * xyz 0 1
| 59>   C                    : -7.829633            5.112073             11.001045
| 60>   O                    : -8.709947            4.077938             11.202108
| 61>   H                    : -9.161039            3.962842             10.362003
| 62>   H                    : -7.666366            5.285361             9.906156
| 63>   H                    : -8.206770            5.965432             11.478272
| 64>   H                    : -6.850857            4.838429             11.396125
| 65>   C                      -10.674539           4.738616             7.763492
| 66>   O                      -10.647703           4.184809             9.080172
| 67>   H                      -11.479660           4.431612             9.425711
| 68>   H                      -10.330515           5.758724             7.683504
| 69>   H                      -9.982586            4.164018             7.128428
| 70>   H                      -11.717842           4.694524             7.415379
| 71> *
| 72>
| 73>                          ****END OF INPUT****
 Total Charge           Charge          ....    0
 Multiplicity           Mult            ....    1
 Number of Electrons    NEL             ....   36
Dispersion correction           -0.001728734
FINAL SINGLE POINT ENERGY      -231.473535929704
Dispersion correction           -0.000210513
FINAL SINGLE POINT ENERGY      -115.731807225656

CARTESIAN COORDINATES (ANGSTROEM)
---------------------------------
  C     -7.829633    5.112073   11.001045
  O     -8.709947    4.077938   11.202108
  H     -9.161039    3.962842   10.362003
  H     -7.666366    5.285361    9.906156
  H     -8.206770    5.965432   11.478272
  H     -6.850857    4.838429   11.396125
  C    -10.674539    4.738616    7.763492
  O    -10.647703    4.184809    9.080172
  H    -11.479660    4.431612    9.425711
  H    -10.330515    5.758724    7.683504
  H     -9.982586    4.164018    7.128428
  H    -11.717842    4.694524    7.415379

 Multiplicity           Mult            ....    1
 Number of Electrons    NEL             ....   18
 Basis Dimension        Dim             ....  172

ORBITAL ENERGIES
----------------

  NO   OCC          E(Eh)            E(eV)
   0   2.0000     -19.229731      -523.2676
   1   2.0000     -10.315325      -280.6943
   2   2.0000      -1.141573       -31.0638
   3   2.0000      -0.796167       -21.6648
   4   2.0000      -0.612418       -16.6647
   5   2.0000      -0.543585       -14.7917
   6   2.0000      -0.524932       -14.2841
   7   2.0000      -0.442704       -12.0466
   8   2.0000      -0.375246       -10.2110
   9   0.0000       0.097874         2.6633
  10   0.0000       0.125621         3.4183
  11   0.0000       0.153026         4.1641
  12   0.0000       0.191388         5.2079
  13   0.0000       0.198402         5.3988

MULLIKEN ATOMIC CHARGES
-----------------------
   0 C :   -0.002430
   1 O :    0.000516
   2 H :   -0.007656
   3 H :   -0.000449
   4 H :   -0.000173
   5 H :   -0.000305
   6 C :   -0.161194
   7 O :   -0.459707
   8 H :    0.308489
   9 H :    0.104484
  10 H :    0.115494
  11 H :    0.102932
Sum of atomic charges:    0.0000000

LOEWDIN ATOMIC CHARGES
----------------------
   0 C :   -0.004259
   1 O :   -0.005967
   2 H :   -0.039773
   3 H :   -0.000633
   4 H :   -0.000195
   5 H :   -0.000088
   6 C :   -0.370240
   7 O :   -0.032533
   8 H :    0.153444
   9 H :    0.091275
  10 H :    0.108403
  11 H :    0.100566

  Mayer bond orders larger than 0.1
B(  6-C ,  7-O ) :   0.9911 B(  6-C ,  9-H ) :   0.9672 B(  6-C , 10-H ) :   0.9805
B(  6-C , 11-H ) :   0.9835 B(  7-O ,  8-H ) :   0.9073

Dispersion correction           -0.000231993
FINAL SINGLE POINT ENERGY      -115.733659003710

DIPOLE MOMENT
-------------
                                X             Y             Z
Electronic contribution:      0.17186      -0.73536       1.65041
Nuclear contribution   :     -0.71601       1.11100      -1.96640
                        -----------------------------------------
Total Dipole Moment    :     -0.54415       0.37564      -0.31599
                        -----------------------------------------
Magnitude (a.u.)       :      0.73284
Magnitude (Debye)      :      1.86274

Rotational constants in cm-1:     4.282123     0.830899     0.792420
Rotational constants in MHz : 128374.805959 24909.723482 23756.165066

                             ****ORCA TERMINATED NORMALLY****
TOTAL RUN TIME: 0 days 0 hours 1 minutes 9 seconds 240 msec
