                         Program Version 4.1.2  - RELEASE  -
|  1> #Run DFT-D3 single point of the dimer
|  2> ! wB97X-D3 def2-TZVP TIGHTSCF CHELPG PMODEL PAL8
|  3>
|  4> %base "9-208_DFT_AB"
|  5>
|  6> %scf
|  7> MaxIter 1000
|  8> end
|  9>
| 10> * xyz 0 1
| 11>   C                      -9.584029            -10.879007           3.101850
| 12>   O                      -9.518268            -10.243602           4.357320
| 13>   H                      -8.824105            -9.532921            4.371320
| 14>   H                      -8.936374            -11.713604           3.192747
| 15>   H                      -10.482057           -11.308083           2.846617
| 16>   H                      -9.272354            -10.326383           2.251308
| 17>   C                      -6.653174            -7.874248            5.237978
| 18>   O                      -7.979225            -8.104155            4.854656
| 19>   H                      -8.288477            -7.238012            4.502890
| 20>   H                      -6.537435            -6.841876            5.437256
| 21>   H                      -6.311721            -8.503935            6.057070
| 22>   H                      -5.908444            -7.974290            4.460605
| 23> *
| 24>
| 25> #Run DFT-D3 single point of the molecule with dimer basis set
| 26> $new_job
| 27> %base "9-208_DFT_A"
| 28> ! wB97X-D3 def2-TZVP TIGHTSCF CHELPG PMODEL
| 29>
| 30> %scf
| 31> MaxIter 1000
| 32> end
| 33>
| 34> * xyz 0 1
| 35>   C                      -9.584029            -10.879007           3.101850
| 36>   O                      -9.518268            -10.243602           4.357320
| 37>   H                      -8.824105            -9.532921            4.371320
| 38>   H                      -8.936374            -11.713604           3.192747
| 39>   H                      -10.482057           -11.308083           2.846617
| 40>   H                      -9.272354            -10.326383           2.251308
| 41>   C                    : -6.653174            -7.874248            5.237978
| 42>   O                    : -7.979225            -8.104155            4.854656
| 43>   H                    : -8.288477            -7.238012            4.502890
| 44>   H                    : -6.537435            -6.841876            5.437256
| 45>   H                    : -6.311721            -8.503935            6.057070
| 46>   H                    : -5.908444            -7.974290            4.460605
| 47> *
| 48>
| 49> #Run DFT-D3 single point of the particle with dimer basis set
| 50> $new_job
| 51> %base "9-208_DFT_B"
| 52> ! wB97X-D3 def2-TZVP TIGHTSCF CHELPG PMODEL
| 53>
| 54> %scf
| 55> MaxIter 1000
| 56> end
| 57>
| 58> * xyz 0 1
| 59>   C                    : -9.584029            -10.879007           3.101850
| 60>   O                    : -9.518268            -10.243602           4.357320
| 61>   H                    : -8.824105            -9.532921            4.371320
| 62>   H                    : -8.936374            -11.713604           3.192747
| 63>   H                    : -10.482057           -11.308083           2.846617
| 64>   H                    : -9.272354            -10.326383           2.251308
| 65>   C                      -6.653174            -7.874248            5.237978
| 66>   O                      -7.979225            -8.104155            4.854656
| 67>   H                      -8.288477            -7.238012            4.502890
| 68>   H                      -6.537435            -6.841876            5.437256
| 69>   H                      -6.311721            -8.503935            6.057070
| 70>   H                      -5.908444            -7.974290            4.460605
| 71> *
| 72>
| 73>                          ****END OF INPUT****
 Total Charge           Charge          ....    0
 Multiplicity           Mult            ....    1
 Number of Electrons    NEL             ....   36
Dispersion correction           -0.001498395
FINAL SINGLE POINT ENERGY      -231.462371260883
Dispersion correction           -0.000242625
FINAL SINGLE POINT ENERGY      -115.725521694967

CARTESIAN COORDINATES (ANGSTROEM)
---------------------------------
  C     -9.584029  -10.879007    3.101850
  O     -9.518268  -10.243602    4.357320
  H     -8.824105   -9.532921    4.371320
  H     -8.936374  -11.713604    3.192747
  H    -10.482057  -11.308083    2.846617
  H     -9.272354  -10.326383    2.251308
  C     -6.653174   -7.874248    5.237978
  O     -7.979225   -8.104155    4.854656
  H     -8.288477   -7.238012    4.502890
  H     -6.537435   -6.841876    5.437256
  H     -6.311721   -8.503935    6.057070
  H     -5.908444   -7.974290    4.460605

 Multiplicity           Mult            ....    1
 Number of Electrons    NEL             ....   18
 Basis Dimension        Dim             ....  172

ORBITAL ENERGIES
----------------

  NO   OCC          E(Eh)            E(eV)
   0   2.0000     -19.235565      -523.4263
   1   2.0000     -10.306074      -280.4425
   2   2.0000      -1.140182       -31.0259
   3   2.0000      -0.797547       -21.7024
   4   2.0000      -0.619528       -16.8582
   5   2.0000      -0.538457       -14.6522
   6   2.0000      -0.532189       -14.4816
   7   2.0000      -0.440864       -11.9965
   8   2.0000      -0.370298       -10.0763
   9   0.0000       0.097937         2.6650
  10   0.0000       0.118315         3.2195
  11   0.0000       0.153575         4.1790
  12   0.0000       0.193169         5.2564
  13   0.0000       0.204616         5.5679

MULLIKEN ATOMIC CHARGES
-----------------------
   0 C :    0.000554
   1 O :    0.004001
   2 H :   -0.015351
   3 H :   -0.000231
   4 H :   -0.000208
   5 H :   -0.001083
   6 C :   -0.156889
   7 O :   -0.460742
   8 H :    0.318996
   9 H :    0.097858
  10 H :    0.119843
  11 H :    0.093252
Sum of atomic charges:    0.0000000

LOEWDIN ATOMIC CHARGES
----------------------
   0 C :   -0.002232
   1 O :   -0.009828
   2 H :   -0.069095
   3 H :   -0.000047
   4 H :   -0.000044
   5 H :   -0.000427
   6 C :   -0.393418
   7 O :   -0.004635
   8 H :    0.190487
   9 H :    0.091711
  10 H :    0.106470
  11 H :    0.091057

  Mayer bond orders larger than 0.1
B(  6-C ,  7-O ) :   0.9986 B(  6-C ,  9-H ) :   0.9873 B(  6-C , 10-H ) :   0.9790
B(  6-C , 11-H ) :   0.9688 B(  7-O ,  8-H ) :   0.8934

Dispersion correction           -0.000228342
FINAL SINGLE POINT ENERGY      -115.729708396793

DIPOLE MOMENT
-------------
                                X             Y             Z
Electronic contribution:     -1.79483      -0.53649      -0.37332
Nuclear contribution   :      2.11968       1.19865       0.31044
                        -----------------------------------------
Total Dipole Moment    :      0.32485       0.66216      -0.06288
                        -----------------------------------------
Magnitude (a.u.)       :      0.74023
Magnitude (Debye)      :      1.88151

Rotational constants in cm-1:     4.446767     0.852078     0.806352
Rotational constants in MHz : 133310.710025 25544.661200 24173.817041

                             ****ORCA TERMINATED NORMALLY****
TOTAL RUN TIME: 0 days 0 hours 0 minutes 46 seconds 720 msec
