                         Program Version 4.1.2  - RELEASE  -
|  1> #Run DFT-D3 single point of the dimer
|  2> ! wB97X-D3 def2-TZVP TIGHTSCF CHELPG PMODEL PAL8
|  3>
|  4> %base "19-17_DFT_AB"
|  5>
|  6> %scf
|  7> MaxIter 1000
|  8> end
|  9>
| 10> * xyz 0 1
| 11>   C                      -9.485652            9.146111             -9.677231
| 12>   O                      -9.391521            8.246951             -10.803226
| 13>   H                      -8.826788            8.615643             -11.448044
| 14>   H                      -10.273621           8.718987             -9.129059
| 15>   H                      -8.578479            9.239186             -9.109685
| 16>   H                      -9.732555            10.232964            -9.990699
| 17>   C                      -6.191133            7.357023             -10.127040
| 18>   O                      -5.556081            6.152502             -9.916570
| 19>   H                      -4.604800            6.140043             -10.190744
| 20>   H                      -5.849612            8.155357             -9.419515
| 21>   H                      -5.979823            7.767559             -11.139583
| 22>   H                      -7.269978            7.157886             -10.056216
| 23> *
| 24>
| 25> #Run DFT-D3 single point of the molecule with dimer basis set
| 26> $new_job
| 27> %base "19-17_DFT_A"
| 28> ! wB97X-D3 def2-TZVP TIGHTSCF CHELPG PMODEL
| 29>
| 30> %scf
| 31> MaxIter 1000
| 32> end
| 33>
| 34> * xyz 0 1
| 35>   C                      -9.485652            9.146111             -9.677231
| 36>   O                      -9.391521            8.246951             -10.803226
| 37>   H                      -8.826788            8.615643             -11.448044
| 38>   H                      -10.273621           8.718987             -9.129059
| 39>   H                      -8.578479            9.239186             -9.109685
| 40>   H                      -9.732555            10.232964            -9.990699
| 41>   C                    : -6.191133            7.357023             -10.127040
| 42>   O                    : -5.556081            6.152502             -9.916570
| 43>   H                    : -4.604800            6.140043             -10.190744
| 44>   H                    : -5.849612            8.155357             -9.419515
| 45>   H                    : -5.979823            7.767559             -11.139583
| 46>   H                    : -7.269978            7.157886             -10.056216
| 47> *
| 48>
| 49> #Run DFT-D3 single point of the particle with dimer basis set
| 50> $new_job
| 51> %base "19-17_DFT_B"
| 52> ! wB97X-D3 def2-TZVP TIGHTSCF CHELPG PMODEL
| 53>
| 54> %scf
| 55> MaxIter 1000
| 56> end
| 57>
| 58> * xyz 0 1
| 59>   C                    : -9.485652            9.146111             -9.677231
| 60>   O                    : -9.391521            8.246951             -10.803226
| 61>   H                    : -8.826788            8.615643             -11.448044
| 62>   H                    : -10.273621           8.718987             -9.129059
| 63>   H                    : -8.578479            9.239186             -9.109685
| 64>   H                    : -9.732555            10.232964            -9.990699
| 65>   C                      -6.191133            7.357023             -10.127040
| 66>   O                      -5.556081            6.152502             -9.916570
| 67>   H                      -4.604800            6.140043             -10.190744
| 68>   H                      -5.849612            8.155357             -9.419515
| 69>   H                      -5.979823            7.767559             -11.139583
| 70>   H                      -7.269978            7.157886             -10.056216
| 71> *
| 72>
| 73>                          ****END OF INPUT****
 Total Charge           Charge          ....    0
 Multiplicity           Mult            ....    1
 Number of Electrons    NEL             ....   36
Dispersion correction           -0.001883244
FINAL SINGLE POINT ENERGY      -231.466826795097
Dispersion correction           -0.000258399
FINAL SINGLE POINT ENERGY      -115.731913499615

CARTESIAN COORDINATES (ANGSTROEM)
---------------------------------
  C     -9.485652    9.146111   -9.677231
  O     -9.391521    8.246951  -10.803226
  H     -8.826788    8.615643  -11.448044
  H    -10.273621    8.718987   -9.129059
  H     -8.578479    9.239186   -9.109685
  H     -9.732555   10.232964   -9.990699
  C     -6.191133    7.357023  -10.127040
  O     -5.556081    6.152502   -9.916570
  H     -4.604800    6.140043  -10.190744
  H     -5.849612    8.155357   -9.419515
  H     -5.979823    7.767559  -11.139583
  H     -7.269978    7.157886  -10.056216

 Multiplicity           Mult            ....    1
 Number of Electrons    NEL             ....   18
 Basis Dimension        Dim             ....  172

ORBITAL ENERGIES
----------------

  NO   OCC          E(Eh)            E(eV)
   0   2.0000     -19.230303      -523.2832
   1   2.0000     -10.315273      -280.6929
   2   2.0000      -1.138865       -30.9901
   3   2.0000      -0.789816       -21.4920
   4   2.0000      -0.615946       -16.7607
   5   2.0000      -0.539867       -14.6905
   6   2.0000      -0.528848       -14.3907
   7   2.0000      -0.424915       -11.5625
   8   2.0000      -0.368195       -10.0191
   9   0.0000       0.086712         2.3596
  10   0.0000       0.112222         3.0537
  11   0.0000       0.155246         4.2245
  12   0.0000       0.173954         4.7335
  13   0.0000       0.177517         4.8305

MULLIKEN ATOMIC CHARGES
-----------------------
   0 C :   -0.000253
   1 O :   -0.000061
   2 H :   -0.001063
   3 H :    0.000109
   4 H :   -0.000838
   5 H :   -0.000090
   6 C :   -0.146873
   7 O :   -0.479698
   8 H :    0.320037
   9 H :    0.091726
  10 H :    0.091289
  11 H :    0.125716
Sum of atomic charges:   -0.0000000

LOEWDIN ATOMIC CHARGES
----------------------
   0 C :   -0.005247
   1 O :   -0.005002
   2 H :   -0.002817
   3 H :   -0.000089
   4 H :   -0.002363
   5 H :   -0.000043
   6 C :   -0.414000
   7 O :   -0.065417
   8 H :    0.186445
   9 H :    0.096451
  10 H :    0.094982
  11 H :    0.117099

  Mayer bond orders larger than 0.1
B(  6-C ,  7-O ) :   1.0044 B(  6-C ,  9-H ) :   0.9673 B(  6-C , 10-H ) :   0.9767
B(  6-C , 11-H ) :   0.9718 B(  7-O ,  8-H ) :   0.8870

Dispersion correction           -0.000248201
FINAL SINGLE POINT ENERGY      -115.733917500595

DIPOLE MOMENT
-------------
                                X             Y             Z
Electronic contribution:      0.68892      -1.65032       0.36488
Nuclear contribution   :     -0.31615       2.07821      -0.63699
                        -----------------------------------------
Total Dipole Moment    :      0.37278       0.42789      -0.27211
                        -----------------------------------------
Magnitude (a.u.)       :      0.62936
Magnitude (Debye)      :      1.59971

Rotational constants in cm-1:     4.195513     0.857881     0.823743
Rotational constants in MHz : 125778.315056 25718.611216 24695.193312

                             ****ORCA TERMINATED NORMALLY****
TOTAL RUN TIME: 0 days 0 hours 0 minutes 50 seconds 403 msec
