                         Program Version 4.1.2  - RELEASE  -
|  1> #Run DFT-D3 single point of the dimer
|  2> ! wB97X-D3 def2-TZVP TIGHTSCF CHELPG PMODEL PAL8
|  3>
|  4> %base "3-1_DFT_AB"
|  5>
|  6> %scf
|  7> MaxIter 1000
|  8> end
|  9>
| 10> * xyz 0 1
| 11>   C                      -7.942409            -2.379003            -9.459658
| 12>   O                      -7.867683            -3.795945            -9.391160
| 13>   H                      -8.719740            -4.186714            -9.465420
| 14>   H                      -7.748901            -1.924920            -8.467208
| 15>   H                      -7.233413            -1.909138            -10.170256
| 16>   H                      -8.967834            -2.145940            -9.738359
| 17>   C                      -4.944868            -6.379908            -6.736573
| 18>   O                      -6.142319            -5.643729            -6.610150
| 19>   H                      -6.328640            -5.442620            -7.501184
| 20>   H                      -4.130525            -5.985907            -6.044649
| 21>   H                      -5.172011            -7.357734            -6.328079
| 22>   H                      -4.478197            -6.584611            -7.685240
| 23> *
| 24>
| 25> #Run DFT-D3 single point of the molecule with dimer basis set
| 26> $new_job
| 27> %base "3-1_DFT_A"
| 28> ! wB97X-D3 def2-TZVP TIGHTSCF CHELPG PMODEL
| 29>
| 30> %scf
| 31> MaxIter 1000
| 32> end
| 33>
| 34> * xyz 0 1
| 35>   C                      -7.942409            -2.379003            -9.459658
| 36>   O                      -7.867683            -3.795945            -9.391160
| 37>   H                      -8.719740            -4.186714            -9.465420
| 38>   H                      -7.748901            -1.924920            -8.467208
| 39>   H                      -7.233413            -1.909138            -10.170256
| 40>   H                      -8.967834            -2.145940            -9.738359
| 41>   C                    : -4.944868            -6.379908            -6.736573
| 42>   O                    : -6.142319            -5.643729            -6.610150
| 43>   H                    : -6.328640            -5.442620            -7.501184
| 44>   H                    : -4.130525            -5.985907            -6.044649
| 45>   H                    : -5.172011            -7.357734            -6.328079
| 46>   H                    : -4.478197            -6.584611            -7.685240
| 47> *
| 48>
| 49> #Run DFT-D3 single point of the particle with dimer basis set
| 50> $new_job
| 51> %base "3-1_DFT_B"
| 52> ! wB97X-D3 def2-TZVP TIGHTSCF CHELPG PMODEL
| 53>
| 54> %scf
| 55> MaxIter 1000
| 56> end
| 57>
| 58> * xyz 0 1
| 59>   C                    : -7.942409            -2.379003            -9.459658
| 60>   O                    : -7.867683            -3.795945            -9.391160
| 61>   H                    : -8.719740            -4.186714            -9.465420
| 62>   H                    : -7.748901            -1.924920            -8.467208
| 63>   H                    : -7.233413            -1.909138            -10.170256
| 64>   H                    : -8.967834            -2.145940            -9.738359
| 65>   C                      -4.944868            -6.379908            -6.736573
| 66>   O                      -6.142319            -5.643729            -6.610150
| 67>   H                      -6.328640            -5.442620            -7.501184
| 68>   H                      -4.130525            -5.985907            -6.044649
| 69>   H                      -5.172011            -7.357734            -6.328079
| 70>   H                      -4.478197            -6.584611            -7.685240
| 71> *
| 72>
| 73>                          ****END OF INPUT****
 Total Charge           Charge          ....    0
 Multiplicity           Mult            ....    1
 Number of Electrons    NEL             ....   36
Dispersion correction           -0.001063127
FINAL SINGLE POINT ENERGY      -231.463671867848
Dispersion correction           -0.000250608
FINAL SINGLE POINT ENERGY      -115.733225865364

CARTESIAN COORDINATES (ANGSTROEM)
---------------------------------
  C     -7.942409   -2.379003   -9.459658
  O     -7.867683   -3.795945   -9.391160
  H     -8.719740   -4.186714   -9.465420
  H     -7.748901   -1.924920   -8.467208
  H     -7.233413   -1.909138  -10.170256
  H     -8.967834   -2.145940   -9.738359
  C     -4.944868   -6.379908   -6.736573
  O     -6.142319   -5.643729   -6.610150
  H     -6.328640   -5.442620   -7.501184
  H     -4.130525   -5.985907   -6.044649
  H     -5.172011   -7.357734   -6.328079
  H     -4.478197   -6.584611   -7.685240

 Multiplicity           Mult            ....    1
 Number of Electrons    NEL             ....   18
 Basis Dimension        Dim             ....  172

ORBITAL ENERGIES
----------------

  NO   OCC          E(Eh)            E(eV)
   0   2.0000     -19.233809      -523.3785
   1   2.0000     -10.313477      -280.6440
   2   2.0000      -1.149816       -31.2881
   3   2.0000      -0.796018       -21.6607
   4   2.0000      -0.620827       -16.8936
   5   2.0000      -0.533675       -14.5220
   6   2.0000      -0.522307       -14.2127
   7   2.0000      -0.450387       -12.2557
   8   2.0000      -0.371255       -10.1023
   9   0.0000       0.078178         2.1273
  10   0.0000       0.121515         3.3066
  11   0.0000       0.147882         4.0241
  12   0.0000       0.171291         4.6611
  13   0.0000       0.189054         5.1444

MULLIKEN ATOMIC CHARGES
-----------------------
   0 C :   -0.000274
   1 O :   -0.000083
   2 H :   -0.000051
   3 H :   -0.000086
   4 H :    0.000020
   5 H :   -0.000007
   6 C :   -0.192827
   7 O :   -0.448301
   8 H :    0.310158
   9 H :    0.105034
  10 H :    0.110270
  11 H :    0.116146
Sum of atomic charges:    0.0000000

LOEWDIN ATOMIC CHARGES
----------------------
   0 C :   -0.000310
   1 O :   -0.001130
   2 H :   -0.000174
   3 H :   -0.000073
   4 H :   -0.000002
   5 H :   -0.000009
   6 C :   -0.400870
   7 O :   -0.054044
   8 H :    0.154973
   9 H :    0.108702
  10 H :    0.098893
  11 H :    0.094043

  Mayer bond orders larger than 0.1
B(  6-C ,  7-O ) :   1.0126 B(  6-C ,  9-H ) :   0.9755 B(  6-C , 10-H ) :   0.9844
B(  6-C , 11-H ) :   0.9707 B(  7-O ,  8-H ) :   0.9093

Dispersion correction           -0.000252383
FINAL SINGLE POINT ENERGY      -115.726769642328

DIPOLE MOMENT
-------------
                                X             Y             Z
Electronic contribution:     -1.64491       1.08468       0.09622
Nuclear contribution   :      1.96448      -1.25205      -0.73829
                        -----------------------------------------
Total Dipole Moment    :      0.31958      -0.16737      -0.64207
                        -----------------------------------------
Magnitude (a.u.)       :      0.73647
Magnitude (Debye)      :      1.87197

Rotational constants in cm-1:     4.400304     0.832359     0.800224
Rotational constants in MHz : 131917.806377 24953.499390 23990.099253

                             ****ORCA TERMINATED NORMALLY****
TOTAL RUN TIME: 0 days 0 hours 6 minutes 24 seconds 100 msec
