                         Program Version 4.1.2  - RELEASE  -
|  1> #Run DFT-D3 single point of the dimer
|  2> ! wB97X-D3 def2-TZVP TIGHTSCF CHELPG PMODEL PAL8
|  3>
|  4> %base "10-171_DFT_AB"
|  5>
|  6> %scf
|  7> MaxIter 1000
|  8> end
|  9>
| 10> * xyz 0 1
| 11>   C                      11.089585            5.097447             4.611890
| 12>   O                      10.322646            6.224895             4.525903
| 13>   H                      9.858087             6.349834             5.355066
| 14>   H                      12.137140            5.173628             5.015755
| 15>   H                      10.557357            4.253865             5.087310
| 16>   H                      11.324609            4.716682             3.663376
| 17>   C                      9.558170             8.529743             1.949500
| 18>   O                      8.693735             7.594737             2.555653
| 19>   H                      9.183591             7.333835             3.340787
| 20>   H                      9.561195             9.357511             2.582736
| 21>   H                      10.656874            8.230546             1.817094
| 22>   H                      9.300392             8.859835             0.977610
| 23> *
| 24>
| 25> #Run DFT-D3 single point of the molecule with dimer basis set
| 26> $new_job
| 27> %base "10-171_DFT_A"
| 28> ! wB97X-D3 def2-TZVP TIGHTSCF CHELPG PMODEL
| 29>
| 30> %scf
| 31> MaxIter 1000
| 32> end
| 33>
| 34> * xyz 0 1
| 35>   C                      11.089585            5.097447             4.611890
| 36>   O                      10.322646            6.224895             4.525903
| 37>   H                      9.858087             6.349834             5.355066
| 38>   H                      12.137140            5.173628             5.015755
| 39>   H                      10.557357            4.253865             5.087310
| 40>   H                      11.324609            4.716682             3.663376
| 41>   C                    : 9.558170             8.529743             1.949500
| 42>   O                    : 8.693735             7.594737             2.555653
| 43>   H                    : 9.183591             7.333835             3.340787
| 44>   H                    : 9.561195             9.357511             2.582736
| 45>   H                    : 10.656874            8.230546             1.817094
| 46>   H                    : 9.300392             8.859835             0.977610
| 47> *
| 48>
| 49> #Run DFT-D3 single point of the particle with dimer basis set
| 50> $new_job
| 51> %base "10-171_DFT_B"
| 52> ! wB97X-D3 def2-TZVP TIGHTSCF CHELPG PMODEL
| 53>
| 54> %scf
| 55> MaxIter 1000
| 56> end
| 57>
| 58> * xyz 0 1
| 59>   C                    : 11.089585            5.097447             4.611890
| 60>   O                    : 10.322646            6.224895             4.525903
| 61>   H                    : 9.858087             6.349834             5.355066
| 62>   H                    : 12.137140            5.173628             5.015755
| 63>   H                    : 10.557357            4.253865             5.087310
| 64>   H                    : 11.324609            4.716682             3.663376
| 65>   C                      9.558170             8.529743             1.949500
| 66>   O                      8.693735             7.594737             2.555653
| 67>   H                      9.183591             7.333835             3.340787
| 68>   H                      9.561195             9.357511             2.582736
| 69>   H                      10.656874            8.230546             1.817094
| 70>   H                      9.300392             8.859835             0.977610
| 71> *
| 72>
| 73>                          ****END OF INPUT****
 Total Charge           Charge          ....    0
 Multiplicity           Mult            ....    1
 Number of Electrons    NEL             ....   36
Dispersion correction           -0.001591634
FINAL SINGLE POINT ENERGY      -231.464123512878
Dispersion correction           -0.000250598
FINAL SINGLE POINT ENERGY      -115.730286157723

CARTESIAN COORDINATES (ANGSTROEM)
---------------------------------
  C     11.089585    5.097447    4.611890
  O     10.322646    6.224895    4.525903
  H      9.858087    6.349834    5.355066
  H     12.137140    5.173628    5.015755
  H     10.557357    4.253865    5.087310
  H     11.324609    4.716682    3.663376
  C      9.558170    8.529743    1.949500
  O      8.693735    7.594737    2.555653
  H      9.183591    7.333835    3.340787
  H      9.561195    9.357511    2.582736
  H     10.656874    8.230546    1.817094
  H      9.300392    8.859835    0.977610

 Multiplicity           Mult            ....    1
 Number of Electrons    NEL             ....   18
 Basis Dimension        Dim             ....  172

ORBITAL ENERGIES
----------------

  NO   OCC          E(Eh)            E(eV)
   0   2.0000     -19.234823      -523.4062
   1   2.0000     -10.309260      -280.5292
   2   2.0000      -1.142656       -31.0933
   3   2.0000      -0.798916       -21.7396
   4   2.0000      -0.610718       -16.6185
   5   2.0000      -0.551122       -14.9968
   6   2.0000      -0.527712       -14.3598
   7   2.0000      -0.438481       -11.9317
   8   2.0000      -0.373849       -10.1730
   9   0.0000       0.071564         1.9473
  10   0.0000       0.128843         3.5060
  11   0.0000       0.145216         3.9515
  12   0.0000       0.174845         4.7578
  13   0.0000       0.192139         5.2284

MULLIKEN ATOMIC CHARGES
-----------------------
   0 C :   -0.002137
   1 O :   -0.003105
   2 H :   -0.000588
   3 H :   -0.000016
   4 H :    0.000155
   5 H :   -0.000159
   6 C :   -0.174866
   7 O :   -0.458294
   8 H :    0.317104
   9 H :    0.111605
  10 H :    0.091956
  11 H :    0.118345
Sum of atomic charges:    0.0000000

LOEWDIN ATOMIC CHARGES
----------------------
   0 C :   -0.001929
   1 O :   -0.018215
   2 H :   -0.002159
   3 H :   -0.000038
   4 H :   -0.000030
   5 H :   -0.000177
   6 C :   -0.389487
   7 O :   -0.059712
   8 H :    0.182936
   9 H :    0.086344
  10 H :    0.103413
  11 H :    0.099054

  Mayer bond orders larger than 0.1
B(  6-C ,  7-O ) :   0.9924 B(  6-C ,  9-H ) :   0.9907 B(  6-C , 10-H ) :   0.9691
B(  6-C , 11-H ) :   0.9731 B(  7-O ,  8-H ) :   0.9046

Dispersion correction           -0.000230221
FINAL SINGLE POINT ENERGY      -115.727750132334

DIPOLE MOMENT
-------------
                                X             Y             Z
Electronic contribution:     -1.38279      -1.24149       0.61760
Nuclear contribution   :      1.99808       1.46864      -0.37704
                        -----------------------------------------
Total Dipole Moment    :      0.61529       0.22715       0.24056
                        -----------------------------------------
Magnitude (a.u.)       :      0.69861
Magnitude (Debye)      :      1.77572

Rotational constants in cm-1:     4.473459     0.833211     0.802233
Rotational constants in MHz : 134110.940386 24979.034769 24050.354142

                             ****ORCA TERMINATED NORMALLY****
TOTAL RUN TIME: 0 days 0 hours 1 minutes 8 seconds 562 msec
