                         Program Version 4.1.2  - RELEASE  -
|  1> #Run DFT-D3 single point of the dimer
|  2> ! wB97X-D3 def2-TZVP TIGHTSCF CHELPG PMODEL PAL8
|  3>
|  4> %base "7-171_DFT_AB"
|  5>
|  6> %scf
|  7> MaxIter 1000
|  8> end
|  9>
| 10> * xyz 0 1
| 11>   C                      5.394271             -7.391507            6.068928
| 12>   O                      6.338932             -6.613026            5.334504
| 13>   H                      5.890581             -5.838206            4.986211
| 14>   H                      5.228551             -7.017428            7.094204
| 15>   H                      4.454310             -7.434298            5.467661
| 16>   H                      5.557189             -8.465244            6.210366
| 17>   C                      2.928405             -4.897013            3.100463
| 18>   O                      3.763834             -5.370832            4.138863
| 19>   H                      3.540010             -4.773488            4.876151
| 20>   H                      3.055190             -3.814017            3.010638
| 21>   H                      3.178260             -5.289934            2.165220
| 22>   H                      1.860662             -5.090949            3.175196
| 23> *
| 24>
| 25> #Run DFT-D3 single point of the molecule with dimer basis set
| 26> $new_job
| 27> %base "7-171_DFT_A"
| 28> ! wB97X-D3 def2-TZVP TIGHTSCF CHELPG PMODEL
| 29>
| 30> %scf
| 31> MaxIter 1000
| 32> end
| 33>
| 34> * xyz 0 1
| 35>   C                      5.394271             -7.391507            6.068928
| 36>   O                      6.338932             -6.613026            5.334504
| 37>   H                      5.890581             -5.838206            4.986211
| 38>   H                      5.228551             -7.017428            7.094204
| 39>   H                      4.454310             -7.434298            5.467661
| 40>   H                      5.557189             -8.465244            6.210366
| 41>   C                    : 2.928405             -4.897013            3.100463
| 42>   O                    : 3.763834             -5.370832            4.138863
| 43>   H                    : 3.540010             -4.773488            4.876151
| 44>   H                    : 3.055190             -3.814017            3.010638
| 45>   H                    : 3.178260             -5.289934            2.165220
| 46>   H                    : 1.860662             -5.090949            3.175196
| 47> *
| 48>
| 49> #Run DFT-D3 single point of the particle with dimer basis set
| 50> $new_job
| 51> %base "7-171_DFT_B"
| 52> ! wB97X-D3 def2-TZVP TIGHTSCF CHELPG PMODEL
| 53>
| 54> %scf
| 55> MaxIter 1000
| 56> end
| 57>
| 58> * xyz 0 1
| 59>   C                    : 5.394271             -7.391507            6.068928
| 60>   O                    : 6.338932             -6.613026            5.334504
| 61>   H                    : 5.890581             -5.838206            4.986211
| 62>   H                    : 5.228551             -7.017428            7.094204
| 63>   H                    : 4.454310             -7.434298            5.467661
| 64>   H                    : 5.557189             -8.465244            6.210366
| 65>   C                      2.928405             -4.897013            3.100463
| 66>   O                      3.763834             -5.370832            4.138863
| 67>   H                      3.540010             -4.773488            4.876151
| 68>   H                      3.055190             -3.814017            3.010638
| 69>   H                      3.178260             -5.289934            2.165220
| 70>   H                      1.860662             -5.090949            3.175196
| 71> *
| 72>
| 73>                          ****END OF INPUT****
 Total Charge           Charge          ....    0
 Multiplicity           Mult            ....    1
 Number of Electrons    NEL             ....   36
Dispersion correction           -0.001759339
FINAL SINGLE POINT ENERGY      -231.466181066608
Dispersion correction           -0.000262646
FINAL SINGLE POINT ENERGY      -115.729309875240

CARTESIAN COORDINATES (ANGSTROEM)
---------------------------------
  C      5.394271   -7.391507    6.068928
  O      6.338932   -6.613026    5.334504
  H      5.890581   -5.838206    4.986211
  H      5.228551   -7.017428    7.094204
  H      4.454310   -7.434298    5.467661
  H      5.557189   -8.465244    6.210366
  C      2.928405   -4.897013    3.100463
  O      3.763834   -5.370832    4.138863
  H      3.540010   -4.773488    4.876151
  H      3.055190   -3.814017    3.010638
  H      3.178260   -5.289934    2.165220
  H      1.860662   -5.090949    3.175196

 Multiplicity           Mult            ....    1
 Number of Electrons    NEL             ....   18
 Basis Dimension        Dim             ....  172

ORBITAL ENERGIES
----------------

  NO   OCC          E(Eh)            E(eV)
   0   2.0000     -19.237069      -523.4673
   1   2.0000     -10.307749      -280.4881
   2   2.0000      -1.138891       -30.9908
   3   2.0000      -0.800037       -21.7701
   4   2.0000      -0.610186       -16.6040
   5   2.0000      -0.543630       -14.7929
   6   2.0000      -0.532130       -14.4800
   7   2.0000      -0.440510       -11.9869
   8   2.0000      -0.376220       -10.2375
   9   0.0000       0.096728         2.6321
  10   0.0000       0.126033         3.4295
  11   0.0000       0.155408         4.2289
  12   0.0000       0.187451         5.1008
  13   0.0000       0.200514         5.4563

MULLIKEN ATOMIC CHARGES
-----------------------
   0 C :    0.006701
   1 O :    0.001121
   2 H :   -0.010843
   3 H :   -0.000312
   4 H :   -0.012250
   5 H :   -0.000405
   6 C :   -0.175253
   7 O :   -0.449572
   8 H :    0.318467
   9 H :    0.102490
  10 H :    0.118588
  11 H :    0.101269
Sum of atomic charges:   -0.0000000

LOEWDIN ATOMIC CHARGES
----------------------
   0 C :   -0.008857
   1 O :   -0.002158
   2 H :   -0.016970
   3 H :   -0.000136
   4 H :   -0.011002
   5 H :   -0.000049
   6 C :   -0.386377
   7 O :   -0.048131
   8 H :    0.185248
   9 H :    0.097823
  10 H :    0.096324
  11 H :    0.094286

  Mayer bond orders larger than 0.1
B(  6-C ,  7-O ) :   1.0018 B(  6-C ,  9-H ) :   0.9836 B(  6-C , 10-H ) :   0.9801
B(  6-C , 11-H ) :   0.9658 B(  7-O ,  8-H ) :   0.8964

Dispersion correction           -0.000233076
FINAL SINGLE POINT ENERGY      -115.732462762218

DIPOLE MOMENT
-------------
                                X             Y             Z
Electronic contribution:      1.16225      -0.83415       1.27921
Nuclear contribution   :     -1.62438       1.39223      -1.26153
                        -----------------------------------------
Total Dipole Moment    :     -0.46213       0.55808       0.01768
                        -----------------------------------------
Magnitude (a.u.)       :      0.72480
Magnitude (Debye)      :      1.84230

Rotational constants in cm-1:     4.456561     0.830349     0.801183
Rotational constants in MHz : 133604.351014 24893.241857 24018.850842

                             ****ORCA TERMINATED NORMALLY****
TOTAL RUN TIME: 0 days 0 hours 1 minutes 12 seconds 700 msec
