                         Program Version 4.1.2  - RELEASE  -
|  1> #Run DFT-D3 single point of the dimer
|  2> ! wB97X-D3 def2-TZVP TIGHTSCF  CHELPG PAL8
|  3>
|  4> %base "10_charges"
|  5>
|  6> %scf
|  7> MaxIter 1000
|  8> end
|  9> %output
| 10>   Print[ P_Mayer ] 1
| 11>   Print[ P_NatPop ] 1
| 12>   Print[ P_Hirshfeld ] 1
| 13>   Print[ P_Mulliken ] 1
| 14>   Print [ P_Loewdin ] 1
| 15> end
| 16>
| 17> * xyz 0 1
| 18>   C                      -2.477856            -0.919094            -0.874970
| 19>   O                      -3.183796            -2.067968            -0.463526
| 20>   H                      -4.029406            -1.794398            -0.199802
| 21>   H                      -1.463433            -1.176797            -1.236245
| 22>   H                      -2.972257            -0.512421            -1.753897
| 23>   H                      -2.581299            -0.029120            -0.192915
| 24> *
| 25>
| 26>                          ****END OF INPUT****

CARTESIAN COORDINATES (ANGSTROEM)
---------------------------------
  C     -2.477856   -0.919094   -0.874970
  O     -3.183796   -2.067968   -0.463526
  H     -4.029406   -1.794398   -0.199802
  H     -1.463433   -1.176797   -1.236245
  H     -2.972257   -0.512421   -1.753897
  H     -2.581299   -0.029120   -0.192915

 Total Charge           Charge          ....    0
 Multiplicity           Mult            ....    1
 Number of Electrons    NEL             ....   18
 Basis Dimension        Dim             ....   86

ORBITAL ENERGIES
----------------

  NO   OCC          E(Eh)            E(eV)
   0   2.0000     -19.228330      -523.2295
   1   2.0000     -10.317894      -280.7642
   2   2.0000      -1.145541       -31.1718
   3   2.0000      -0.796643       -21.6777
   4   2.0000      -0.620420       -16.8825
   5   2.0000      -0.536346       -14.5947
   6   2.0000      -0.524561       -14.2740
   7   2.0000      -0.442577       -12.0431
   8   2.0000      -0.368105       -10.0167
   9   0.0000       0.116304         3.1648
  10   0.0000       0.155401         4.2287
  11   0.0000       0.198631         5.4050
  12   0.0000       0.201196         5.4748
  13   0.0000       0.231419         6.2972

MULLIKEN ATOMIC CHARGES
-----------------------
   0 C :   -0.167124
   1 O :   -0.464462
   2 H :    0.309207
   3 H :    0.122963
   4 H :    0.098296
   5 H :    0.101121
Sum of atomic charges:   -0.0000000

LOEWDIN ATOMIC CHARGES
----------------------
   0 C :   -0.394928
   1 O :   -0.058080
   2 H :    0.148199
   3 H :    0.113194
   4 H :    0.091434
   5 H :    0.100182

  Mayer bond orders larger than 0.1
B(  0-C ,  1-O ) :   0.9958 B(  0-C ,  3-H ) :   0.9721 B(  0-C ,  4-H ) :   0.9811
B(  0-C ,  5-H ) :   0.9710 B(  1-O ,  2-H ) :   0.9057

Dispersion correction           -0.000234702
FINAL SINGLE POINT ENERGY      -115.729369585173

DIPOLE MOMENT
-------------
                                X             Y             Z
Electronic contribution:     -0.67498      -1.65106       0.64424
Nuclear contribution   :      0.38726       2.27835      -0.67199
                        -----------------------------------------
Total Dipole Moment    :     -0.28771       0.62729      -0.02775
                        -----------------------------------------
Magnitude (a.u.)       :      0.69069
Magnitude (Debye)      :      1.75558

Rotational constants in cm-1:     4.299490     0.841511     0.795122
Rotational constants in MHz : 128895.458296 25227.877850 23837.149957

                             ****ORCA TERMINATED NORMALLY****
TOTAL RUN TIME: 0 days 0 hours 0 minutes 43 seconds 97 msec
