                         Program Version 4.1.2  - RELEASE  -
|  1> #Run DFT-D3 single point of the dimer
|  2> ! wB97X-D3 def2-TZVP TIGHTSCF CHELPG PMODEL PAL8
|  3>
|  4> %base "11-44_DFT_AB"
|  5>
|  6> %scf
|  7> MaxIter 1000
|  8> end
|  9>
| 10> * xyz 0 1
| 11>   C                      -6.809828            -7.466043            3.576054
| 12>   O                      -7.899568            -7.122431            2.761647
| 13>   H                      -8.485116            -6.571884            3.300043
| 14>   H                      -6.140757            -8.235801            3.211368
| 15>   H                      -6.195975            -6.624707            3.804071
| 16>   H                      -7.153628            -7.872314            4.553636
| 17>   C                      -6.310086            -3.926838            1.277740
| 18>   O                      -7.731180            -4.197409            1.454962
| 19>   H                      -7.719201            -4.762087            2.278271
| 20>   H                      -5.742679            -4.812015            0.987931
| 21>   H                      -6.110303            -3.214105            0.491601
| 22>   H                      -5.883718            -3.606113            2.231377
| 23> *
| 24>
| 25> #Run DFT-D3 single point of the molecule with dimer basis set
| 26> $new_job
| 27> %base "11-44_DFT_A"
| 28> ! wB97X-D3 def2-TZVP TIGHTSCF CHELPG PMODEL
| 29>
| 30> %scf
| 31> MaxIter 1000
| 32> end
| 33>
| 34> * xyz 0 1
| 35>   C                      -6.809828            -7.466043            3.576054
| 36>   O                      -7.899568            -7.122431            2.761647
| 37>   H                      -8.485116            -6.571884            3.300043
| 38>   H                      -6.140757            -8.235801            3.211368
| 39>   H                      -6.195975            -6.624707            3.804071
| 40>   H                      -7.153628            -7.872314            4.553636
| 41>   C                    : -6.310086            -3.926838            1.277740
| 42>   O                    : -7.731180            -4.197409            1.454962
| 43>   H                    : -7.719201            -4.762087            2.278271
| 44>   H                    : -5.742679            -4.812015            0.987931
| 45>   H                    : -6.110303            -3.214105            0.491601
| 46>   H                    : -5.883718            -3.606113            2.231377
| 47> *
| 48>
| 49> #Run DFT-D3 single point of the particle with dimer basis set
| 50> $new_job
| 51> %base "11-44_DFT_B"
| 52> ! wB97X-D3 def2-TZVP TIGHTSCF CHELPG PMODEL
| 53>
| 54> %scf
| 55> MaxIter 1000
| 56> end
| 57>
| 58> * xyz 0 1
| 59>   C                    : -6.809828            -7.466043            3.576054
| 60>   O                    : -7.899568            -7.122431            2.761647
| 61>   H                    : -8.485116            -6.571884            3.300043
| 62>   H                    : -6.140757            -8.235801            3.211368
| 63>   H                    : -6.195975            -6.624707            3.804071
| 64>   H                    : -7.153628            -7.872314            4.553636
| 65>   C                      -6.310086            -3.926838            1.277740
| 66>   O                      -7.731180            -4.197409            1.454962
| 67>   H                      -7.719201            -4.762087            2.278271
| 68>   H                      -5.742679            -4.812015            0.987931
| 69>   H                      -6.110303            -3.214105            0.491601
| 70>   H                      -5.883718            -3.606113            2.231377
| 71> *
| 72>
| 73>                          ****END OF INPUT****
 Total Charge           Charge          ....    0
 Multiplicity           Mult            ....    1
 Number of Electrons    NEL             ....   36
Dispersion correction           -0.001849716
FINAL SINGLE POINT ENERGY      -231.466237365405
Dispersion correction           -0.000234372
FINAL SINGLE POINT ENERGY      -115.733761378916

CARTESIAN COORDINATES (ANGSTROEM)
---------------------------------
  C     -6.809828   -7.466043    3.576054
  O     -7.899568   -7.122431    2.761647
  H     -8.485116   -6.571884    3.300043
  H     -6.140757   -8.235801    3.211368
  H     -6.195975   -6.624707    3.804071
  H     -7.153628   -7.872314    4.553636
  C     -6.310086   -3.926838    1.277740
  O     -7.731180   -4.197409    1.454962
  H     -7.719201   -4.762087    2.278271
  H     -5.742679   -4.812015    0.987931
  H     -6.110303   -3.214105    0.491601
  H     -5.883718   -3.606113    2.231377

 Multiplicity           Mult            ....    1
 Number of Electrons    NEL             ....   18
 Basis Dimension        Dim             ....  172

ORBITAL ENERGIES
----------------

  NO   OCC          E(Eh)            E(eV)
   0   2.0000     -19.236992      -523.4652
   1   2.0000     -10.315181      -280.6904
   2   2.0000      -1.121129       -30.5075
   3   2.0000      -0.794963       -21.6320
   4   2.0000      -0.599188       -16.3047
   5   2.0000      -0.537013       -14.6129
   6   2.0000      -0.522847       -14.2274
   7   2.0000      -0.445074       -12.1111
   8   2.0000      -0.374140       -10.1809
   9   0.0000       0.067976         1.8497
  10   0.0000       0.131240         3.5712
  11   0.0000       0.139143         3.7863
  12   0.0000       0.177311         4.8249
  13   0.0000       0.182604         4.9689

MULLIKEN ATOMIC CHARGES
-----------------------
   0 C :   -0.001856
   1 O :   -0.002004
   2 H :   -0.000574
   3 H :   -0.000035
   4 H :   -0.000013
   5 H :    0.000030
   6 C :   -0.189808
   7 O :   -0.466366
   8 H :    0.315430
   9 H :    0.108518
  10 H :    0.128087
  11 H :    0.108590
Sum of atomic charges:   -0.0000000

LOEWDIN ATOMIC CHARGES
----------------------
   0 C :   -0.002516
   1 O :   -0.006322
   2 H :   -0.003726
   3 H :   -0.000035
   4 H :   -0.000586
   5 H :   -0.000017
   6 C :   -0.361406
   7 O :   -0.115081
   8 H :    0.193294
   9 H :    0.094787
  10 H :    0.105138
  11 H :    0.096471

  Mayer bond orders larger than 0.1
B(  6-C ,  7-O ) :   0.9980 B(  6-C ,  9-H ) :   0.9694 B(  6-C , 10-H ) :   0.9738
B(  6-C , 11-H ) :   0.9838 B(  7-O ,  8-H ) :   0.9005

Dispersion correction           -0.000242000
FINAL SINGLE POINT ENERGY      -115.732195630561

DIPOLE MOMENT
-------------
                                X             Y             Z
Electronic contribution:     -1.87933      -0.16295       0.01882
Nuclear contribution   :      2.47561      -0.05809       0.38908
                        -----------------------------------------
Total Dipole Moment    :      0.59627      -0.22105       0.40789
                        -----------------------------------------
Magnitude (a.u.)       :      0.75550
Magnitude (Debye)      :      1.92033

Rotational constants in cm-1:     4.241668     0.797868     0.761923
Rotational constants in MHz : 127162.016959 23919.478703 22841.875922

                             ****ORCA TERMINATED NORMALLY****
TOTAL RUN TIME: 0 days 0 hours 1 minutes 9 seconds 408 msec
