                         Program Version 4.1.2  - RELEASE  -
|  1> #Run DFT-D3 single point of the dimer
|  2> ! wB97X-D3 def2-TZVP TIGHTSCF CHELPG PMODEL PAL8
|  3>
|  4> %base "20-194_DFT_AB"
|  5>
|  6> %scf
|  7> MaxIter 1000
|  8> end
|  9>
| 10> * xyz 0 1
| 11>   C                      -4.753666            2.997404             7.359859
| 12>   O                      -4.275709            4.107133             6.683067
| 13>   H                      -3.688542            3.841056             6.004916
| 14>   H                      -3.868321            2.308237             7.551418
| 15>   H                      -4.909387            3.226133             8.429224
| 16>   H                      -5.680894            2.545239             6.906451
| 17>   C                      -0.951433            5.290424             5.804685
| 18>   O                      -2.165011            5.068943             5.047114
| 19>   H                      -2.451916            5.919018             4.731868
| 20>   H                      -1.152294            6.019029             6.526219
| 21>   H                      -0.582023            4.346872             6.325513
| 22>   H                      -0.158983            5.659910             5.179873
| 23> *
| 24>
| 25> #Run DFT-D3 single point of the molecule with dimer basis set
| 26> $new_job
| 27> %base "20-194_DFT_A"
| 28> ! wB97X-D3 def2-TZVP TIGHTSCF CHELPG PMODEL
| 29>
| 30> %scf
| 31> MaxIter 1000
| 32> end
| 33>
| 34> * xyz 0 1
| 35>   C                      -4.753666            2.997404             7.359859
| 36>   O                      -4.275709            4.107133             6.683067
| 37>   H                      -3.688542            3.841056             6.004916
| 38>   H                      -3.868321            2.308237             7.551418
| 39>   H                      -4.909387            3.226133             8.429224
| 40>   H                      -5.680894            2.545239             6.906451
| 41>   C                    : -0.951433            5.290424             5.804685
| 42>   O                    : -2.165011            5.068943             5.047114
| 43>   H                    : -2.451916            5.919018             4.731868
| 44>   H                    : -1.152294            6.019029             6.526219
| 45>   H                    : -0.582023            4.346872             6.325513
| 46>   H                    : -0.158983            5.659910             5.179873
| 47> *
| 48>
| 49> #Run DFT-D3 single point of the particle with dimer basis set
| 50> $new_job
| 51> %base "20-194_DFT_B"
| 52> ! wB97X-D3 def2-TZVP TIGHTSCF CHELPG PMODEL
| 53>
| 54> %scf
| 55> MaxIter 1000
| 56> end
| 57>
| 58> * xyz 0 1
| 59>   C                    : -4.753666            2.997404             7.359859
| 60>   O                    : -4.275709            4.107133             6.683067
| 61>   H                    : -3.688542            3.841056             6.004916
| 62>   H                    : -3.868321            2.308237             7.551418
| 63>   H                    : -4.909387            3.226133             8.429224
| 64>   H                    : -5.680894            2.545239             6.906451
| 65>   C                      -0.951433            5.290424             5.804685
| 66>   O                      -2.165011            5.068943             5.047114
| 67>   H                      -2.451916            5.919018             4.731868
| 68>   H                      -1.152294            6.019029             6.526219
| 69>   H                      -0.582023            4.346872             6.325513
| 70>   H                      -0.158983            5.659910             5.179873
| 71> *
| 72>
| 73>                          ****END OF INPUT****
 Total Charge           Charge          ....    0
 Multiplicity           Mult            ....    1
 Number of Electrons    NEL             ....   36
Dispersion correction           -0.001577332
FINAL SINGLE POINT ENERGY      -231.465543083751
Dispersion correction           -0.000247230
FINAL SINGLE POINT ENERGY      -115.727885211842

CARTESIAN COORDINATES (ANGSTROEM)
---------------------------------
  C     -4.753666    2.997404    7.359859
  O     -4.275709    4.107133    6.683067
  H     -3.688542    3.841056    6.004916
  H     -3.868321    2.308237    7.551418
  H     -4.909387    3.226133    8.429224
  H     -5.680894    2.545239    6.906451
  C     -0.951433    5.290424    5.804685
  O     -2.165011    5.068943    5.047114
  H     -2.451916    5.919018    4.731868
  H     -1.152294    6.019029    6.526219
  H     -0.582023    4.346872    6.325513
  H     -0.158983    5.659910    5.179873

 Multiplicity           Mult            ....    1
 Number of Electrons    NEL             ....   18
 Basis Dimension        Dim             ....  172

ORBITAL ENERGIES
----------------

  NO   OCC          E(Eh)            E(eV)
   0   2.0000     -19.228532      -523.2350
   1   2.0000     -10.313765      -280.6518
   2   2.0000      -1.128519       -30.7086
   3   2.0000      -0.799056       -21.7434
   4   2.0000      -0.606678       -16.5085
   5   2.0000      -0.544936       -14.8285
   6   2.0000      -0.522021       -14.2049
   7   2.0000      -0.436202       -11.8697
   8   2.0000      -0.375311       -10.2127
   9   0.0000       0.097137         2.6432
  10   0.0000       0.120717         3.2849
  11   0.0000       0.150642         4.0992
  12   0.0000       0.188102         5.1185
  13   0.0000       0.201763         5.4902

MULLIKEN ATOMIC CHARGES
-----------------------
   0 C :   -0.000419
   1 O :   -0.001413
   2 H :   -0.008068
   3 H :    0.000034
   4 H :    0.000046
   5 H :   -0.000035
   6 C :   -0.171675
   7 O :   -0.476471
   8 H :    0.310841
   9 H :    0.115333
  10 H :    0.121771
  11 H :    0.110058
Sum of atomic charges:   -0.0000000

LOEWDIN ATOMIC CHARGES
----------------------
   0 C :   -0.000735
   1 O :   -0.010323
   2 H :   -0.025952
   3 H :   -0.000033
   4 H :   -0.000018
   5 H :   -0.000019
   6 C :   -0.354642
   7 O :   -0.068153
   8 H :    0.160513
   9 H :    0.086175
  10 H :    0.120046
  11 H :    0.093141

  Mayer bond orders larger than 0.1
B(  6-C ,  7-O ) :   0.9746 B(  6-C ,  9-H ) :   0.9819 B(  6-C , 10-H ) :   0.9732
B(  6-C , 11-H ) :   0.9703 B(  7-O ,  8-H ) :   0.9009

Dispersion correction           -0.000237628
FINAL SINGLE POINT ENERGY      -115.732276851537

DIPOLE MOMENT
-------------
                                X             Y             Z
Electronic contribution:     -1.47943      -0.40038      -0.91489
Nuclear contribution   :      1.82280       1.05527       1.04075
                        -----------------------------------------
Total Dipole Moment    :      0.34336       0.65489       0.12586
                        -----------------------------------------
Magnitude (a.u.)       :      0.75008
Magnitude (Debye)      :      1.90655

Rotational constants in cm-1:     4.357247     0.805425     0.771694
Rotational constants in MHz : 130626.970432 24146.031375 23134.798248

                             ****ORCA TERMINATED NORMALLY****
TOTAL RUN TIME: 0 days 0 hours 1 minutes 8 seconds 706 msec
