                         Program Version 4.1.2  - RELEASE  -
|  1> #Run DFT-D3 single point of the dimer
|  2> ! wB97X-D3 def2-TZVP TIGHTSCF CHELPG PMODEL PAL8
|  3>
|  4> %base "14-15_DFT_AB"
|  5>
|  6> %scf
|  7> MaxIter 1000
|  8> end
|  9>
| 10> * xyz 0 1
| 11>   C                      -9.672709            4.006744             2.552932
| 12>   O                      -10.300829           4.988320             3.368327
| 13>   H                      -10.582800           4.429678             4.110281
| 14>   H                      -10.532027           3.583830             1.937451
| 15>   H                      -9.091793            4.425824             1.762786
| 16>   H                      -9.184682            3.240365             3.147805
| 17>   C                      -8.821175            7.708635             4.827708
| 18>   O                      -9.694254            6.956214             5.624121
| 19>   H                      -9.914970            6.093896             5.191670
| 20>   H                      -9.081705            7.505497             3.747973
| 21>   H                      -8.759450            8.770394             5.021524
| 22>   H                      -7.757851            7.402679             4.889998
| 23> *
| 24>
| 25> #Run DFT-D3 single point of the molecule with dimer basis set
| 26> $new_job
| 27> %base "14-15_DFT_A"
| 28> ! wB97X-D3 def2-TZVP TIGHTSCF CHELPG PMODEL
| 29>
| 30> %scf
| 31> MaxIter 1000
| 32> end
| 33>
| 34> * xyz 0 1
| 35>   C                      -9.672709            4.006744             2.552932
| 36>   O                      -10.300829           4.988320             3.368327
| 37>   H                      -10.582800           4.429678             4.110281
| 38>   H                      -10.532027           3.583830             1.937451
| 39>   H                      -9.091793            4.425824             1.762786
| 40>   H                      -9.184682            3.240365             3.147805
| 41>   C                    : -8.821175            7.708635             4.827708
| 42>   O                    : -9.694254            6.956214             5.624121
| 43>   H                    : -9.914970            6.093896             5.191670
| 44>   H                    : -9.081705            7.505497             3.747973
| 45>   H                    : -8.759450            8.770394             5.021524
| 46>   H                    : -7.757851            7.402679             4.889998
| 47> *
| 48>
| 49> #Run DFT-D3 single point of the particle with dimer basis set
| 50> $new_job
| 51> %base "14-15_DFT_B"
| 52> ! wB97X-D3 def2-TZVP TIGHTSCF CHELPG PMODEL
| 53>
| 54> %scf
| 55> MaxIter 1000
| 56> end
| 57>
| 58> * xyz 0 1
| 59>   C                    : -9.672709            4.006744             2.552932
| 60>   O                    : -10.300829           4.988320             3.368327
| 61>   H                    : -10.582800           4.429678             4.110281
| 62>   H                    : -10.532027           3.583830             1.937451
| 63>   H                    : -9.091793            4.425824             1.762786
| 64>   H                    : -9.184682            3.240365             3.147805
| 65>   C                      -8.821175            7.708635             4.827708
| 66>   O                      -9.694254            6.956214             5.624121
| 67>   H                      -9.914970            6.093896             5.191670
| 68>   H                      -9.081705            7.505497             3.747973
| 69>   H                      -8.759450            8.770394             5.021524
| 70>   H                      -7.757851            7.402679             4.889998
| 71> *
| 72>
| 73>                          ****END OF INPUT****
 Total Charge           Charge          ....    0
 Multiplicity           Mult            ....    1
 Number of Electrons    NEL             ....   36
Dispersion correction           -0.001733585
FINAL SINGLE POINT ENERGY      -231.461702235222
Dispersion correction           -0.000215645
FINAL SINGLE POINT ENERGY      -115.727809178055

CARTESIAN COORDINATES (ANGSTROEM)
---------------------------------
  C     -9.672709    4.006744    2.552932
  O    -10.300829    4.988320    3.368327
  H    -10.582800    4.429678    4.110281
  H    -10.532027    3.583830    1.937451
  H     -9.091793    4.425824    1.762786
  H     -9.184682    3.240365    3.147805
  C     -8.821175    7.708635    4.827708
  O     -9.694254    6.956214    5.624121
  H     -9.914970    6.093896    5.191670
  H     -9.081705    7.505497    3.747973
  H     -8.759450    8.770394    5.021524
  H     -7.757851    7.402679    4.889998

 Multiplicity           Mult            ....    1
 Number of Electrons    NEL             ....   18
 Basis Dimension        Dim             ....  172

ORBITAL ENERGIES
----------------

  NO   OCC          E(Eh)            E(eV)
   0   2.0000     -19.234844      -523.4067
   1   2.0000     -10.316696      -280.7316
   2   2.0000      -1.134744       -30.8780
   3   2.0000      -0.793072       -21.5806
   4   2.0000      -0.612241       -16.6599
   5   2.0000      -0.542588       -14.7646
   6   2.0000      -0.528078       -14.3697
   7   2.0000      -0.428145       -11.6504
   8   2.0000      -0.368910       -10.0386
   9   0.0000       0.067121         1.8265
  10   0.0000       0.126495         3.4421
  11   0.0000       0.139763         3.8032
  12   0.0000       0.177407         4.8275
  13   0.0000       0.189354         5.1526

MULLIKEN ATOMIC CHARGES
-----------------------
   0 C :   -0.000002
   1 O :   -0.004062
   2 H :   -0.000949
   3 H :   -0.000005
   4 H :   -0.000199
   5 H :   -0.000015
   6 C :   -0.174754
   7 O :   -0.472854
   8 H :    0.327470
   9 H :    0.098662
  10 H :    0.129255
  11 H :    0.097453
Sum of atomic charges:   -0.0000000

LOEWDIN ATOMIC CHARGES
----------------------
   0 C :   -0.001140
   1 O :   -0.011813
   2 H :   -0.004327
   3 H :   -0.000025
   4 H :   -0.000092
   5 H :   -0.000036
   6 C :   -0.403607
   7 O :   -0.073158
   8 H :    0.194515
   9 H :    0.101095
  10 H :    0.104114
  11 H :    0.094475

  Mayer bond orders larger than 0.1
B(  6-C ,  7-O ) :   0.9960 B(  6-C ,  9-H ) :   0.9872 B(  6-C , 10-H ) :   0.9697
B(  6-C , 11-H ) :   0.9720 B(  7-O ,  8-H ) :   0.8916

Dispersion correction           -0.000254043
FINAL SINGLE POINT ENERGY      -115.730081276115

DIPOLE MOMENT
-------------
                                X             Y             Z
Electronic contribution:     -1.24437      -0.78012       1.29009
Nuclear contribution   :      1.44156       0.53376      -1.86317
                        -----------------------------------------
Total Dipole Moment    :      0.19720      -0.24636      -0.57308
                        -----------------------------------------
Magnitude (a.u.)       :      0.65421
Magnitude (Debye)      :      1.66288

Rotational constants in cm-1:     4.337493     0.831303     0.793163
Rotational constants in MHz : 130034.769898 24921.847703 23778.423990

                             ****ORCA TERMINATED NORMALLY****
TOTAL RUN TIME: 0 days 0 hours 1 minutes 9 seconds 614 msec
