                         Program Version 4.1.2  - RELEASE  -
|  1> #Run DFT-D3 single point of the dimer
|  2> ! wB97X-D3 def2-TZVP TIGHTSCF CHELPG PMODEL PAL8
|  3>
|  4> %base "20-215_DFT_AB"
|  5>
|  6> %scf
|  7> MaxIter 1000
|  8> end
|  9>
| 10> * xyz 0 1
| 11>   C                      5.737814             -6.792202            4.012589
| 12>   O                      4.642197             -7.192453            3.223775
| 13>   H                      3.849765             -6.864474            3.676815
| 14>   H                      6.603623             -7.244640            3.633068
| 15>   H                      5.796332             -5.719068            4.113003
| 16>   H                      5.644942             -7.132266            5.028861
| 17>   C                      1.310005             -5.374597            1.050134
| 18>   O                      2.401512             -6.320147            0.794165
| 19>   H                      2.409136             -7.072881            1.458004
| 20>   H                      0.288380             -5.856881            0.838766
| 21>   H                      1.226147             -4.946307            2.050724
| 22>   H                      1.364170             -4.525090            0.270397
| 23> *
| 24>
| 25> #Run DFT-D3 single point of the molecule with dimer basis set
| 26> $new_job
| 27> %base "20-215_DFT_A"
| 28> ! wB97X-D3 def2-TZVP TIGHTSCF CHELPG PMODEL
| 29>
| 30> %scf
| 31> MaxIter 1000
| 32> end
| 33>
| 34> * xyz 0 1
| 35>   C                      5.737814             -6.792202            4.012589
| 36>   O                      4.642197             -7.192453            3.223775
| 37>   H                      3.849765             -6.864474            3.676815
| 38>   H                      6.603623             -7.244640            3.633068
| 39>   H                      5.796332             -5.719068            4.113003
| 40>   H                      5.644942             -7.132266            5.028861
| 41>   C                    : 1.310005             -5.374597            1.050134
| 42>   O                    : 2.401512             -6.320147            0.794165
| 43>   H                    : 2.409136             -7.072881            1.458004
| 44>   H                    : 0.288380             -5.856881            0.838766
| 45>   H                    : 1.226147             -4.946307            2.050724
| 46>   H                    : 1.364170             -4.525090            0.270397
| 47> *
| 48>
| 49> #Run DFT-D3 single point of the particle with dimer basis set
| 50> $new_job
| 51> %base "20-215_DFT_B"
| 52> ! wB97X-D3 def2-TZVP TIGHTSCF CHELPG PMODEL
| 53>
| 54> %scf
| 55> MaxIter 1000
| 56> end
| 57>
| 58> * xyz 0 1
| 59>   C                    : 5.737814             -6.792202            4.012589
| 60>   O                    : 4.642197             -7.192453            3.223775
| 61>   H                    : 3.849765             -6.864474            3.676815
| 62>   H                    : 6.603623             -7.244640            3.633068
| 63>   H                    : 5.796332             -5.719068            4.113003
| 64>   H                    : 5.644942             -7.132266            5.028861
| 65>   C                      1.310005             -5.374597            1.050134
| 66>   O                      2.401512             -6.320147            0.794165
| 67>   H                      2.409136             -7.072881            1.458004
| 68>   H                      0.288380             -5.856881            0.838766
| 69>   H                      1.226147             -4.946307            2.050724
| 70>   H                      1.364170             -4.525090            0.270397
| 71> *
| 72>
| 73>                          ****END OF INPUT****
 Total Charge           Charge          ....    0
 Multiplicity           Mult            ....    1
 Number of Electrons    NEL             ....   36
Dispersion correction           -0.001293763
FINAL SINGLE POINT ENERGY      -231.461349015314
Dispersion correction           -0.000217905
FINAL SINGLE POINT ENERGY      -115.734286856334

CARTESIAN COORDINATES (ANGSTROEM)
---------------------------------
  C      5.737814   -6.792202    4.012589
  O      4.642197   -7.192453    3.223775
  H      3.849765   -6.864474    3.676815
  H      6.603623   -7.244640    3.633068
  H      5.796332   -5.719068    4.113003
  H      5.644942   -7.132266    5.028861
  C      1.310005   -5.374597    1.050134
  O      2.401512   -6.320147    0.794165
  H      2.409136   -7.072881    1.458004
  H      0.288380   -5.856881    0.838766
  H      1.226147   -4.946307    2.050724
  H      1.364170   -4.525090    0.270397

 Multiplicity           Mult            ....    1
 Number of Electrons    NEL             ....   18
 Basis Dimension        Dim             ....  172

ORBITAL ENERGIES
----------------

  NO   OCC          E(Eh)            E(eV)
   0   2.0000     -19.237802      -523.4872
   1   2.0000     -10.330614      -281.1103
   2   2.0000      -1.112880       -30.2830
   3   2.0000      -0.788912       -21.4674
   4   2.0000      -0.600490       -16.3402
   5   2.0000      -0.526731       -14.3331
   6   2.0000      -0.513440       -13.9714
   7   2.0000      -0.432446       -11.7675
   8   2.0000      -0.374821       -10.1994
   9   0.0000       0.081282         2.2118
  10   0.0000       0.115951         3.1552
  11   0.0000       0.140285         3.8173
  12   0.0000       0.178715         4.8631
  13   0.0000       0.191391         5.2080

MULLIKEN ATOMIC CHARGES
-----------------------
   0 C :   -0.000141
   1 O :   -0.001296
   2 H :   -0.003314
   3 H :    0.000112
   4 H :   -0.000127
   5 H :   -0.000027
   6 C :   -0.179534
   7 O :   -0.483244
   8 H :    0.320392
   9 H :    0.104340
  10 H :    0.116653
  11 H :    0.126187
Sum of atomic charges:    0.0000000

LOEWDIN ATOMIC CHARGES
----------------------
   0 C :   -0.000312
   1 O :   -0.002936
   2 H :   -0.002777
   3 H :   -0.000003
   4 H :   -0.000023
   5 H :   -0.000009
   6 C :   -0.370502
   7 O :   -0.128573
   8 H :    0.188474
   9 H :    0.102827
  10 H :    0.092943
  11 H :    0.120891

  Mayer bond orders larger than 0.1
B(  6-C ,  7-O ) :   1.0010 B(  6-C ,  9-H ) :   0.9758 B(  6-C , 10-H ) :   0.9602
B(  6-C , 11-H ) :   0.9713 B(  7-O ,  8-H ) :   0.8880

Dispersion correction           -0.000312886
FINAL SINGLE POINT ENERGY      -115.727484684365

DIPOLE MOMENT
-------------
                                X             Y             Z
Electronic contribution:      1.53962      -1.09108      -0.30244
Nuclear contribution   :     -1.99797       1.02479       0.81982
                        -----------------------------------------
Total Dipole Moment    :     -0.45835      -0.06629       0.51738
                        -----------------------------------------
Magnitude (a.u.)       :      0.69438
Magnitude (Debye)      :      1.76497

Rotational constants in cm-1:     4.124726     0.763516     0.734197
Rotational constants in MHz : 123656.178349 22889.623981 22010.674379

                             ****ORCA TERMINATED NORMALLY****
TOTAL RUN TIME: 0 days 0 hours 1 minutes 3 seconds 110 msec
