                         Program Version 4.1.2  - RELEASE  -
|  1> #Run DFT-D3 single point of the dimer
|  2> ! wB97X-D3 def2-TZVP TIGHTSCF CHELPG PMODEL PAL8
|  3>
|  4> %base "22-8_DFT_AB"
|  5>
|  6> %scf
|  7> MaxIter 1000
|  8> end
|  9>
| 10> * xyz 0 1
| 11>   C                      -3.366488            1.354718             8.299496
| 12>   O                      -2.747762            2.580068             8.513952
| 13>   H                      -2.097212            2.607204             7.804503
| 14>   H                      -3.091532            0.606645             9.087924
| 15>   H                      -4.464560            1.385830             8.357553
| 16>   H                      -3.098089            0.935276             7.304372
| 17>   C                      -5.692550            1.901608             3.566777
| 18>   O                      -7.040810            1.705457             3.262053
| 19>   H                      -7.466480            2.089699             4.000003
| 20>   H                      -5.360571            1.400540             4.493794
| 21>   H                      -5.074684            1.437243             2.750245
| 22>   H                      -5.512614            2.980023             3.658668
| 23> *
| 24>
| 25> #Run DFT-D3 single point of the molecule with dimer basis set
| 26> $new_job
| 27> %base "22-8_DFT_A"
| 28> ! wB97X-D3 def2-TZVP TIGHTSCF CHELPG PMODEL
| 29>
| 30> %scf
| 31> MaxIter 1000
| 32> end
| 33>
| 34> * xyz 0 1
| 35>   C                      -3.366488            1.354718             8.299496
| 36>   O                      -2.747762            2.580068             8.513952
| 37>   H                      -2.097212            2.607204             7.804503
| 38>   H                      -3.091532            0.606645             9.087924
| 39>   H                      -4.464560            1.385830             8.357553
| 40>   H                      -3.098089            0.935276             7.304372
| 41>   C                    : -5.692550            1.901608             3.566777
| 42>   O                    : -7.040810            1.705457             3.262053
| 43>   H                    : -7.466480            2.089699             4.000003
| 44>   H                    : -5.360571            1.400540             4.493794
| 45>   H                    : -5.074684            1.437243             2.750245
| 46>   H                    : -5.512614            2.980023             3.658668
| 47> *
| 48>
| 49> #Run DFT-D3 single point of the particle with dimer basis set
| 50> $new_job
| 51> %base "22-8_DFT_B"
| 52> ! wB97X-D3 def2-TZVP TIGHTSCF CHELPG PMODEL
| 53>
| 54> %scf
| 55> MaxIter 1000
| 56> end
| 57>
| 58> * xyz 0 1
| 59>   C                    : -3.366488            1.354718             8.299496
| 60>   O                    : -2.747762            2.580068             8.513952
| 61>   H                    : -2.097212            2.607204             7.804503
| 62>   H                    : -3.091532            0.606645             9.087924
| 63>   H                    : -4.464560            1.385830             8.357553
| 64>   H                    : -3.098089            0.935276             7.304372
| 65>   C                      -5.692550            1.901608             3.566777
| 66>   O                      -7.040810            1.705457             3.262053
| 67>   H                      -7.466480            2.089699             4.000003
| 68>   H                      -5.360571            1.400540             4.493794
| 69>   H                      -5.074684            1.437243             2.750245
| 70>   H                      -5.512614            2.980023             3.658668
| 71> *
| 72>
| 73>                          ****END OF INPUT****
 Total Charge           Charge          ....    0
 Multiplicity           Mult            ....    1
 Number of Electrons    NEL             ....   36
Dispersion correction           -0.000710480
FINAL SINGLE POINT ENERGY      -231.466437772753
Dispersion correction           -0.000239875
FINAL SINGLE POINT ENERGY      -115.732492695940

CARTESIAN COORDINATES (ANGSTROEM)
---------------------------------
  C     -3.366488    1.354718    8.299496
  O     -2.747762    2.580068    8.513952
  H     -2.097212    2.607204    7.804503
  H     -3.091532    0.606645    9.087924
  H     -4.464560    1.385830    8.357553
  H     -3.098089    0.935276    7.304372
  C     -5.692550    1.901608    3.566777
  O     -7.040810    1.705457    3.262053
  H     -7.466480    2.089699    4.000003
  H     -5.360571    1.400540    4.493794
  H     -5.074684    1.437243    2.750245
  H     -5.512614    2.980023    3.658668

 Multiplicity           Mult            ....    1
 Number of Electrons    NEL             ....   18
 Basis Dimension        Dim             ....  172

ORBITAL ENERGIES
----------------

  NO   OCC          E(Eh)            E(eV)
   0   2.0000     -19.229430      -523.2594
   1   2.0000     -10.316186      -280.7177
   2   2.0000      -1.151970       -31.3467
   3   2.0000      -0.790089       -21.4994
   4   2.0000      -0.616384       -16.7726
   5   2.0000      -0.548485       -14.9250
   6   2.0000      -0.523410       -14.2427
   7   2.0000      -0.438323       -11.9274
   8   2.0000      -0.373975       -10.1764
   9   0.0000       0.081418         2.2155
  10   0.0000       0.117155         3.1879
  11   0.0000       0.152154         4.1403
  12   0.0000       0.163729         4.4553
  13   0.0000       0.182794         4.9741

MULLIKEN ATOMIC CHARGES
-----------------------
   0 C :    0.000094
   1 O :   -0.000002
   2 H :   -0.000002
   3 H :   -0.000012
   4 H :   -0.000071
   5 H :   -0.000237
   6 C :   -0.170255
   7 O :   -0.454119
   8 H :    0.309290
   9 H :    0.097790
  10 H :    0.116162
  11 H :    0.101362
Sum of atomic charges:    0.0000000

LOEWDIN ATOMIC CHARGES
----------------------
   0 C :   -0.000232
   1 O :   -0.000002
   2 H :   -0.000002
   3 H :   -0.000002
   4 H :   -0.000058
   5 H :   -0.000230
   6 C :   -0.406366
   7 O :   -0.051983
   8 H :    0.156170
   9 H :    0.093298
  10 H :    0.114841
  11 H :    0.094567

  Mayer bond orders larger than 0.1
B(  6-C ,  7-O ) :   1.0001 B(  6-C ,  9-H ) :   0.9713 B(  6-C , 10-H ) :   0.9729
B(  6-C , 11-H ) :   0.9812 B(  7-O ,  8-H ) :   0.9079

Dispersion correction           -0.000215729
FINAL SINGLE POINT ENERGY      -115.733681663556

DIPOLE MOMENT
-------------
                                X             Y             Z
Electronic contribution:     -1.75429      -0.30471      -0.51558
Nuclear contribution   :      1.98837       0.61287       1.08970
                        -----------------------------------------
Total Dipole Moment    :      0.23408       0.30816       0.57412
                        -----------------------------------------
Magnitude (a.u.)       :      0.69236
Magnitude (Debye)      :      1.75985

Rotational constants in cm-1:     4.174427     0.857946     0.823432
Rotational constants in MHz : 125146.187135 25720.573944 24685.862211

                             ****ORCA TERMINATED NORMALLY****
TOTAL RUN TIME: 0 days 0 hours 0 minutes 53 seconds 392 msec
