                         Program Version 4.1.2  - RELEASE  -
|  1> #Run DFT-D3 single point of the dimer
|  2> ! wB97X-D3 def2-TZVP TIGHTSCF CHELPG PMODEL PAL8
|  3>
|  4> %base "8-141_DFT_AB"
|  5>
|  6> %scf
|  7> MaxIter 1000
|  8> end
|  9>
| 10> * xyz 0 1
| 11>   C                      8.283693             3.564489             -7.961779
| 12>   O                      9.208929             4.425566             -8.624489
| 13>   H                      9.989970             4.551249             -8.070807
| 14>   H                      8.733532             2.900308             -7.241755
| 15>   H                      7.574161             4.085482             -7.293596
| 16>   H                      7.764251             3.051280             -8.713159
| 17>   C                      8.379376             7.578399             -7.689414
| 18>   O                      9.744691             7.291054             -8.087492
| 19>   H                      10.011479            7.871087             -8.856384
| 20>   H                      7.737736             7.672192             -8.549179
| 21>   H                      7.980739             6.985887             -6.906079
| 22>   H                      8.306510             8.623246             -7.395443
| 23> *
| 24>
| 25> #Run DFT-D3 single point of the molecule with dimer basis set
| 26> $new_job
| 27> %base "8-141_DFT_A"
| 28> ! wB97X-D3 def2-TZVP TIGHTSCF CHELPG PMODEL
| 29>
| 30> %scf
| 31> MaxIter 1000
| 32> end
| 33>
| 34> * xyz 0 1
| 35>   C                      8.283693             3.564489             -7.961779
| 36>   O                      9.208929             4.425566             -8.624489
| 37>   H                      9.989970             4.551249             -8.070807
| 38>   H                      8.733532             2.900308             -7.241755
| 39>   H                      7.574161             4.085482             -7.293596
| 40>   H                      7.764251             3.051280             -8.713159
| 41>   C                    : 8.379376             7.578399             -7.689414
| 42>   O                    : 9.744691             7.291054             -8.087492
| 43>   H                    : 10.011479            7.871087             -8.856384
| 44>   H                    : 7.737736             7.672192             -8.549179
| 45>   H                    : 7.980739             6.985887             -6.906079
| 46>   H                    : 8.306510             8.623246             -7.395443
| 47> *
| 48>
| 49> #Run DFT-D3 single point of the particle with dimer basis set
| 50> $new_job
| 51> %base "8-141_DFT_B"
| 52> ! wB97X-D3 def2-TZVP TIGHTSCF CHELPG PMODEL
| 53>
| 54> %scf
| 55> MaxIter 1000
| 56> end
| 57>
| 58> * xyz 0 1
| 59>   C                    : 8.283693             3.564489             -7.961779
| 60>   O                    : 9.208929             4.425566             -8.624489
| 61>   H                    : 9.989970             4.551249             -8.070807
| 62>   H                    : 8.733532             2.900308             -7.241755
| 63>   H                    : 7.574161             4.085482             -7.293596
| 64>   H                    : 7.764251             3.051280             -8.713159
| 65>   C                      8.379376             7.578399             -7.689414
| 66>   O                      9.744691             7.291054             -8.087492
| 67>   H                      10.011479            7.871087             -8.856384
| 68>   H                      7.737736             7.672192             -8.549179
| 69>   H                      7.980739             6.985887             -6.906079
| 70>   H                      8.306510             8.623246             -7.395443
| 71> *
| 72>
| 73>                          ****END OF INPUT****
 Total Charge           Charge          ....    0
 Multiplicity           Mult            ....    1
 Number of Electrons    NEL             ....   36
Dispersion correction           -0.001937541
FINAL SINGLE POINT ENERGY      -231.459229877932
Dispersion correction           -0.000254931
FINAL SINGLE POINT ENERGY      -115.732953283616

CARTESIAN COORDINATES (ANGSTROEM)
---------------------------------
  C      8.283693    3.564489   -7.961779
  O      9.208929    4.425566   -8.624489
  H      9.989970    4.551249   -8.070807
  H      8.733532    2.900308   -7.241755
  H      7.574161    4.085482   -7.293596
  H      7.764251    3.051280   -8.713159
  C      8.379376    7.578399   -7.689414
  O      9.744691    7.291054   -8.087492
  H     10.011479    7.871087   -8.856384
  H      7.737736    7.672192   -8.549179
  H      7.980739    6.985887   -6.906079
  H      8.306510    8.623246   -7.395443

 Multiplicity           Mult            ....    1
 Number of Electrons    NEL             ....   18
 Basis Dimension        Dim             ....  172

ORBITAL ENERGIES
----------------

  NO   OCC          E(Eh)            E(eV)
   0   2.0000     -19.232461      -523.3419
   1   2.0000     -10.310770      -280.5703
   2   2.0000      -1.116297       -30.3760
   3   2.0000      -0.801793       -21.8179
   4   2.0000      -0.606804       -16.5120
   5   2.0000      -0.539570       -14.6825
   6   2.0000      -0.520372       -14.1600
   7   2.0000      -0.438742       -11.9388
   8   2.0000      -0.366349        -9.9689
   9   0.0000       0.092645         2.5210
  10   0.0000       0.114360         3.1119
  11   0.0000       0.148559         4.0425
  12   0.0000       0.188601         5.1321
  13   0.0000       0.195233         5.3126

MULLIKEN ATOMIC CHARGES
-----------------------
   0 C :   -0.000101
   1 O :    0.002029
   2 H :   -0.005125
   3 H :    0.000065
   4 H :   -0.000478
   5 H :   -0.000109
   6 C :   -0.180909
   7 O :   -0.486093
   8 H :    0.317358
   9 H :    0.109314
  10 H :    0.138151
  11 H :    0.105896
Sum of atomic charges:   -0.0000000

LOEWDIN ATOMIC CHARGES
----------------------
   0 C :   -0.001406
   1 O :   -0.007290
   2 H :   -0.007290
   3 H :   -0.000011
   4 H :   -0.000690
   5 H :   -0.000024
   6 C :   -0.357792
   7 O :   -0.110901
   8 H :    0.189350
   9 H :    0.095019
  10 H :    0.103524
  11 H :    0.097510

  Mayer bond orders larger than 0.1
B(  6-C ,  7-O ) :   0.9827 B(  6-C ,  9-H ) :   0.9795 B(  6-C , 10-H ) :   0.9704
B(  6-C , 11-H ) :   0.9752 B(  7-O ,  8-H ) :   0.8902

Dispersion correction           -0.000248986
FINAL SINGLE POINT ENERGY      -115.725785320912

DIPOLE MOMENT
-------------
                                X             Y             Z
Electronic contribution:      1.69643      -0.70319      -0.27513
Nuclear contribution   :     -2.12282       1.22383      -0.03524
                        -----------------------------------------
Total Dipole Moment    :     -0.42638       0.52064      -0.31037
                        -----------------------------------------
Magnitude (a.u.)       :      0.74108
Magnitude (Debye)      :      1.88369

Rotational constants in cm-1:     4.444615     0.799525     0.755784
Rotational constants in MHz : 133246.219264 23969.166863 22657.827399

                             ****ORCA TERMINATED NORMALLY****
TOTAL RUN TIME: 0 days 0 hours 0 minutes 47 seconds 170 msec
