                         Program Version 4.1.2  - RELEASE  -
|  1> #Run DFT-D3 single point of the dimer
|  2> ! wB97X-D3 def2-TZVP TIGHTSCF CHELPG PMODEL PAL8
|  3>
|  4> %base "11-167_DFT_AB"
|  5>
|  6> %scf
|  7> MaxIter 1000
|  8> end
|  9>
| 10> * xyz 0 1
| 11>   C                      10.897370            -4.828335            -5.212049
| 12>   O                      10.128683            -5.048233            -4.102397
| 13>   H                      10.550345            -5.640058            -3.471938
| 14>   H                      10.375787            -4.184075            -5.913286
| 15>   H                      11.856245            -4.460525            -4.901926
| 16>   H                      11.026983            -5.774149            -5.832177
| 17>   C                      7.713792             -7.355257            -5.392447
| 18>   O                      7.815476             -7.103153            -3.960262
| 19>   H                      8.624440             -6.547739            -3.986999
| 20>   H                      8.597518             -7.881962            -5.807863
| 21>   H                      6.778672             -7.836321            -5.653794
| 22>   H                      7.838172             -6.398663            -5.970114
| 23> *
| 24>
| 25> #Run DFT-D3 single point of the molecule with dimer basis set
| 26> $new_job
| 27> %base "11-167_DFT_A"
| 28> ! wB97X-D3 def2-TZVP TIGHTSCF CHELPG PMODEL
| 29>
| 30> %scf
| 31> MaxIter 1000
| 32> end
| 33>
| 34> * xyz 0 1
| 35>   C                      10.897370            -4.828335            -5.212049
| 36>   O                      10.128683            -5.048233            -4.102397
| 37>   H                      10.550345            -5.640058            -3.471938
| 38>   H                      10.375787            -4.184075            -5.913286
| 39>   H                      11.856245            -4.460525            -4.901926
| 40>   H                      11.026983            -5.774149            -5.832177
| 41>   C                    : 7.713792             -7.355257            -5.392447
| 42>   O                    : 7.815476             -7.103153            -3.960262
| 43>   H                    : 8.624440             -6.547739            -3.986999
| 44>   H                    : 8.597518             -7.881962            -5.807863
| 45>   H                    : 6.778672             -7.836321            -5.653794
| 46>   H                    : 7.838172             -6.398663            -5.970114
| 47> *
| 48>
| 49> #Run DFT-D3 single point of the particle with dimer basis set
| 50> $new_job
| 51> %base "11-167_DFT_B"
| 52> ! wB97X-D3 def2-TZVP TIGHTSCF CHELPG PMODEL
| 53>
| 54> %scf
| 55> MaxIter 1000
| 56> end
| 57>
| 58> * xyz 0 1
| 59>   C                    : 10.897370            -4.828335            -5.212049
| 60>   O                    : 10.128683            -5.048233            -4.102397
| 61>   H                    : 10.550345            -5.640058            -3.471938
| 62>   H                    : 10.375787            -4.184075            -5.913286
| 63>   H                    : 11.856245            -4.460525            -4.901926
| 64>   H                    : 11.026983            -5.774149            -5.832177
| 65>   C                      7.713792             -7.355257            -5.392447
| 66>   O                      7.815476             -7.103153            -3.960262
| 67>   H                      8.624440             -6.547739            -3.986999
| 68>   H                      8.597518             -7.881962            -5.807863
| 69>   H                      6.778672             -7.836321            -5.653794
| 70>   H                      7.838172             -6.398663            -5.970114
| 71> *
| 72>
| 73>                          ****END OF INPUT****
 Total Charge           Charge          ....    0
 Multiplicity           Mult            ....    1
 Number of Electrons    NEL             ....   36
Dispersion correction           -0.002023918
FINAL SINGLE POINT ENERGY      -231.467730093716
Dispersion correction           -0.000227041
FINAL SINGLE POINT ENERGY      -115.733079466077

CARTESIAN COORDINATES (ANGSTROEM)
---------------------------------
  C     10.897370   -4.828335   -5.212049
  O     10.128683   -5.048233   -4.102397
  H     10.550345   -5.640058   -3.471938
  H     10.375787   -4.184075   -5.913286
  H     11.856245   -4.460525   -4.901926
  H     11.026983   -5.774149   -5.832177
  C      7.713792   -7.355257   -5.392447
  O      7.815476   -7.103153   -3.960262
  H      8.624440   -6.547739   -3.986999
  H      8.597518   -7.881962   -5.807863
  H      6.778672   -7.836321   -5.653794
  H      7.838172   -6.398663   -5.970114

 Multiplicity           Mult            ....    1
 Number of Electrons    NEL             ....   18
 Basis Dimension        Dim             ....  172

ORBITAL ENERGIES
----------------

  NO   OCC          E(Eh)            E(eV)
   0   2.0000     -19.238069      -523.4945
   1   2.0000     -10.322029      -280.8767
   2   2.0000      -1.127849       -30.6903
   3   2.0000      -0.791094       -21.5268
   4   2.0000      -0.606431       -16.5018
   5   2.0000      -0.525820       -14.3083
   6   2.0000      -0.520745       -14.1702
   7   2.0000      -0.455901       -12.4057
   8   2.0000      -0.371832       -10.1181
   9   0.0000       0.065036         1.7697
  10   0.0000       0.132520         3.6060
  11   0.0000       0.137657         3.7458
  12   0.0000       0.165849         4.5130
  13   0.0000       0.188087         5.1181

MULLIKEN ATOMIC CHARGES
-----------------------
   0 C :    0.000069
   1 O :   -0.001607
   2 H :   -0.001114
   3 H :   -0.000257
   4 H :   -0.000002
   5 H :   -0.000281
   6 C :   -0.205021
   7 O :   -0.456086
   8 H :    0.313116
   9 H :    0.109942
  10 H :    0.135209
  11 H :    0.106032
Sum of atomic charges:    0.0000000

LOEWDIN ATOMIC CHARGES
----------------------
   0 C :   -0.002749
   1 O :   -0.011900
   2 H :   -0.003595
   3 H :   -0.000227
   4 H :   -0.000035
   5 H :   -0.000416
   6 C :   -0.370498
   7 O :   -0.105320
   8 H :    0.189495
   9 H :    0.098630
  10 H :    0.105582
  11 H :    0.101034

  Mayer bond orders larger than 0.1
B(  6-C ,  7-O ) :   0.9897 B(  6-C ,  9-H ) :   0.9686 B(  6-C , 10-H ) :   0.9720
B(  6-C , 11-H ) :   0.9773 B(  7-O ,  8-H ) :   0.9101

Dispersion correction           -0.000238185
FINAL SINGLE POINT ENERGY      -115.728397453389

DIPOLE MOMENT
-------------
                                X             Y             Z
Electronic contribution:     -0.17360       0.08850       1.95836
Nuclear contribution   :      0.61646       0.14942      -2.54921
                        -----------------------------------------
Total Dipole Moment    :      0.44286       0.23792      -0.59085
                        -----------------------------------------
Magnitude (a.u.)       :      0.77578
Magnitude (Debye)      :      1.97187

Rotational constants in cm-1:     4.136677     0.803128     0.758448
Rotational constants in MHz : 124014.451042 24077.171379 22737.684920

                             ****ORCA TERMINATED NORMALLY****
TOTAL RUN TIME: 0 days 0 hours 1 minutes 12 seconds 480 msec
