                         Program Version 4.1.2  - RELEASE  -
|  1> #Run DFT-D3 single point of the dimer
|  2> ! wB97X-D3 def2-TZVP TIGHTSCF CHELPG PMODEL PAL8
|  3>
|  4> %base "15-76_DFT_AB"
|  5>
|  6> %scf
|  7> MaxIter 1000
|  8> end
|  9>
| 10> * xyz 0 1
| 11>   C                      3.160590             5.904719             1.409526
| 12>   O                      1.952229             6.513314             1.905539
| 13>   H                      2.203480             7.011722             2.707374
| 14>   H                      3.131705             5.037513             0.685736
| 15>   H                      3.800379             6.728786             1.090960
| 16>   H                      3.782874             5.542182             2.299754
| 17>   C                      -1.713495            5.070337             3.795693
| 18>   O                      -2.160120            3.684679             4.068545
| 19>   H                      -1.564629            3.057813             3.648862
| 20>   H                      -1.778877            5.212107             2.696069
| 21>   H                      -2.412426            5.766680             4.321625
| 22>   H                      -0.781324            5.349561             4.199004
| 23> *
| 24>
| 25> #Run DFT-D3 single point of the molecule with dimer basis set
| 26> $new_job
| 27> %base "15-76_DFT_A"
| 28> ! wB97X-D3 def2-TZVP TIGHTSCF CHELPG PMODEL
| 29>
| 30> %scf
| 31> MaxIter 1000
| 32> end
| 33>
| 34> * xyz 0 1
| 35>   C                      3.160590             5.904719             1.409526
| 36>   O                      1.952229             6.513314             1.905539
| 37>   H                      2.203480             7.011722             2.707374
| 38>   H                      3.131705             5.037513             0.685736
| 39>   H                      3.800379             6.728786             1.090960
| 40>   H                      3.782874             5.542182             2.299754
| 41>   C                    : -1.713495            5.070337             3.795693
| 42>   O                    : -2.160120            3.684679             4.068545
| 43>   H                    : -1.564629            3.057813             3.648862
| 44>   H                    : -1.778877            5.212107             2.696069
| 45>   H                    : -2.412426            5.766680             4.321625
| 46>   H                    : -0.781324            5.349561             4.199004
| 47> *
| 48>
| 49> #Run DFT-D3 single point of the particle with dimer basis set
| 50> $new_job
| 51> %base "15-76_DFT_B"
| 52> ! wB97X-D3 def2-TZVP TIGHTSCF CHELPG PMODEL
| 53>
| 54> %scf
| 55> MaxIter 1000
| 56> end
| 57>
| 58> * xyz 0 1
| 59>   C                    : 3.160590             5.904719             1.409526
| 60>   O                    : 1.952229             6.513314             1.905539
| 61>   H                    : 2.203480             7.011722             2.707374
| 62>   H                    : 3.131705             5.037513             0.685736
| 63>   H                    : 3.800379             6.728786             1.090960
| 64>   H                    : 3.782874             5.542182             2.299754
| 65>   C                      -1.713495            5.070337             3.795693
| 66>   O                      -2.160120            3.684679             4.068545
| 67>   H                      -1.564629            3.057813             3.648862
| 68>   H                      -1.778877            5.212107             2.696069
| 69>   H                      -2.412426            5.766680             4.321625
| 70>   H                      -0.781324            5.349561             4.199004
| 71> *
| 72>
| 73>                          ****END OF INPUT****
 Total Charge           Charge          ....    0
 Multiplicity           Mult            ....    1
 Number of Electrons    NEL             ....   36
Dispersion correction           -0.000865242
FINAL SINGLE POINT ENERGY      -231.455044348127
Dispersion correction           -0.000248475
FINAL SINGLE POINT ENERGY      -115.723756609131

CARTESIAN COORDINATES (ANGSTROEM)
---------------------------------
  C      3.160590    5.904719    1.409526
  O      1.952229    6.513314    1.905539
  H      2.203480    7.011722    2.707374
  H      3.131705    5.037513    0.685736
  H      3.800379    6.728786    1.090960
  H      3.782874    5.542182    2.299754
  C     -1.713495    5.070337    3.795693
  O     -2.160120    3.684679    4.068545
  H     -1.564629    3.057813    3.648862
  H     -1.778877    5.212107    2.696069
  H     -2.412426    5.766680    4.321625
  H     -0.781324    5.349561    4.199004

 Multiplicity           Mult            ....    1
 Number of Electrons    NEL             ....   18
 Basis Dimension        Dim             ....  172

ORBITAL ENERGIES
----------------

  NO   OCC          E(Eh)            E(eV)
   0   2.0000     -19.228153      -523.2247
   1   2.0000     -10.319510      -280.8081
   2   2.0000      -1.114565       -30.3289
   3   2.0000      -0.799554       -21.7570
   4   2.0000      -0.597313       -16.2537
   5   2.0000      -0.545725       -14.8499
   6   2.0000      -0.511905       -13.9296
   7   2.0000      -0.431406       -11.7392
   8   2.0000      -0.376825       -10.2539
   9   0.0000       0.080130         2.1804
  10   0.0000       0.116415         3.1678
  11   0.0000       0.137746         3.7482
  12   0.0000       0.168521         4.5857
  13   0.0000       0.188333         5.1248

MULLIKEN ATOMIC CHARGES
-----------------------
   0 C :   -0.000029
   1 O :   -0.000006
   2 H :   -0.000116
   3 H :    0.000003
   4 H :   -0.000001
   5 H :   -0.000003
   6 C :   -0.163474
   7 O :   -0.492005
   8 H :    0.312306
   9 H :    0.111558
  10 H :    0.119339
  11 H :    0.112427
Sum of atomic charges:   -0.0000000

LOEWDIN ATOMIC CHARGES
----------------------
   0 C :   -0.000025
   1 O :   -0.000136
   2 H :   -0.000143
   3 H :   -0.000001
   4 H :   -0.000000
   5 H :   -0.000001
   6 C :   -0.337766
   7 O :   -0.126721
   8 H :    0.160940
   9 H :    0.102844
  10 H :    0.115461
  11 H :    0.085548

  Mayer bond orders larger than 0.1
B(  6-C ,  7-O ) :   0.9934 B(  6-C ,  9-H ) :   0.9810 B(  6-C , 10-H ) :   0.9739
B(  6-C , 11-H ) :   0.9663 B(  7-O ,  8-H ) :   0.9007

Dispersion correction           -0.000275719
FINAL SINGLE POINT ENERGY      -115.730419130197

DIPOLE MOMENT
-------------
                                X             Y             Z
Electronic contribution:     -0.51423      -1.63265       0.40093
Nuclear contribution   :      1.09317       1.85241      -0.76925
                        -----------------------------------------
Total Dipole Moment    :      0.57894       0.21976      -0.36832
                        -----------------------------------------
Magnitude (a.u.)       :      0.72050
Magnitude (Debye)      :      1.83137

Rotational constants in cm-1:     4.303407     0.767475     0.743855
Rotational constants in MHz : 129012.884905 23008.313970 22300.199085

                             ****ORCA TERMINATED NORMALLY****
TOTAL RUN TIME: 0 days 0 hours 0 minutes 59 seconds 994 msec
