                         Program Version 4.1.2  - RELEASE  -
|  1> #Run DFT-D3 single point of the dimer
|  2> ! wB97X-D3 def2-TZVP TIGHTSCF CHELPG PMODEL PAL8
|  3>
|  4> %base "13-168_DFT_AB"
|  5>
|  6> %scf
|  7> MaxIter 1000
|  8> end
|  9>
| 10> * xyz 0 1
| 11>   C                      8.225570             -5.036562            -10.635713
| 12>   O                      9.494717             -4.448747            -10.873719
| 13>   H                      10.143918            -4.712817            -10.159764
| 14>   H                      7.640099             -4.492365            -11.329972
| 15>   H                      8.233326             -6.129143            -10.788941
| 16>   H                      7.973566             -4.890603            -9.558442
| 17>   C                      10.216525            -3.071881            -7.313007
| 18>   O                      10.804575            -3.202330            -8.625591
| 19>   H                      10.303395            -2.704909            -9.239488
| 20>   H                      10.831015            -3.504311            -6.458640
| 21>   H                      10.061956            -1.978435            -7.131601
| 22>   H                      9.240508             -3.474083            -7.385796
| 23> *
| 24>
| 25> #Run DFT-D3 single point of the molecule with dimer basis set
| 26> $new_job
| 27> %base "13-168_DFT_A"
| 28> ! wB97X-D3 def2-TZVP TIGHTSCF CHELPG PMODEL
| 29>
| 30> %scf
| 31> MaxIter 1000
| 32> end
| 33>
| 34> * xyz 0 1
| 35>   C                      8.225570             -5.036562            -10.635713
| 36>   O                      9.494717             -4.448747            -10.873719
| 37>   H                      10.143918            -4.712817            -10.159764
| 38>   H                      7.640099             -4.492365            -11.329972
| 39>   H                      8.233326             -6.129143            -10.788941
| 40>   H                      7.973566             -4.890603            -9.558442
| 41>   C                    : 10.216525            -3.071881            -7.313007
| 42>   O                    : 10.804575            -3.202330            -8.625591
| 43>   H                    : 10.303395            -2.704909            -9.239488
| 44>   H                    : 10.831015            -3.504311            -6.458640
| 45>   H                    : 10.061956            -1.978435            -7.131601
| 46>   H                    : 9.240508             -3.474083            -7.385796
| 47> *
| 48>
| 49> #Run DFT-D3 single point of the particle with dimer basis set
| 50> $new_job
| 51> %base "13-168_DFT_B"
| 52> ! wB97X-D3 def2-TZVP TIGHTSCF CHELPG PMODEL
| 53>
| 54> %scf
| 55> MaxIter 1000
| 56> end
| 57>
| 58> * xyz 0 1
| 59>   C                    : 8.225570             -5.036562            -10.635713
| 60>   O                    : 9.494717             -4.448747            -10.873719
| 61>   H                    : 10.143918            -4.712817            -10.159764
| 62>   H                    : 7.640099             -4.492365            -11.329972
| 63>   H                    : 8.233326             -6.129143            -10.788941
| 64>   H                    : 7.973566             -4.890603            -9.558442
| 65>   C                      10.216525            -3.071881            -7.313007
| 66>   O                      10.804575            -3.202330            -8.625591
| 67>   H                      10.303395            -2.704909            -9.239488
| 68>   H                      10.831015            -3.504311            -6.458640
| 69>   H                      10.061956            -1.978435            -7.131601
| 70>   H                      9.240508             -3.474083            -7.385796
| 71> *
| 72>
| 73>                          ****END OF INPUT****
 Total Charge           Charge          ....    0
 Multiplicity           Mult            ....    1
 Number of Electrons    NEL             ....   36
Dispersion correction           -0.001863255
FINAL SINGLE POINT ENERGY      -231.467685970782
Dispersion correction           -0.000234381
FINAL SINGLE POINT ENERGY      -115.731460412109

CARTESIAN COORDINATES (ANGSTROEM)
---------------------------------
  C      8.225570   -5.036562  -10.635713
  O      9.494717   -4.448747  -10.873719
  H     10.143918   -4.712817  -10.159764
  H      7.640099   -4.492365  -11.329972
  H      8.233326   -6.129143  -10.788941
  H      7.973566   -4.890603   -9.558442
  C     10.216525   -3.071881   -7.313007
  O     10.804575   -3.202330   -8.625591
  H     10.303395   -2.704909   -9.239488
  H     10.831015   -3.504311   -6.458640
  H     10.061956   -1.978435   -7.131601
  H      9.240508   -3.474083   -7.385796

 Multiplicity           Mult            ....    1
 Number of Electrons    NEL             ....   18
 Basis Dimension        Dim             ....  172

ORBITAL ENERGIES
----------------

  NO   OCC          E(Eh)            E(eV)
   0   2.0000     -19.225635      -523.1561
   1   2.0000     -10.320746      -280.8418
   2   2.0000      -1.131532       -30.7905
   3   2.0000      -0.796264       -21.6674
   4   2.0000      -0.607851       -16.5405
   5   2.0000      -0.541740       -14.7415
   6   2.0000      -0.526525       -14.3275
   7   2.0000      -0.432616       -11.7721
   8   2.0000      -0.371482       -10.1085
   9   0.0000       0.085874         2.3367
  10   0.0000       0.130803         3.5593
  11   0.0000       0.147963         4.0263
  12   0.0000       0.183449         4.9919
  13   0.0000       0.189531         5.1574

MULLIKEN ATOMIC CHARGES
-----------------------
   0 C :   -0.003295
   1 O :   -0.004202
   2 H :   -0.007026
   3 H :    0.000328
   4 H :    0.000019
   5 H :    0.000133
   6 C :   -0.171057
   7 O :   -0.473804
   8 H :    0.313474
   9 H :    0.129013
  10 H :    0.103042
  11 H :    0.113373
Sum of atomic charges:   -0.0000000

LOEWDIN ATOMIC CHARGES
----------------------
   0 C :   -0.002615
   1 O :   -0.008296
   2 H :   -0.022791
   3 H :   -0.000042
   4 H :   -0.000043
   5 H :   -0.000864
   6 C :   -0.359167
   7 O :   -0.067069
   8 H :    0.152364
   9 H :    0.119765
  10 H :    0.100510
  11 H :    0.088248

  Mayer bond orders larger than 0.1
B(  6-C ,  7-O ) :   0.9814 B(  6-C ,  9-H ) :   0.9668 B(  6-C , 10-H ) :   0.9845
B(  6-C , 11-H ) :   0.9762 B(  7-O ,  8-H ) :   0.9007

Dispersion correction           -0.000234603
FINAL SINGLE POINT ENERGY      -115.729452621931

DIPOLE MOMENT
-------------
                                X             Y             Z
Electronic contribution:      0.86952      -0.36947      -1.48197
Nuclear contribution   :     -1.44934       0.75640       1.66003
                        -----------------------------------------
Total Dipole Moment    :     -0.57982       0.38693       0.17806
                        -----------------------------------------
Magnitude (a.u.)       :      0.71945
Magnitude (Debye)      :      1.82869

Rotational constants in cm-1:     4.254073     0.808725     0.773316
Rotational constants in MHz : 127533.909229 24244.962951 23183.437371

                             ****ORCA TERMINATED NORMALLY****
TOTAL RUN TIME: 0 days 0 hours 1 minutes 12 seconds 422 msec
