                         Program Version 4.1.2  - RELEASE  -
|  1> #Run DFT-D3 single point of the dimer
|  2> ! wB97X-D3 def2-TZVP TIGHTSCF CHELPG PMODEL PAL8
|  3>
|  4> %base "21-109_DFT_AB"
|  5>
|  6> %scf
|  7> MaxIter 1000
|  8> end
|  9>
| 10> * xyz 0 1
| 11>   C                      4.061097             9.985144             -6.070502
| 12>   O                      3.441151             9.246290             -7.049608
| 13>   H                      2.507525             9.449036             -6.878413
| 14>   H                      5.166325             9.778828             -5.975345
| 15>   H                      4.055554             11.054834            -6.343649
| 16>   H                      3.619307             9.736825             -5.105719
| 17>   C                      6.273200             8.572645             -8.858405
| 18>   O                      5.514117             7.698686             -8.035635
| 19>   H                      4.720933             8.157221             -7.673106
| 20>   H                      7.202760             8.150822             -9.287278
| 21>   H                      5.582240             9.041065             -9.618333
| 22>   H                      6.701324             9.368686             -8.284676
| 23> *
| 24>
| 25> #Run DFT-D3 single point of the molecule with dimer basis set
| 26> $new_job
| 27> %base "21-109_DFT_A"
| 28> ! wB97X-D3 def2-TZVP TIGHTSCF CHELPG PMODEL
| 29>
| 30> %scf
| 31> MaxIter 1000
| 32> end
| 33>
| 34> * xyz 0 1
| 35>   C                      4.061097             9.985144             -6.070502
| 36>   O                      3.441151             9.246290             -7.049608
| 37>   H                      2.507525             9.449036             -6.878413
| 38>   H                      5.166325             9.778828             -5.975345
| 39>   H                      4.055554             11.054834            -6.343649
| 40>   H                      3.619307             9.736825             -5.105719
| 41>   C                    : 6.273200             8.572645             -8.858405
| 42>   O                    : 5.514117             7.698686             -8.035635
| 43>   H                    : 4.720933             8.157221             -7.673106
| 44>   H                    : 7.202760             8.150822             -9.287278
| 45>   H                    : 5.582240             9.041065             -9.618333
| 46>   H                    : 6.701324             9.368686             -8.284676
| 47> *
| 48>
| 49> #Run DFT-D3 single point of the particle with dimer basis set
| 50> $new_job
| 51> %base "21-109_DFT_B"
| 52> ! wB97X-D3 def2-TZVP TIGHTSCF CHELPG PMODEL
| 53>
| 54> %scf
| 55> MaxIter 1000
| 56> end
| 57>
| 58> * xyz 0 1
| 59>   C                    : 4.061097             9.985144             -6.070502
| 60>   O                    : 3.441151             9.246290             -7.049608
| 61>   H                    : 2.507525             9.449036             -6.878413
| 62>   H                    : 5.166325             9.778828             -5.975345
| 63>   H                    : 4.055554             11.054834            -6.343649
| 64>   H                    : 3.619307             9.736825             -5.105719
| 65>   C                      6.273200             8.572645             -8.858405
| 66>   O                      5.514117             7.698686             -8.035635
| 67>   H                      4.720933             8.157221             -7.673106
| 68>   H                      7.202760             8.150822             -9.287278
| 69>   H                      5.582240             9.041065             -9.618333
| 70>   H                      6.701324             9.368686             -8.284676
| 71> *
| 72>
| 73>                          ****END OF INPUT****
 Total Charge           Charge          ....    0
 Multiplicity           Mult            ....    1
 Number of Electrons    NEL             ....   36
Dispersion correction           -0.002066014
FINAL SINGLE POINT ENERGY      -231.468571542083
Dispersion correction           -0.000209741
FINAL SINGLE POINT ENERGY      -115.730844879835

CARTESIAN COORDINATES (ANGSTROEM)
---------------------------------
  C      4.061097    9.985144   -6.070502
  O      3.441151    9.246290   -7.049608
  H      2.507525    9.449036   -6.878413
  H      5.166325    9.778828   -5.975345
  H      4.055554   11.054834   -6.343649
  H      3.619307    9.736825   -5.105719
  C      6.273200    8.572645   -8.858405
  O      5.514117    7.698686   -8.035635
  H      4.720933    8.157221   -7.673106
  H      7.202760    8.150822   -9.287278
  H      5.582240    9.041065   -9.618333
  H      6.701324    9.368686   -8.284676

 Multiplicity           Mult            ....    1
 Number of Electrons    NEL             ....   18
 Basis Dimension        Dim             ....  172

ORBITAL ENERGIES
----------------

  NO   OCC          E(Eh)            E(eV)
   0   2.0000     -19.232819      -523.3516
   1   2.0000     -10.316716      -280.7321
   2   2.0000      -1.128526       -30.7087
   3   2.0000      -0.794716       -21.6253
   4   2.0000      -0.606664       -16.5082
   5   2.0000      -0.546258       -14.8644
   6   2.0000      -0.523422       -14.2430
   7   2.0000      -0.427312       -11.6277
   8   2.0000      -0.371085       -10.0977
   9   0.0000       0.069092         1.8801
  10   0.0000       0.139736         3.8024
  11   0.0000       0.142379         3.8743
  12   0.0000       0.163269         4.4428
  13   0.0000       0.193720         5.2714

MULLIKEN ATOMIC CHARGES
-----------------------
   0 C :   -0.004526
   1 O :   -0.006535
   2 H :   -0.000559
   3 H :   -0.002493
   4 H :   -0.000049
   5 H :    0.000365
   6 C :   -0.176019
   7 O :   -0.475188
   8 H :    0.327914
   9 H :    0.126540
  10 H :    0.104254
  11 H :    0.106297
Sum of atomic charges:    0.0000000

LOEWDIN ATOMIC CHARGES
----------------------
   0 C :   -0.011592
   1 O :   -0.028421
   2 H :   -0.001129
   3 H :   -0.003534
   4 H :   -0.000167
   5 H :   -0.000184
   6 C :   -0.386468
   7 O :   -0.075865
   8 H :    0.201532
   9 H :    0.113105
  10 H :    0.103268
  11 H :    0.089455

  Mayer bond orders larger than 0.1
B(  6-C ,  7-O ) :   0.9930 B(  6-C ,  9-H ) :   0.9696 B(  6-C , 10-H ) :   0.9842
B(  6-C , 11-H ) :   0.9734 B(  7-O ,  8-H ) :   0.8913

Dispersion correction           -0.000250990
FINAL SINGLE POINT ENERGY      -115.730120712545

DIPOLE MOMENT
-------------
                                X             Y             Z
Electronic contribution:     -0.84988      -1.33192       0.98455
Nuclear contribution   :      0.69089       1.98130      -1.06820
                        -----------------------------------------
Total Dipole Moment    :     -0.15899       0.64938      -0.08366
                        -----------------------------------------
Magnitude (a.u.)       :      0.67377
Magnitude (Debye)      :      1.71260

Rotational constants in cm-1:     4.303296     0.817778     0.782500
Rotational constants in MHz : 129009.567618 24516.366840 23458.765497

                             ****ORCA TERMINATED NORMALLY****
TOTAL RUN TIME: 0 days 0 hours 1 minutes 4 seconds 32 msec
