                         Program Version 4.1.2  - RELEASE  -
|  1> #Run DFT-D3 single point of the dimer
|  2> ! wB97X-D3 def2-TZVP TIGHTSCF CHELPG PMODEL PAL8
|  3>
|  4> %base "14-194_DFT_AB"
|  5>
|  6> %scf
|  7> MaxIter 1000
|  8> end
|  9>
| 10> * xyz 0 1
| 11>   C                      8.342883             -9.562659            -7.085963
| 12>   O                      6.954251             -9.875099            -6.737926
| 13>   H                      6.672375             -10.682217           -7.228092
| 14>   H                      8.799559             -9.099347            -6.241238
| 15>   H                      8.929992             -10.375192           -7.488363
| 16>   H                      8.393096             -8.772650            -7.810404
| 17>   C                      5.199033             -9.097002            -3.574988
| 18>   O                      6.451183             -8.695826            -4.091905
| 19>   H                      6.443825             -8.843585            -5.019329
| 20>   H                      5.190633             -9.018108            -2.425357
| 21>   H                      4.430538             -8.410827            -3.947022
| 22>   H                      4.918615             -10.093391           -3.951193
| 23> *
| 24>
| 25> #Run DFT-D3 single point of the molecule with dimer basis set
| 26> $new_job
| 27> %base "14-194_DFT_A"
| 28> ! wB97X-D3 def2-TZVP TIGHTSCF CHELPG PMODEL
| 29>
| 30> %scf
| 31> MaxIter 1000
| 32> end
| 33>
| 34> * xyz 0 1
| 35>   C                      8.342883             -9.562659            -7.085963
| 36>   O                      6.954251             -9.875099            -6.737926
| 37>   H                      6.672375             -10.682217           -7.228092
| 38>   H                      8.799559             -9.099347            -6.241238
| 39>   H                      8.929992             -10.375192           -7.488363
| 40>   H                      8.393096             -8.772650            -7.810404
| 41>   C                    : 5.199033             -9.097002            -3.574988
| 42>   O                    : 6.451183             -8.695826            -4.091905
| 43>   H                    : 6.443825             -8.843585            -5.019329
| 44>   H                    : 5.190633             -9.018108            -2.425357
| 45>   H                    : 4.430538             -8.410827            -3.947022
| 46>   H                    : 4.918615             -10.093391           -3.951193
| 47> *
| 48>
| 49> #Run DFT-D3 single point of the particle with dimer basis set
| 50> $new_job
| 51> %base "14-194_DFT_B"
| 52> ! wB97X-D3 def2-TZVP TIGHTSCF CHELPG PMODEL
| 53>
| 54> %scf
| 55> MaxIter 1000
| 56> end
| 57>
| 58> * xyz 0 1
| 59>   C                    : 8.342883             -9.562659            -7.085963
| 60>   O                    : 6.954251             -9.875099            -6.737926
| 61>   H                    : 6.672375             -10.682217           -7.228092
| 62>   H                    : 8.799559             -9.099347            -6.241238
| 63>   H                    : 8.929992             -10.375192           -7.488363
| 64>   H                    : 8.393096             -8.772650            -7.810404
| 65>   C                      5.199033             -9.097002            -3.574988
| 66>   O                      6.451183             -8.695826            -4.091905
| 67>   H                      6.443825             -8.843585            -5.019329
| 68>   H                      5.190633             -9.018108            -2.425357
| 69>   H                      4.430538             -8.410827            -3.947022
| 70>   H                      4.918615             -10.093391           -3.951193
| 71> *
| 72>
| 73>                          ****END OF INPUT****
 Total Charge           Charge          ....    0
 Multiplicity           Mult            ....    1
 Number of Electrons    NEL             ....   36
Dispersion correction           -0.001680163
FINAL SINGLE POINT ENERGY      -231.472067032708
Dispersion correction           -0.000275307
FINAL SINGLE POINT ENERGY      -115.731195906770

CARTESIAN COORDINATES (ANGSTROEM)
---------------------------------
  C      8.342883   -9.562659   -7.085963
  O      6.954251   -9.875099   -6.737926
  H      6.672375  -10.682217   -7.228092
  H      8.799559   -9.099347   -6.241238
  H      8.929992  -10.375192   -7.488363
  H      8.393096   -8.772650   -7.810404
  C      5.199033   -9.097002   -3.574988
  O      6.451183   -8.695826   -4.091905
  H      6.443825   -8.843585   -5.019329
  H      5.190633   -9.018108   -2.425357
  H      4.430538   -8.410827   -3.947022
  H      4.918615  -10.093391   -3.951193

 Multiplicity           Mult            ....    1
 Number of Electrons    NEL             ....   18
 Basis Dimension        Dim             ....  172

ORBITAL ENERGIES
----------------

  NO   OCC          E(Eh)            E(eV)
   0   2.0000     -19.228183      -523.2255
   1   2.0000     -10.320840      -280.8443
   2   2.0000      -1.141413       -31.0594
   3   2.0000      -0.791789       -21.5457
   4   2.0000      -0.614751       -16.7282
   5   2.0000      -0.539766       -14.6878
   6   2.0000      -0.524573       -14.2744
   7   2.0000      -0.435260       -11.8440
   8   2.0000      -0.371580       -10.1112
   9   0.0000       0.074796         2.0353
  10   0.0000       0.127258         3.4629
  11   0.0000       0.157134         4.2758
  12   0.0000       0.164174         4.4674
  13   0.0000       0.195363         5.3161

MULLIKEN ATOMIC CHARGES
-----------------------
   0 C :   -0.001749
   1 O :   -0.002688
   2 H :   -0.000091
   3 H :   -0.001541
   4 H :    0.000177
   5 H :    0.000024
   6 C :   -0.167339
   7 O :   -0.462248
   8 H :    0.309070
   9 H :    0.121800
  10 H :    0.104960
  11 H :    0.099625
Sum of atomic charges:   -0.0000000

LOEWDIN ATOMIC CHARGES
----------------------
   0 C :   -0.004206
   1 O :   -0.014469
   2 H :   -0.000613
   3 H :   -0.001357
   4 H :   -0.000041
   5 H :   -0.000074
   6 C :   -0.389619
   7 O :   -0.058469
   8 H :    0.160412
   9 H :    0.120714
  10 H :    0.093342
  11 H :    0.094380

  Mayer bond orders larger than 0.1
B(  6-C ,  7-O ) :   0.9905 B(  6-C ,  9-H ) :   0.9692 B(  6-C , 10-H ) :   0.9818
B(  6-C , 11-H ) :   0.9733 B(  7-O ,  8-H ) :   0.9072

Dispersion correction           -0.000233672
FINAL SINGLE POINT ENERGY      -115.733524108888

DIPOLE MOMENT
-------------
                                X             Y             Z
Electronic contribution:      1.67515       0.48600      -0.50013
Nuclear contribution   :     -2.18331      -0.73063       0.10990
                        -----------------------------------------
Total Dipole Moment    :     -0.50816      -0.24464      -0.39023
                        -----------------------------------------
Magnitude (a.u.)       :      0.68582
Magnitude (Debye)      :      1.74323

Rotational constants in cm-1:     4.161319     0.836968     0.797465
Rotational constants in MHz : 124753.199683 25091.665622 23907.410161

                             ****ORCA TERMINATED NORMALLY****
TOTAL RUN TIME: 0 days 0 hours 1 minutes 6 seconds 962 msec
