                         Program Version 4.1.2  - RELEASE  -
|  1> #Run DFT-D3 single point of the dimer
|  2> ! wB97X-D3 def2-TZVP TIGHTSCF CHELPG PMODEL PAL8
|  3>
|  4> %base "19-168_DFT_AB"
|  5>
|  6> %scf
|  7> MaxIter 1000
|  8> end
|  9>
| 10> * xyz 0 1
| 11>   C                      5.146326             -5.103840            1.842920
| 12>   O                      5.654684             -5.871163            0.799366
| 13>   H                      5.178208             -6.754287            0.859761
| 14>   H                      5.839088             -5.067599            2.729695
| 15>   H                      4.986382             -4.087363            1.493525
| 16>   H                      4.174827             -5.519229            2.109580
| 17>   C                      4.178309             -9.189257            3.320154
| 18>   O                      4.036862             -8.183899            2.323919
| 19>   H                      3.239052             -8.234917            1.789774
| 20>   H                      4.829064             -9.970014            2.936673
| 21>   H                      4.616725             -8.836189            4.237096
| 22>   H                      3.301943             -9.831720            3.544044
| 23> *
| 24>
| 25> #Run DFT-D3 single point of the molecule with dimer basis set
| 26> $new_job
| 27> %base "19-168_DFT_A"
| 28> ! wB97X-D3 def2-TZVP TIGHTSCF CHELPG PMODEL
| 29>
| 30> %scf
| 31> MaxIter 1000
| 32> end
| 33>
| 34> * xyz 0 1
| 35>   C                      5.146326             -5.103840            1.842920
| 36>   O                      5.654684             -5.871163            0.799366
| 37>   H                      5.178208             -6.754287            0.859761
| 38>   H                      5.839088             -5.067599            2.729695
| 39>   H                      4.986382             -4.087363            1.493525
| 40>   H                      4.174827             -5.519229            2.109580
| 41>   C                    : 4.178309             -9.189257            3.320154
| 42>   O                    : 4.036862             -8.183899            2.323919
| 43>   H                    : 3.239052             -8.234917            1.789774
| 44>   H                    : 4.829064             -9.970014            2.936673
| 45>   H                    : 4.616725             -8.836189            4.237096
| 46>   H                    : 3.301943             -9.831720            3.544044
| 47> *
| 48>
| 49> #Run DFT-D3 single point of the particle with dimer basis set
| 50> $new_job
| 51> %base "19-168_DFT_B"
| 52> ! wB97X-D3 def2-TZVP TIGHTSCF CHELPG PMODEL
| 53>
| 54> %scf
| 55> MaxIter 1000
| 56> end
| 57>
| 58> * xyz 0 1
| 59>   C                    : 5.146326             -5.103840            1.842920
| 60>   O                    : 5.654684             -5.871163            0.799366
| 61>   H                    : 5.178208             -6.754287            0.859761
| 62>   H                    : 5.839088             -5.067599            2.729695
| 63>   H                    : 4.986382             -4.087363            1.493525
| 64>   H                    : 4.174827             -5.519229            2.109580
| 65>   C                      4.178309             -9.189257            3.320154
| 66>   O                      4.036862             -8.183899            2.323919
| 67>   H                      3.239052             -8.234917            1.789774
| 68>   H                      4.829064             -9.970014            2.936673
| 69>   H                      4.616725             -8.836189            4.237096
| 70>   H                      3.301943             -9.831720            3.544044
| 71> *
| 72>
| 73>                          ****END OF INPUT****
 Total Charge           Charge          ....    0
 Multiplicity           Mult            ....    1
 Number of Electrons    NEL             ....   36
Dispersion correction           -0.001790043
FINAL SINGLE POINT ENERGY      -231.467814331220
Dispersion correction           -0.000232125
FINAL SINGLE POINT ENERGY      -115.731859234154

CARTESIAN COORDINATES (ANGSTROEM)
---------------------------------
  C      5.146326   -5.103840    1.842920
  O      5.654684   -5.871163    0.799366
  H      5.178208   -6.754287    0.859761
  H      5.839088   -5.067599    2.729695
  H      4.986382   -4.087363    1.493525
  H      4.174827   -5.519229    2.109580
  C      4.178309   -9.189257    3.320154
  O      4.036862   -8.183899    2.323919
  H      3.239052   -8.234917    1.789774
  H      4.829064   -9.970014    2.936673
  H      4.616725   -8.836189    4.237096
  H      3.301943   -9.831720    3.544044

 Multiplicity           Mult            ....    1
 Number of Electrons    NEL             ....   18
 Basis Dimension        Dim             ....  172

ORBITAL ENERGIES
----------------

  NO   OCC          E(Eh)            E(eV)
   0   2.0000     -19.231247      -523.3088
   1   2.0000     -10.313716      -280.6505
   2   2.0000      -1.129852       -30.7448
   3   2.0000      -0.802904       -21.8481
   4   2.0000      -0.617179       -16.7943
   5   2.0000      -0.540027       -14.6949
   6   2.0000      -0.520752       -14.1704
   7   2.0000      -0.430789       -11.7224
   8   2.0000      -0.371120       -10.0987
   9   0.0000       0.099949         2.7197
  10   0.0000       0.128110         3.4860
  11   0.0000       0.148684         4.0459
  12   0.0000       0.190136         5.1739
  13   0.0000       0.191935         5.2228

MULLIKEN ATOMIC CHARGES
-----------------------
   0 C :    0.011457
   1 O :   -0.000127
   2 H :   -0.009752
   3 H :   -0.001298
   4 H :   -0.000547
   5 H :   -0.014264
   6 C :   -0.166659
   7 O :   -0.475701
   8 H :    0.322310
   9 H :    0.106889
  10 H :    0.121801
  11 H :    0.105890
Sum of atomic charges:   -0.0000000

LOEWDIN ATOMIC CHARGES
----------------------
   0 C :   -0.008643
   1 O :   -0.001511
   2 H :   -0.017234
   3 H :   -0.000304
   4 H :   -0.000079
   5 H :   -0.008362
   6 C :   -0.380692
   7 O :   -0.054233
   8 H :    0.170188
   9 H :    0.097538
  10 H :    0.101580
  11 H :    0.101752

  Mayer bond orders larger than 0.1
B(  6-C ,  7-O ) :   0.9987 B(  6-C ,  9-H ) :   0.9786 B(  6-C , 10-H ) :   0.9746
B(  6-C , 11-H ) :   0.9701 B(  7-O ,  8-H ) :   0.8892

Dispersion correction           -0.000280784
FINAL SINGLE POINT ENERGY      -115.730077230839

DIPOLE MOMENT
-------------
                                X             Y             Z
Electronic contribution:     -0.15080       1.48310      -1.16671
Nuclear contribution   :     -0.33145      -1.97130       1.22573
                        -----------------------------------------
Total Dipole Moment    :     -0.48224      -0.48820       0.05902
                        -----------------------------------------
Magnitude (a.u.)       :      0.68876
Magnitude (Debye)      :      1.75068

Rotational constants in cm-1:     4.563928     0.806592     0.774841
Rotational constants in MHz : 136823.125703 24181.032201 23229.149478

                             ****ORCA TERMINATED NORMALLY****
TOTAL RUN TIME: 0 days 0 hours 0 minutes 50 seconds 639 msec
