                         Program Version 4.1.2  - RELEASE  -
|  1> #Run DFT-D3 single point of the dimer
|  2> ! wB97X-D3 def2-TZVP TIGHTSCF CHELPG PMODEL PAL8
|  3>
|  4> %base "13-26_DFT_AB"
|  5>
|  6> %scf
|  7> MaxIter 1000
|  8> end
|  9>
| 10> * xyz 0 1
| 11>   C                      8.730308             3.899226             2.149717
| 12>   O                      8.727510             4.515731             3.391171
| 13>   H                      8.971102             3.845364             4.096785
| 14>   H                      7.977863             3.093714             1.981061
| 15>   H                      8.611493             4.563490             1.375801
| 16>   H                      9.723099             3.443428             1.923112
| 17>   C                      6.065520             6.820496             3.350757
| 18>   O                      5.557544             5.519585             3.128299
| 19>   H                      5.541761             5.251409             2.194050
| 20>   H                      6.034227             7.196697             4.359763
| 21>   H                      7.174992             6.845973             3.143740
| 22>   H                      5.535883             7.584865             2.777882
| 23> *
| 24>
| 25> #Run DFT-D3 single point of the molecule with dimer basis set
| 26> $new_job
| 27> %base "13-26_DFT_A"
| 28> ! wB97X-D3 def2-TZVP TIGHTSCF CHELPG PMODEL
| 29>
| 30> %scf
| 31> MaxIter 1000
| 32> end
| 33>
| 34> * xyz 0 1
| 35>   C                      8.730308             3.899226             2.149717
| 36>   O                      8.727510             4.515731             3.391171
| 37>   H                      8.971102             3.845364             4.096785
| 38>   H                      7.977863             3.093714             1.981061
| 39>   H                      8.611493             4.563490             1.375801
| 40>   H                      9.723099             3.443428             1.923112
| 41>   C                    : 6.065520             6.820496             3.350757
| 42>   O                    : 5.557544             5.519585             3.128299
| 43>   H                    : 5.541761             5.251409             2.194050
| 44>   H                    : 6.034227             7.196697             4.359763
| 45>   H                    : 7.174992             6.845973             3.143740
| 46>   H                    : 5.535883             7.584865             2.777882
| 47> *
| 48>
| 49> #Run DFT-D3 single point of the particle with dimer basis set
| 50> $new_job
| 51> %base "13-26_DFT_B"
| 52> ! wB97X-D3 def2-TZVP TIGHTSCF CHELPG PMODEL
| 53>
| 54> %scf
| 55> MaxIter 1000
| 56> end
| 57>
| 58> * xyz 0 1
| 59>   C                    : 8.730308             3.899226             2.149717
| 60>   O                    : 8.727510             4.515731             3.391171
| 61>   H                    : 8.971102             3.845364             4.096785
| 62>   H                    : 7.977863             3.093714             1.981061
| 63>   H                    : 8.611493             4.563490             1.375801
| 64>   H                    : 9.723099             3.443428             1.923112
| 65>   C                      6.065520             6.820496             3.350757
| 66>   O                      5.557544             5.519585             3.128299
| 67>   H                      5.541761             5.251409             2.194050
| 68>   H                      6.034227             7.196697             4.359763
| 69>   H                      7.174992             6.845973             3.143740
| 70>   H                      5.535883             7.584865             2.777882
| 71> *
| 72>
| 73>                          ****END OF INPUT****
 Total Charge           Charge          ....    0
 Multiplicity           Mult            ....    1
 Number of Electrons    NEL             ....   36
Dispersion correction           -0.001957138
FINAL SINGLE POINT ENERGY      -231.462071013576
Dispersion correction           -0.000250196
FINAL SINGLE POINT ENERGY      -115.730339801069

CARTESIAN COORDINATES (ANGSTROEM)
---------------------------------
  C      8.730308    3.899226    2.149717
  O      8.727510    4.515731    3.391171
  H      8.971102    3.845364    4.096785
  H      7.977863    3.093714    1.981061
  H      8.611493    4.563490    1.375801
  H      9.723099    3.443428    1.923112
  C      6.065520    6.820496    3.350757
  O      5.557544    5.519585    3.128299
  H      5.541761    5.251409    2.194050
  H      6.034227    7.196697    4.359763
  H      7.174992    6.845973    3.143740
  H      5.535883    7.584865    2.777882

 Multiplicity           Mult            ....    1
 Number of Electrons    NEL             ....   18
 Basis Dimension        Dim             ....  172

ORBITAL ENERGIES
----------------

  NO   OCC          E(Eh)            E(eV)
   0   2.0000     -19.231767      -523.3230
   1   2.0000     -10.315926      -280.7106
   2   2.0000      -1.130913       -30.7737
   3   2.0000      -0.798724       -21.7344
   4   2.0000      -0.610151       -16.6031
   5   2.0000      -0.541423       -14.7329
   6   2.0000      -0.531486       -14.4625
   7   2.0000      -0.420406       -11.4398
   8   2.0000      -0.373907       -10.1745
   9   0.0000       0.080491         2.1903
  10   0.0000       0.129209         3.5160
  11   0.0000       0.144217         3.9244
  12   0.0000       0.168098         4.5742
  13   0.0000       0.186093         5.0639

MULLIKEN ATOMIC CHARGES
-----------------------
   0 C :   -0.006893
   1 O :    0.001887
   2 H :   -0.000013
   3 H :    0.000066
   4 H :    0.000041
   5 H :   -0.000318
   6 C :   -0.160551
   7 O :   -0.486004
   8 H :    0.324701
   9 H :    0.125372
  10 H :    0.096303
  11 H :    0.105407
Sum of atomic charges:    0.0000000

LOEWDIN ATOMIC CHARGES
----------------------
   0 C :   -0.005342
   1 O :   -0.002890
   2 H :   -0.000242
   3 H :   -0.000653
   4 H :   -0.000466
   5 H :   -0.000117
   6 C :   -0.389125
   7 O :   -0.079339
   8 H :    0.177270
   9 H :    0.105572
  10 H :    0.100726
  11 H :    0.094607

  Mayer bond orders larger than 0.1
B(  6-C ,  7-O ) :   0.9986 B(  6-C ,  9-H ) :   0.9692 B(  6-C , 10-H ) :   0.9791
B(  6-C , 11-H ) :   0.9804 B(  7-O ,  8-H ) :   0.8874

Dispersion correction           -0.000269726
FINAL SINGLE POINT ENERGY      -115.731338460287

DIPOLE MOMENT
-------------
                                X             Y             Z
Electronic contribution:     -0.79638      -1.72489      -0.14268
Nuclear contribution   :      0.96839       2.09763      -0.34512
                        -----------------------------------------
Total Dipole Moment    :      0.17201       0.37273      -0.48780
                        -----------------------------------------
Magnitude (a.u.)       :      0.63755
Magnitude (Debye)      :      1.62051

Rotational constants in cm-1:     4.461680     0.804993     0.790033
Rotational constants in MHz : 133757.787523 24133.076222 23684.578931

                             ****ORCA TERMINATED NORMALLY****
TOTAL RUN TIME: 0 days 0 hours 1 minutes 10 seconds 183 msec
