                         Program Version 4.1.2  - RELEASE  -
|  1> #Run DFT-D3 single point of the dimer
|  2> ! wB97X-D3 def2-TZVP TIGHTSCF CHELPG PMODEL PAL8
|  3>
|  4> %base "19-10_DFT_AB"
|  5>
|  6> %scf
|  7> MaxIter 1000
|  8> end
|  9>
| 10> * xyz 0 1
| 11>   C                      -7.667179            -9.209066            3.339312
| 12>   O                      -8.331323            -9.779651            4.428187
| 13>   H                      -8.630029            -10.674345           4.174091
| 14>   H                      -6.594837            -9.317972            3.473686
| 15>   H                      -7.952272            -9.648018            2.417688
| 16>   H                      -7.931544            -8.142269            3.023550
| 17>   C                      -10.785835           -11.091892           7.660217
| 18>   O                      -12.073884           -10.490305           7.658475
| 19>   H                      -12.699919           -11.216624           7.552351
| 20>   H                      -10.375600           -11.206624           6.627632
| 21>   H                      -10.060430           -10.513507           8.236391
| 22>   H                      -10.885853           -12.006232           8.157941
| 23> *
| 24>
| 25> #Run DFT-D3 single point of the molecule with dimer basis set
| 26> $new_job
| 27> %base "19-10_DFT_A"
| 28> ! wB97X-D3 def2-TZVP TIGHTSCF CHELPG PMODEL
| 29>
| 30> %scf
| 31> MaxIter 1000
| 32> end
| 33>
| 34> * xyz 0 1
| 35>   C                      -7.667179            -9.209066            3.339312
| 36>   O                      -8.331323            -9.779651            4.428187
| 37>   H                      -8.630029            -10.674345           4.174091
| 38>   H                      -6.594837            -9.317972            3.473686
| 39>   H                      -7.952272            -9.648018            2.417688
| 40>   H                      -7.931544            -8.142269            3.023550
| 41>   C                    : -10.785835           -11.091892           7.660217
| 42>   O                    : -12.073884           -10.490305           7.658475
| 43>   H                    : -12.699919           -11.216624           7.552351
| 44>   H                    : -10.375600           -11.206624           6.627632
| 45>   H                    : -10.060430           -10.513507           8.236391
| 46>   H                    : -10.885853           -12.006232           8.157941
| 47> *
| 48>
| 49> #Run DFT-D3 single point of the particle with dimer basis set
| 50> $new_job
| 51> %base "19-10_DFT_B"
| 52> ! wB97X-D3 def2-TZVP TIGHTSCF CHELPG PMODEL
| 53>
| 54> %scf
| 55> MaxIter 1000
| 56> end
| 57>
| 58> * xyz 0 1
| 59>   C                    : -7.667179            -9.209066            3.339312
| 60>   O                    : -8.331323            -9.779651            4.428187
| 61>   H                    : -8.630029            -10.674345           4.174091
| 62>   H                    : -6.594837            -9.317972            3.473686
| 63>   H                    : -7.952272            -9.648018            2.417688
| 64>   H                    : -7.931544            -8.142269            3.023550
| 65>   C                      -10.785835           -11.091892           7.660217
| 66>   O                      -12.073884           -10.490305           7.658475
| 67>   H                      -12.699919           -11.216624           7.552351
| 68>   H                      -10.375600           -11.206624           6.627632
| 69>   H                      -10.060430           -10.513507           8.236391
| 70>   H                      -10.885853           -12.006232           8.157941
| 71> *
| 72>
| 73>                          ****END OF INPUT****
 Total Charge           Charge          ....    0
 Multiplicity           Mult            ....    1
 Number of Electrons    NEL             ....   36
Dispersion correction           -0.000906181
FINAL SINGLE POINT ENERGY      -231.459923261633
Dispersion correction           -0.000250984
FINAL SINGLE POINT ENERGY      -115.726942243535

CARTESIAN COORDINATES (ANGSTROEM)
---------------------------------
  C     -7.667179   -9.209066    3.339312
  O     -8.331323   -9.779651    4.428187
  H     -8.630029  -10.674345    4.174091
  H     -6.594837   -9.317972    3.473686
  H     -7.952272   -9.648018    2.417688
  H     -7.931544   -8.142269    3.023550
  C    -10.785835  -11.091892    7.660217
  O    -12.073884  -10.490305    7.658475
  H    -12.699919  -11.216624    7.552351
  H    -10.375600  -11.206624    6.627632
  H    -10.060430  -10.513507    8.236391
  H    -10.885853  -12.006232    8.157941

 Multiplicity           Mult            ....    1
 Number of Electrons    NEL             ....   18
 Basis Dimension        Dim             ....  172

ORBITAL ENERGIES
----------------

  NO   OCC          E(Eh)            E(eV)
   0   2.0000     -19.228992      -523.2475
   1   2.0000     -10.310479      -280.5624
   2   2.0000      -1.133935       -30.8559
   3   2.0000      -0.795695       -21.6520
   4   2.0000      -0.608338       -16.5537
   5   2.0000      -0.544807       -14.8249
   6   2.0000      -0.529236       -14.4013
   7   2.0000      -0.432540       -11.7700
   8   2.0000      -0.373881       -10.1738
   9   0.0000       0.086575         2.3558
  10   0.0000       0.114476         3.1151
  11   0.0000       0.142394         3.8747
  12   0.0000       0.176395         4.8000
  13   0.0000       0.198982         5.4146

MULLIKEN ATOMIC CHARGES
-----------------------
   0 C :    0.000026
   1 O :    0.000087
   2 H :   -0.000254
   3 H :   -0.000003
   4 H :    0.000000
   5 H :    0.000001
   6 C :   -0.165205
   7 O :   -0.473407
   8 H :    0.314363
   9 H :    0.100389
  10 H :    0.114788
  11 H :    0.109213
Sum of atomic charges:   -0.0000000

LOEWDIN ATOMIC CHARGES
----------------------
   0 C :   -0.000018
   1 O :   -0.000451
   2 H :   -0.001006
   3 H :   -0.000001
   4 H :   -0.000000
   5 H :   -0.000000
   6 C :   -0.376358
   7 O :   -0.086901
   8 H :    0.171857
   9 H :    0.100144
  10 H :    0.105838
  11 H :    0.086896

  Mayer bond orders larger than 0.1
B(  6-C ,  7-O ) :   0.9995 B(  6-C ,  9-H ) :   0.9710 B(  6-C , 10-H ) :   0.9732
B(  6-C , 11-H ) :   0.9897 B(  7-O ,  8-H ) :   0.9017

Dispersion correction           -0.000232668
FINAL SINGLE POINT ENERGY      -115.732942270709

DIPOLE MOMENT
-------------
                                X             Y             Z
Electronic contribution:     -1.56376       0.88160       0.02148
Nuclear contribution   :      1.68394      -1.59443      -0.05130
                        -----------------------------------------
Total Dipole Moment    :      0.12018      -0.71283      -0.02982
                        -----------------------------------------
Magnitude (a.u.)       :      0.72350
Magnitude (Debye)      :      1.83899

Rotational constants in cm-1:     4.317163     0.826193     0.803378
Rotational constants in MHz : 129425.278771 24768.628120 24084.654983

                             ****ORCA TERMINATED NORMALLY****
TOTAL RUN TIME: 0 days 0 hours 0 minutes 49 seconds 492 msec
