                         Program Version 4.1.2  - RELEASE  -
|  1> #Run DFT-D3 single point of the dimer
|  2> ! wB97X-D3 def2-TZVP TIGHTSCF CHELPG PMODEL PAL8
|  3>
|  4> %base "2-75_DFT_AB"
|  5>
|  6> %scf
|  7> MaxIter 1000
|  8> end
|  9>
| 10> * xyz 0 1
| 11>   C                      -6.296488            0.198913             2.792889
| 12>   O                      -6.461516            -0.521665            1.555688
| 13>   H                      -5.961074            -1.353102            1.626890
| 14>   H                      -6.761771            -0.381322            3.663012
| 15>   H                      -5.261582            0.262228             3.149411
| 16>   H                      -6.779186            1.233509             2.736756
| 17>   C                      -2.197106            2.999726             0.244676
| 18>   O                      -2.077694            3.934402             -0.773243
| 19>   H                      -1.174624            4.272420             -0.698068
| 20>   H                      -2.433682            3.459096             1.167180
| 21>   H                      -2.846017            2.155096             0.044249
| 22>   H                      -1.193848            2.548132             0.440142
| 23> *
| 24>
| 25> #Run DFT-D3 single point of the molecule with dimer basis set
| 26> $new_job
| 27> %base "2-75_DFT_A"
| 28> ! wB97X-D3 def2-TZVP TIGHTSCF CHELPG PMODEL
| 29>
| 30> %scf
| 31> MaxIter 1000
| 32> end
| 33>
| 34> * xyz 0 1
| 35>   C                      -6.296488            0.198913             2.792889
| 36>   O                      -6.461516            -0.521665            1.555688
| 37>   H                      -5.961074            -1.353102            1.626890
| 38>   H                      -6.761771            -0.381322            3.663012
| 39>   H                      -5.261582            0.262228             3.149411
| 40>   H                      -6.779186            1.233509             2.736756
| 41>   C                    : -2.197106            2.999726             0.244676
| 42>   O                    : -2.077694            3.934402             -0.773243
| 43>   H                    : -1.174624            4.272420             -0.698068
| 44>   H                    : -2.433682            3.459096             1.167180
| 45>   H                    : -2.846017            2.155096             0.044249
| 46>   H                    : -1.193848            2.548132             0.440142
| 47> *
| 48>
| 49> #Run DFT-D3 single point of the particle with dimer basis set
| 50> $new_job
| 51> %base "2-75_DFT_B"
| 52> ! wB97X-D3 def2-TZVP TIGHTSCF CHELPG PMODEL
| 53>
| 54> %scf
| 55> MaxIter 1000
| 56> end
| 57>
| 58> * xyz 0 1
| 59>   C                    : -6.296488            0.198913             2.792889
| 60>   O                    : -6.461516            -0.521665            1.555688
| 61>   H                    : -5.961074            -1.353102            1.626890
| 62>   H                    : -6.761771            -0.381322            3.663012
| 63>   H                    : -5.261582            0.262228             3.149411
| 64>   H                    : -6.779186            1.233509             2.736756
| 65>   C                      -2.197106            2.999726             0.244676
| 66>   O                      -2.077694            3.934402             -0.773243
| 67>   H                      -1.174624            4.272420             -0.698068
| 68>   H                      -2.433682            3.459096             1.167180
| 69>   H                      -2.846017            2.155096             0.044249
| 70>   H                      -1.193848            2.548132             0.440142
| 71> *
| 72>
| 73>                          ****END OF INPUT****
 Total Charge           Charge          ....    0
 Multiplicity           Mult            ....    1
 Number of Electrons    NEL             ....   36
Dispersion correction           -0.000647998
FINAL SINGLE POINT ENERGY      -231.461980520513
Dispersion correction           -0.000270371
FINAL SINGLE POINT ENERGY      -115.730806703397

CARTESIAN COORDINATES (ANGSTROEM)
---------------------------------
  C     -6.296488    0.198913    2.792889
  O     -6.461516   -0.521665    1.555688
  H     -5.961074   -1.353102    1.626890
  H     -6.761771   -0.381322    3.663012
  H     -5.261582    0.262228    3.149411
  H     -6.779186    1.233509    2.736756
  C     -2.197106    2.999726    0.244676
  O     -2.077694    3.934402   -0.773243
  H     -1.174624    4.272420   -0.698068
  H     -2.433682    3.459096    1.167180
  H     -2.846017    2.155096    0.044249
  H     -1.193848    2.548132    0.440142

 Multiplicity           Mult            ....    1
 Number of Electrons    NEL             ....   18
 Basis Dimension        Dim             ....  172

ORBITAL ENERGIES
----------------

  NO   OCC          E(Eh)            E(eV)
   0   2.0000     -19.231109      -523.3051
   1   2.0000     -10.308066      -280.4967
   2   2.0000      -1.145714       -31.1765
   3   2.0000      -0.794611       -21.6225
   4   2.0000      -0.616651       -16.7799
   5   2.0000      -0.549746       -14.9593
   6   2.0000      -0.531725       -14.4690
   7   2.0000      -0.430287       -11.7087
   8   2.0000      -0.372499       -10.1362
   9   0.0000       0.083830         2.2811
  10   0.0000       0.110866         3.0168
  11   0.0000       0.152567         4.1516
  12   0.0000       0.162851         4.4314
  13   0.0000       0.191982         5.2241

MULLIKEN ATOMIC CHARGES
-----------------------
   0 C :   -0.000024
   1 O :   -0.000002
   2 H :   -0.000002
   3 H :   -0.000001
   4 H :    0.000001
   5 H :   -0.000002
   6 C :   -0.166966
   7 O :   -0.463090
   8 H :    0.320748
   9 H :    0.101118
  10 H :    0.118824
  11 H :    0.089396
Sum of atomic charges:   -0.0000000

LOEWDIN ATOMIC CHARGES
----------------------
   0 C :   -0.000036
   1 O :   -0.000003
   2 H :   -0.000002
   3 H :   -0.000000
   4 H :   -0.000014
   5 H :   -0.000003
   6 C :   -0.406511
   7 O :   -0.061574
   8 H :    0.180121
   9 H :    0.085955
  10 H :    0.103623
  11 H :    0.098443

  Mayer bond orders larger than 0.1
B(  6-C ,  7-O ) :   1.0080 B(  6-C ,  9-H ) :   0.9752 B(  6-C , 10-H ) :   0.9709
B(  6-C , 11-H ) :   0.9934 B(  7-O ,  8-H ) :   0.8967

Dispersion correction           -0.000217076
FINAL SINGLE POINT ENERGY      -115.731136336107

DIPOLE MOMENT
-------------
                                X             Y             Z
Electronic contribution:     -0.17488       1.23898      -1.44492
Nuclear contribution   :      0.71175      -1.38721       1.87916
                        -----------------------------------------
Total Dipole Moment    :      0.53687      -0.14824       0.43424
                        -----------------------------------------
Magnitude (a.u.)       :      0.70623
Magnitude (Debye)      :      1.79509

Rotational constants in cm-1:     4.369207     0.860383     0.824851
Rotational constants in MHz : 130985.539299 25793.638173 24728.416844

                             ****ORCA TERMINATED NORMALLY****
TOTAL RUN TIME: 0 days 0 hours 5 minutes 59 seconds 790 msec
