                         Program Version 4.1.2  - RELEASE  -
|  1> #Run DFT-D3 single point of the dimer
|  2> ! wB97X-D3 def2-TZVP TIGHTSCF CHELPG PMODEL PAL8
|  3>
|  4> %base "16-67_DFT_AB"
|  5>
|  6> %scf
|  7> MaxIter 1000
|  8> end
|  9>
| 10> * xyz 0 1
| 11>   C                      1.882657             -5.473259            -4.311445
| 12>   O                      1.200089             -6.616802            -4.829966
| 13>   H                      0.588911             -6.281126            -5.540718
| 14>   H                      2.877696             -5.712606            -3.843402
| 15>   H                      2.170245             -4.752331            -5.142988
| 16>   H                      1.250145             -4.869591            -3.657311
| 17>   C                      2.939771             -2.227790            -3.898580
| 18>   O                      1.598532             -2.364146            -4.278818
| 19>   H                      1.030626             -2.578482            -3.519687
| 20>   H                      3.277107             -1.226841            -3.999841
| 21>   H                      3.127707             -2.535293            -2.947594
| 22>   H                      3.644106             -2.871156            -4.413165
| 23> *
| 24>
| 25> #Run DFT-D3 single point of the molecule with dimer basis set
| 26> $new_job
| 27> %base "16-67_DFT_A"
| 28> ! wB97X-D3 def2-TZVP TIGHTSCF CHELPG PMODEL
| 29>
| 30> %scf
| 31> MaxIter 1000
| 32> end
| 33>
| 34> * xyz 0 1
| 35>   C                      1.882657             -5.473259            -4.311445
| 36>   O                      1.200089             -6.616802            -4.829966
| 37>   H                      0.588911             -6.281126            -5.540718
| 38>   H                      2.877696             -5.712606            -3.843402
| 39>   H                      2.170245             -4.752331            -5.142988
| 40>   H                      1.250145             -4.869591            -3.657311
| 41>   C                    : 2.939771             -2.227790            -3.898580
| 42>   O                    : 1.598532             -2.364146            -4.278818
| 43>   H                    : 1.030626             -2.578482            -3.519687
| 44>   H                    : 3.277107             -1.226841            -3.999841
| 45>   H                    : 3.127707             -2.535293            -2.947594
| 46>   H                    : 3.644106             -2.871156            -4.413165
| 47> *
| 48>
| 49> #Run DFT-D3 single point of the particle with dimer basis set
| 50> $new_job
| 51> %base "16-67_DFT_B"
| 52> ! wB97X-D3 def2-TZVP TIGHTSCF CHELPG PMODEL
| 53>
| 54> %scf
| 55> MaxIter 1000
| 56> end
| 57>
| 58> * xyz 0 1
| 59>   C                    : 1.882657             -5.473259            -4.311445
| 60>   O                    : 1.200089             -6.616802            -4.829966
| 61>   H                    : 0.588911             -6.281126            -5.540718
| 62>   H                    : 2.877696             -5.712606            -3.843402
| 63>   H                    : 2.170245             -4.752331            -5.142988
| 64>   H                    : 1.250145             -4.869591            -3.657311
| 65>   C                      2.939771             -2.227790            -3.898580
| 66>   O                      1.598532             -2.364146            -4.278818
| 67>   H                      1.030626             -2.578482            -3.519687
| 68>   H                      3.277107             -1.226841            -3.999841
| 69>   H                      3.127707             -2.535293            -2.947594
| 70>   H                      3.644106             -2.871156            -4.413165
| 71> *
| 72>
| 73>                          ****END OF INPUT****
 Total Charge           Charge          ....    0
 Multiplicity           Mult            ....    1
 Number of Electrons    NEL             ....   36
Dispersion correction           -0.002217695
FINAL SINGLE POINT ENERGY      -231.459372459981
Dispersion correction           -0.000260539
FINAL SINGLE POINT ENERGY      -115.731275810291

CARTESIAN COORDINATES (ANGSTROEM)
---------------------------------
  C      1.882657   -5.473259   -4.311445
  O      1.200089   -6.616802   -4.829966
  H      0.588911   -6.281126   -5.540718
  H      2.877696   -5.712606   -3.843402
  H      2.170245   -4.752331   -5.142988
  H      1.250145   -4.869591   -3.657311
  C      2.939771   -2.227790   -3.898580
  O      1.598532   -2.364146   -4.278818
  H      1.030626   -2.578482   -3.519687
  H      3.277107   -1.226841   -3.999841
  H      3.127707   -2.535293   -2.947594
  H      3.644106   -2.871156   -4.413165

 Multiplicity           Mult            ....    1
 Number of Electrons    NEL             ....   18
 Basis Dimension        Dim             ....  172

ORBITAL ENERGIES
----------------

  NO   OCC          E(Eh)            E(eV)
   0   2.0000     -19.231718      -523.3216
   1   2.0000     -10.298573      -280.2384
   2   2.0000      -1.136038       -30.9132
   3   2.0000      -0.807993       -21.9866
   4   2.0000      -0.622494       -16.9389
   5   2.0000      -0.546331       -14.8664
   6   2.0000      -0.529226       -14.4010
   7   2.0000      -0.429077       -11.6758
   8   2.0000      -0.375369       -10.2143
   9   0.0000       0.086300         2.3483
  10   0.0000       0.130607         3.5540
  11   0.0000       0.145346         3.9551
  12   0.0000       0.184181         5.0118
  13   0.0000       0.194670         5.2972

MULLIKEN ATOMIC CHARGES
-----------------------
   0 C :    0.011452
   1 O :   -0.000182
   2 H :   -0.000332
   3 H :   -0.000764
   4 H :   -0.000724
   5 H :   -0.020306
   6 C :   -0.163667
   7 O :   -0.481494
   8 H :    0.323546
   9 H :    0.116940
  10 H :    0.113385
  11 H :    0.102145
Sum of atomic charges:    0.0000000

LOEWDIN ATOMIC CHARGES
----------------------
   0 C :   -0.016421
   1 O :   -0.000042
   2 H :   -0.000050
   3 H :   -0.000534
   4 H :   -0.007095
   5 H :   -0.009795
   6 C :   -0.380120
   7 O :   -0.049375
   8 H :    0.180062
   9 H :    0.096251
  10 H :    0.083137
  11 H :    0.103983

  Mayer bond orders larger than 0.1
B(  6-C ,  7-O ) :   1.0000 B(  6-C ,  9-H ) :   0.9807 B(  6-C , 10-H ) :   0.9871
B(  6-C , 11-H ) :   0.9762 B(  7-O ,  8-H ) :   0.8925

Dispersion correction           -0.000245648
FINAL SINGLE POINT ENERGY      -115.727865951214

DIPOLE MOMENT
-------------
                                X             Y             Z
Electronic contribution:     -1.76079      -0.09708      -0.60579
Nuclear contribution   :      1.94626       0.00809       1.29493
                        -----------------------------------------
Total Dipole Moment    :      0.18547      -0.08899       0.68913
                        -----------------------------------------
Magnitude (a.u.)       :      0.71918
Magnitude (Debye)      :      1.82802

Rotational constants in cm-1:     4.746795     0.831475     0.811266
Rotational constants in MHz : 142305.332261 24926.978672 24321.132651

                             ****ORCA TERMINATED NORMALLY****
TOTAL RUN TIME: 0 days 0 hours 1 minutes 3 seconds 605 msec
