                         Program Version 4.1.2  - RELEASE  -
|  1> #Run DFT-D3 single point of the dimer
|  2> ! wB97X-D3 def2-TZVP TIGHTSCF CHELPG PMODEL PAL8
|  3>
|  4> %base "1-61_DFT_AB"
|  5>
|  6> %scf
|  7> MaxIter 1000
|  8> end
|  9>
| 10> * xyz 0 1
| 11>   C                      -2.795325            9.217840             5.555766
| 12>   O                      -3.946272            9.686863             6.213946
| 13>   H                      -3.969267            9.351075             7.120477
| 14>   H                      -2.991524            9.209093             4.464861
| 15>   H                      -1.885058            9.769403             5.855998
| 16>   H                      -2.593840            8.207868             5.831886
| 17>   C                      -4.351667            5.254473             6.920647
| 18>   O                      -5.704513            5.376898             6.739659
| 19>   H                      -5.942629            5.492009             5.833962
| 20>   H                      -4.171133            4.701593             7.857598
| 21>   H                      -3.847408            4.840025             6.094159
| 22>   H                      -3.916681            6.286763             6.979087
| 23> *
| 24>
| 25> #Run DFT-D3 single point of the molecule with dimer basis set
| 26> $new_job
| 27> %base "1-61_DFT_A"
| 28> ! wB97X-D3 def2-TZVP TIGHTSCF CHELPG PMODEL
| 29>
| 30> %scf
| 31> MaxIter 1000
| 32> end
| 33>
| 34> * xyz 0 1
| 35>   C                      -2.795325            9.217840             5.555766
| 36>   O                      -3.946272            9.686863             6.213946
| 37>   H                      -3.969267            9.351075             7.120477
| 38>   H                      -2.991524            9.209093             4.464861
| 39>   H                      -1.885058            9.769403             5.855998
| 40>   H                      -2.593840            8.207868             5.831886
| 41>   C                    : -4.351667            5.254473             6.920647
| 42>   O                    : -5.704513            5.376898             6.739659
| 43>   H                    : -5.942629            5.492009             5.833962
| 44>   H                    : -4.171133            4.701593             7.857598
| 45>   H                    : -3.847408            4.840025             6.094159
| 46>   H                    : -3.916681            6.286763             6.979087
| 47> *
| 48>
| 49> #Run DFT-D3 single point of the particle with dimer basis set
| 50> $new_job
| 51> %base "1-61_DFT_B"
| 52> ! wB97X-D3 def2-TZVP TIGHTSCF CHELPG PMODEL
| 53>
| 54> %scf
| 55> MaxIter 1000
| 56> end
| 57>
| 58> * xyz 0 1
| 59>   C                    : -2.795325            9.217840             5.555766
| 60>   O                    : -3.946272            9.686863             6.213946
| 61>   H                    : -3.969267            9.351075             7.120477
| 62>   H                    : -2.991524            9.209093             4.464861
| 63>   H                    : -1.885058            9.769403             5.855998
| 64>   H                    : -2.593840            8.207868             5.831886
| 65>   C                      -4.351667            5.254473             6.920647
| 66>   O                      -5.704513            5.376898             6.739659
| 67>   H                      -5.942629            5.492009             5.833962
| 68>   H                      -4.171133            4.701593             7.857598
| 69>   H                      -3.847408            4.840025             6.094159
| 70>   H                      -3.916681            6.286763             6.979087
| 71> *
| 72>
| 73>                          ****END OF INPUT****
 Total Charge           Charge          ....    0
 Multiplicity           Mult            ....    1
 Number of Electrons    NEL             ....   36
Dispersion correction           -0.001283817
FINAL SINGLE POINT ENERGY      -231.467527159613
Dispersion correction           -0.000237326
FINAL SINGLE POINT ENERGY      -115.734778547919

CARTESIAN COORDINATES (ANGSTROEM)
---------------------------------
  C     -2.795325    9.217840    5.555766
  O     -3.946272    9.686863    6.213946
  H     -3.969267    9.351075    7.120477
  H     -2.991524    9.209093    4.464861
  H     -1.885058    9.769403    5.855998
  H     -2.593840    8.207868    5.831886
  C     -4.351667    5.254473    6.920647
  O     -5.704513    5.376898    6.739659
  H     -5.942629    5.492009    5.833962
  H     -4.171133    4.701593    7.857598
  H     -3.847408    4.840025    6.094159
  H     -3.916681    6.286763    6.979087

 Multiplicity           Mult            ....    1
 Number of Electrons    NEL             ....   18
 Basis Dimension        Dim             ....  172

ORBITAL ENERGIES
----------------

  NO   OCC          E(Eh)            E(eV)
   0   2.0000     -19.224782      -523.1329
   1   2.0000     -10.308262      -280.5021
   2   2.0000      -1.149789       -31.2873
   3   2.0000      -0.797360       -21.6973
   4   2.0000      -0.627354       -17.0712
   5   2.0000      -0.540714       -14.7136
   6   2.0000      -0.532327       -14.4854
   7   2.0000      -0.432410       -11.7665
   8   2.0000      -0.365328        -9.9411
   9   0.0000       0.083960         2.2847
  10   0.0000       0.121692         3.3114
  11   0.0000       0.159368         4.3366
  12   0.0000       0.162097         4.4109
  13   0.0000       0.192493         5.2380

MULLIKEN ATOMIC CHARGES
-----------------------
   0 C :    0.002706
   1 O :   -0.000041
   2 H :    0.000209
   3 H :   -0.000314
   4 H :   -0.000003
   5 H :   -0.003763
   6 C :   -0.150485
   7 O :   -0.471256
   8 H :    0.313308
   9 H :    0.115675
  10 H :    0.104632
  11 H :    0.089332
Sum of atomic charges:    0.0000000

LOEWDIN ATOMIC CHARGES
----------------------
   0 C :   -0.001659
   1 O :   -0.000088
   2 H :   -0.000519
   3 H :   -0.000025
   4 H :   -0.000005
   5 H :   -0.003331
   6 C :   -0.411655
   7 O :   -0.039148
   8 H :    0.159747
   9 H :    0.111005
  10 H :    0.085709
  11 H :    0.099969

  Mayer bond orders larger than 0.1
B(  6-C ,  7-O ) :   1.0022 B(  6-C ,  9-H ) :   0.9708 B(  6-C , 10-H ) :   0.9806
B(  6-C , 11-H ) :   0.9799 B(  7-O ,  8-H ) :   0.8993

Dispersion correction           -0.000223966
FINAL SINGLE POINT ENERGY      -115.731761823783

DIPOLE MOMENT
-------------
                                X             Y             Z
Electronic contribution:     -1.78732      -0.01439      -0.14231
Nuclear contribution   :      2.13871       0.01945      -0.41447
                        -----------------------------------------
Total Dipole Moment    :      0.35139       0.00507      -0.55678
                        -----------------------------------------
Magnitude (a.u.)       :      0.65841
Magnitude (Debye)      :      1.67355

Rotational constants in cm-1:     4.349418     0.877377     0.840660
Rotational constants in MHz : 130392.256445 26303.103492 25202.342969

                             ****ORCA TERMINATED NORMALLY****
TOTAL RUN TIME: 0 days 0 hours 5 minutes 47 seconds 39 msec
