                         Program Version 4.1.2  - RELEASE  -
|  1> #Run DFT-D3 single point of the dimer
|  2> ! wB97X-D3 def2-TZVP TIGHTSCF CHELPG PMODEL PAL8
|  3>
|  4> %base "18-176_DFT_AB"
|  5>
|  6> %scf
|  7> MaxIter 1000
|  8> end
|  9>
| 10> * xyz 0 1
| 11>   C                      10.626714            -1.553209            -3.493255
| 12>   O                      10.101864            -0.817271            -4.619410
| 13>   H                      10.209044            0.073226             -4.410134
| 14>   H                      11.118105            -2.500433            -3.664724
| 15>   H                      11.313706            -0.899889            -2.978231
| 16>   H                      9.792172             -1.717324            -2.734671
| 17>   C                      10.128577            0.098016             -7.714797
| 18>   O                      10.258327            1.347297             -7.099161
| 19>   H                      9.527064             1.536801             -6.495390
| 20>   H                      10.339531            -0.673182            -6.936152
| 21>   H                      9.078688             0.010444             -8.055894
| 22>   H                      10.771831            -0.072254            -8.598922
| 23> *
| 24>
| 25> #Run DFT-D3 single point of the molecule with dimer basis set
| 26> $new_job
| 27> %base "18-176_DFT_A"
| 28> ! wB97X-D3 def2-TZVP TIGHTSCF CHELPG PMODEL
| 29>
| 30> %scf
| 31> MaxIter 1000
| 32> end
| 33>
| 34> * xyz 0 1
| 35>   C                      10.626714            -1.553209            -3.493255
| 36>   O                      10.101864            -0.817271            -4.619410
| 37>   H                      10.209044            0.073226             -4.410134
| 38>   H                      11.118105            -2.500433            -3.664724
| 39>   H                      11.313706            -0.899889            -2.978231
| 40>   H                      9.792172             -1.717324            -2.734671
| 41>   C                    : 10.128577            0.098016             -7.714797
| 42>   O                    : 10.258327            1.347297             -7.099161
| 43>   H                    : 9.527064             1.536801             -6.495390
| 44>   H                    : 10.339531            -0.673182            -6.936152
| 45>   H                    : 9.078688             0.010444             -8.055894
| 46>   H                    : 10.771831            -0.072254            -8.598922
| 47> *
| 48>
| 49> #Run DFT-D3 single point of the particle with dimer basis set
| 50> $new_job
| 51> %base "18-176_DFT_B"
| 52> ! wB97X-D3 def2-TZVP TIGHTSCF CHELPG PMODEL
| 53>
| 54> %scf
| 55> MaxIter 1000
| 56> end
| 57>
| 58> * xyz 0 1
| 59>   C                    : 10.626714            -1.553209            -3.493255
| 60>   O                    : 10.101864            -0.817271            -4.619410
| 61>   H                    : 10.209044            0.073226             -4.410134
| 62>   H                    : 11.118105            -2.500433            -3.664724
| 63>   H                    : 11.313706            -0.899889            -2.978231
| 64>   H                    : 9.792172             -1.717324            -2.734671
| 65>   C                      10.128577            0.098016             -7.714797
| 66>   O                      10.258327            1.347297             -7.099161
| 67>   H                      9.527064             1.536801             -6.495390
| 68>   H                      10.339531            -0.673182            -6.936152
| 69>   H                      9.078688             0.010444             -8.055894
| 70>   H                      10.771831            -0.072254            -8.598922
| 71> *
| 72>
| 73>                          ****END OF INPUT****
 Total Charge           Charge          ....    0
 Multiplicity           Mult            ....    1
 Number of Electrons    NEL             ....   36
Dispersion correction           -0.001714876
FINAL SINGLE POINT ENERGY      -231.463138977931
Dispersion correction           -0.000248394
FINAL SINGLE POINT ENERGY      -115.728810026163

CARTESIAN COORDINATES (ANGSTROEM)
---------------------------------
  C     10.626714   -1.553209   -3.493255
  O     10.101864   -0.817271   -4.619410
  H     10.209044    0.073226   -4.410134
  H     11.118105   -2.500433   -3.664724
  H     11.313706   -0.899889   -2.978231
  H      9.792172   -1.717324   -2.734671
  C     10.128577    0.098016   -7.714797
  O     10.258327    1.347297   -7.099161
  H      9.527064    1.536801   -6.495390
  H     10.339531   -0.673182   -6.936152
  H      9.078688    0.010444   -8.055894
  H     10.771831   -0.072254   -8.598922

 Multiplicity           Mult            ....    1
 Number of Electrons    NEL             ....   18
 Basis Dimension        Dim             ....  172

ORBITAL ENERGIES
----------------

  NO   OCC          E(Eh)            E(eV)
   0   2.0000     -19.227093      -523.1958
   1   2.0000     -10.317831      -280.7625
   2   2.0000      -1.136795       -30.9338
   3   2.0000      -0.791475       -21.5371
   4   2.0000      -0.609350       -16.5813
   5   2.0000      -0.543964       -14.8020
   6   2.0000      -0.534762       -14.5516
   7   2.0000      -0.421892       -11.4803
   8   2.0000      -0.368869       -10.0374
   9   0.0000       0.081678         2.2226
  10   0.0000       0.118440         3.2229
  11   0.0000       0.150841         4.1046
  12   0.0000       0.179430         4.8825
  13   0.0000       0.188516         5.1298

MULLIKEN ATOMIC CHARGES
-----------------------
   0 C :    0.000159
   1 O :    0.001735
   2 H :   -0.004761
   3 H :   -0.000199
   4 H :   -0.000043
   5 H :    0.000005
   6 C :   -0.155040
   7 O :   -0.481542
   8 H :    0.322366
   9 H :    0.092261
  10 H :    0.100874
  11 H :    0.124184
Sum of atomic charges:   -0.0000000

LOEWDIN ATOMIC CHARGES
----------------------
   0 C :   -0.000954
   1 O :   -0.009587
   2 H :   -0.004546
   3 H :   -0.000087
   4 H :   -0.000025
   5 H :   -0.000020
   6 C :   -0.395278
   7 O :   -0.072853
   8 H :    0.174127
   9 H :    0.101565
  10 H :    0.097487
  11 H :    0.110171

  Mayer bond orders larger than 0.1
B(  6-C ,  7-O ) :   0.9955 B(  6-C ,  9-H ) :   0.9789 B(  6-C , 10-H ) :   0.9880
B(  6-C , 11-H ) :   0.9680 B(  7-O ,  8-H ) :   0.8901

Dispersion correction           -0.000233083
FINAL SINGLE POINT ENERGY      -115.732635840015

DIPOLE MOMENT
-------------
                                X             Y             Z
Electronic contribution:      0.36823       1.63723       0.63570
Nuclear contribution   :     -0.89559      -1.99577      -0.51555
                        -----------------------------------------
Total Dipole Moment    :     -0.52736      -0.35855       0.12014
                        -----------------------------------------
Magnitude (a.u.)       :      0.64892
Magnitude (Debye)      :      1.64942

Rotational constants in cm-1:     4.222501     0.838432     0.813185
Rotational constants in MHz : 126587.406127 25135.564714 24378.674672

                             ****ORCA TERMINATED NORMALLY****
TOTAL RUN TIME: 0 days 0 hours 0 minutes 54 seconds 104 msec
