                         Program Version 4.1.2  - RELEASE  -
|  1> #Run DFT-D3 single point of the dimer
|  2> ! wB97X-D3 def2-TZVP TIGHTSCF CHELPG PMODEL PAL8
|  3>
|  4> %base "1-148_DFT_AB"
|  5>
|  6> %scf
|  7> MaxIter 1000
|  8> end
|  9>
| 10> * xyz 0 1
| 11>   C                      9.668061             -3.866281            -6.976412
| 12>   O                      8.552818             -3.581596            -6.200644
| 13>   H                      8.019114             -2.985444            -6.708306
| 14>   H                      10.315615            -4.650284            -6.516347
| 15>   H                      9.364548             -4.279350            -7.979582
| 16>   H                      10.229104            -2.945901            -7.121084
| 17>   C                      11.544669            -3.345478            -10.102156
| 18>   O                      10.883767            -2.931228            -8.923766
| 19>   H                      11.462142            -2.790318            -8.181137
| 20>   H                      10.835078            -3.253117            -10.951907
| 21>   H                      12.494490            -2.843856            -10.328078
| 22>   H                      11.796707            -4.402151            -10.094575
| 23> *
| 24>
| 25> #Run DFT-D3 single point of the molecule with dimer basis set
| 26> $new_job
| 27> %base "1-148_DFT_A"
| 28> ! wB97X-D3 def2-TZVP TIGHTSCF CHELPG PMODEL
| 29>
| 30> %scf
| 31> MaxIter 1000
| 32> end
| 33>
| 34> * xyz 0 1
| 35>   C                      9.668061             -3.866281            -6.976412
| 36>   O                      8.552818             -3.581596            -6.200644
| 37>   H                      8.019114             -2.985444            -6.708306
| 38>   H                      10.315615            -4.650284            -6.516347
| 39>   H                      9.364548             -4.279350            -7.979582
| 40>   H                      10.229104            -2.945901            -7.121084
| 41>   C                    : 11.544669            -3.345478            -10.102156
| 42>   O                    : 10.883767            -2.931228            -8.923766
| 43>   H                    : 11.462142            -2.790318            -8.181137
| 44>   H                    : 10.835078            -3.253117            -10.951907
| 45>   H                    : 12.494490            -2.843856            -10.328078
| 46>   H                    : 11.796707            -4.402151            -10.094575
| 47> *
| 48>
| 49> #Run DFT-D3 single point of the particle with dimer basis set
| 50> $new_job
| 51> %base "1-148_DFT_B"
| 52> ! wB97X-D3 def2-TZVP TIGHTSCF CHELPG PMODEL
| 53>
| 54> %scf
| 55> MaxIter 1000
| 56> end
| 57>
| 58> * xyz 0 1
| 59>   C                    : 9.668061             -3.866281            -6.976412
| 60>   O                    : 8.552818             -3.581596            -6.200644
| 61>   H                    : 8.019114             -2.985444            -6.708306
| 62>   H                    : 10.315615            -4.650284            -6.516347
| 63>   H                    : 9.364548             -4.279350            -7.979582
| 64>   H                    : 10.229104            -2.945901            -7.121084
| 65>   C                      11.544669            -3.345478            -10.102156
| 66>   O                      10.883767            -2.931228            -8.923766
| 67>   H                      11.462142            -2.790318            -8.181137
| 68>   H                      10.835078            -3.253117            -10.951907
| 69>   H                      12.494490            -2.843856            -10.328078
| 70>   H                      11.796707            -4.402151            -10.094575
| 71> *
| 72>
| 73>                          ****END OF INPUT****
 Total Charge           Charge          ....    0
 Multiplicity           Mult            ....    1
 Number of Electrons    NEL             ....   36
Dispersion correction           -0.001811195
FINAL SINGLE POINT ENERGY      -231.451190180666
Dispersion correction           -0.000220055
FINAL SINGLE POINT ENERGY      -115.734741235406

CARTESIAN COORDINATES (ANGSTROEM)
---------------------------------
  C      9.668061   -3.866281   -6.976412
  O      8.552818   -3.581596   -6.200644
  H      8.019114   -2.985444   -6.708306
  H     10.315615   -4.650284   -6.516347
  H      9.364548   -4.279350   -7.979582
  H     10.229104   -2.945901   -7.121084
  C     11.544669   -3.345478  -10.102156
  O     10.883767   -2.931228   -8.923766
  H     11.462142   -2.790318   -8.181137
  H     10.835078   -3.253117  -10.951907
  H     12.494490   -2.843856  -10.328078
  H     11.796707   -4.402151  -10.094575

 Multiplicity           Mult            ....    1
 Number of Electrons    NEL             ....   18
 Basis Dimension        Dim             ....  172

ORBITAL ENERGIES
----------------

  NO   OCC          E(Eh)            E(eV)
   0   2.0000     -19.231188      -523.3072
   1   2.0000     -10.315326      -280.6943
   2   2.0000      -1.135723       -30.9046
   3   2.0000      -0.799937       -21.7674
   4   2.0000      -0.618252       -16.8235
   5   2.0000      -0.535798       -14.5798
   6   2.0000      -0.526404       -14.3242
   7   2.0000      -0.432157       -11.7596
   8   2.0000      -0.373346       -10.1593
   9   0.0000       0.094480         2.5709
  10   0.0000       0.133924         3.6443
  11   0.0000       0.154409         4.2017
  12   0.0000       0.178874         4.8674
  13   0.0000       0.194015         5.2794

MULLIKEN ATOMIC CHARGES
-----------------------
   0 C :   -0.009509
   1 O :   -0.000927
   2 H :   -0.000967
   3 H :    0.002139
   4 H :   -0.004342
   5 H :   -0.008852
   6 C :   -0.162932
   7 O :   -0.458792
   8 H :    0.318545
   9 H :    0.119612
  10 H :    0.104966
  11 H :    0.101058
Sum of atomic charges:    0.0000000

LOEWDIN ATOMIC CHARGES
----------------------
   0 C :   -0.061872
   1 O :   -0.000206
   2 H :   -0.000251
   3 H :   -0.001835
   4 H :   -0.016354
   5 H :   -0.026888
   6 C :   -0.382731
   7 O :    0.008174
   8 H :    0.177887
   9 H :    0.114121
  10 H :    0.097237
  11 H :    0.092718

  Mayer bond orders larger than 0.1
B(  6-C ,  7-O ) :   1.0014 B(  6-C ,  9-H ) :   0.9771 B(  6-C , 10-H ) :   0.9714
B(  6-C , 11-H ) :   0.9747 B(  7-O ,  8-H ) :   0.8911

Dispersion correction           -0.000268739
FINAL SINGLE POINT ENERGY      -115.735370232428

DIPOLE MOMENT
-------------
                                X             Y             Z
Electronic contribution:     -0.91173       0.62299       1.49018
Nuclear contribution   :      1.56934      -0.69735      -1.50021
                        -----------------------------------------
Total Dipole Moment    :      0.65760      -0.07436      -0.01003
                        -----------------------------------------
Magnitude (a.u.)       :      0.66187
Magnitude (Debye)      :      1.68234

Rotational constants in cm-1:     4.440851     0.821005     0.786896
Rotational constants in MHz : 133133.365337 24613.122836 23590.541964

                             ****ORCA TERMINATED NORMALLY****
TOTAL RUN TIME: 0 days 0 hours 5 minutes 59 seconds 609 msec
