                         Program Version 4.1.2  - RELEASE  -
|  1> #Run DFT-D3 single point of the dimer
|  2> ! wB97X-D3 def2-TZVP TIGHTSCF CHELPG PMODEL PAL8
|  3>
|  4> %base "10-135_DFT_AB"
|  5>
|  6> %scf
|  7> MaxIter 1000
|  8> end
|  9>
| 10> * xyz 0 1
| 11>   C                      3.771709             8.520026             -2.309033
| 12>   O                      4.367163             8.443631             -3.620214
| 13>   H                      5.116592             9.031496             -3.647781
| 14>   H                      3.720613             9.562944             -1.984320
| 15>   H                      2.808419             8.065377             -2.246526
| 16>   H                      4.336444             7.999039             -1.611922
| 17>   C                      0.134513             7.144348             -3.210904
| 18>   O                      -0.239488            8.467683             -3.622832
| 19>   H                      0.037674             8.550435             -4.525159
| 20>   H                      1.205969             7.223924             -3.176807
| 21>   H                      -0.221156            7.001328             -2.178537
| 22>   H                      -0.166492            6.394879             -3.883738
| 23> *
| 24>
| 25> #Run DFT-D3 single point of the molecule with dimer basis set
| 26> $new_job
| 27> %base "10-135_DFT_A"
| 28> ! wB97X-D3 def2-TZVP TIGHTSCF CHELPG PMODEL
| 29>
| 30> %scf
| 31> MaxIter 1000
| 32> end
| 33>
| 34> * xyz 0 1
| 35>   C                      3.771709             8.520026             -2.309033
| 36>   O                      4.367163             8.443631             -3.620214
| 37>   H                      5.116592             9.031496             -3.647781
| 38>   H                      3.720613             9.562944             -1.984320
| 39>   H                      2.808419             8.065377             -2.246526
| 40>   H                      4.336444             7.999039             -1.611922
| 41>   C                    : 0.134513             7.144348             -3.210904
| 42>   O                    : -0.239488            8.467683             -3.622832
| 43>   H                    : 0.037674             8.550435             -4.525159
| 44>   H                    : 1.205969             7.223924             -3.176807
| 45>   H                    : -0.221156            7.001328             -2.178537
| 46>   H                    : -0.166492            6.394879             -3.883738
| 47> *
| 48>
| 49> #Run DFT-D3 single point of the particle with dimer basis set
| 50> $new_job
| 51> %base "10-135_DFT_B"
| 52> ! wB97X-D3 def2-TZVP TIGHTSCF CHELPG PMODEL
| 53>
| 54> %scf
| 55> MaxIter 1000
| 56> end
| 57>
| 58> * xyz 0 1
| 59>   C                    : 3.771709             8.520026             -2.309033
| 60>   O                    : 4.367163             8.443631             -3.620214
| 61>   H                    : 5.116592             9.031496             -3.647781
| 62>   H                    : 3.720613             9.562944             -1.984320
| 63>   H                    : 2.808419             8.065377             -2.246526
| 64>   H                    : 4.336444             7.999039             -1.611922
| 65>   C                      0.134513             7.144348             -3.210904
| 66>   O                      -0.239488            8.467683             -3.622832
| 67>   H                      0.037674             8.550435             -4.525159
| 68>   H                      1.205969             7.223924             -3.176807
| 69>   H                      -0.221156            7.001328             -2.178537
| 70>   H                      -0.166492            6.394879             -3.883738
| 71> *
| 72>
| 73>                          ****END OF INPUT****
 Total Charge           Charge          ....    0
 Multiplicity           Mult            ....    1
 Number of Electrons    NEL             ....   36
Dispersion correction           -0.001456848
FINAL SINGLE POINT ENERGY      -231.464725576551
Dispersion correction           -0.000238944
FINAL SINGLE POINT ENERGY      -115.732160417875

CARTESIAN COORDINATES (ANGSTROEM)
---------------------------------
  C      3.771709    8.520026   -2.309033
  O      4.367163    8.443631   -3.620214
  H      5.116592    9.031496   -3.647781
  H      3.720613    9.562944   -1.984320
  H      2.808419    8.065377   -2.246526
  H      4.336444    7.999039   -1.611922
  C      0.134513    7.144348   -3.210904
  O     -0.239488    8.467683   -3.622832
  H      0.037674    8.550435   -4.525159
  H      1.205969    7.223924   -3.176807
  H     -0.221156    7.001328   -2.178537
  H     -0.166492    6.394879   -3.883738

 Multiplicity           Mult            ....    1
 Number of Electrons    NEL             ....   18
 Basis Dimension        Dim             ....  172

ORBITAL ENERGIES
----------------

  NO   OCC          E(Eh)            E(eV)
   0   2.0000     -19.224086      -523.1140
   1   2.0000     -10.308038      -280.4960
   2   2.0000      -1.131702       -30.7952
   3   2.0000      -0.798214       -21.7205
   4   2.0000      -0.608317       -16.5531
   5   2.0000      -0.548000       -14.9118
   6   2.0000      -0.523667       -14.2497
   7   2.0000      -0.438670       -11.9368
   8   2.0000      -0.370221       -10.0742
   9   0.0000       0.086637         2.3575
  10   0.0000       0.121705         3.3118
  11   0.0000       0.156139         4.2488
  12   0.0000       0.172867         4.7040
  13   0.0000       0.189378         5.1532

MULLIKEN ATOMIC CHARGES
-----------------------
   0 C :   -0.004802
   1 O :   -0.000265
   2 H :   -0.000032
   3 H :   -0.000005
   4 H :    0.009229
   5 H :    0.000584
   6 C :   -0.168536
   7 O :   -0.480433
   8 H :    0.308370
   9 H :    0.098971
  10 H :    0.117077
  11 H :    0.119842
Sum of atomic charges:   -0.0000000

LOEWDIN ATOMIC CHARGES
----------------------
   0 C :   -0.004328
   1 O :   -0.000060
   2 H :   -0.000008
   3 H :   -0.000042
   4 H :   -0.007922
   5 H :   -0.000025
   6 C :   -0.353824
   7 O :   -0.091123
   8 H :    0.157248
   9 H :    0.099946
  10 H :    0.113705
  11 H :    0.086432

  Mayer bond orders larger than 0.1
B(  6-C ,  7-O ) :   0.9834 B(  6-C ,  9-H ) :   0.9909 B(  6-C , 10-H ) :   0.9729
B(  6-C , 11-H ) :   0.9724 B(  7-O ,  8-H ) :   0.9058

Dispersion correction           -0.000210867
FINAL SINGLE POINT ENERGY      -115.731633183041

DIPOLE MOMENT
-------------
                                X             Y             Z
Electronic contribution:     -0.62379       1.48721      -0.41356
Nuclear contribution   :      0.95863      -1.98364       0.01421
                        -----------------------------------------
Total Dipole Moment    :      0.33484      -0.49642      -0.39935
                        -----------------------------------------
Magnitude (a.u.)       :      0.71975
Magnitude (Debye)      :      1.82945

Rotational constants in cm-1:     4.299458     0.832042     0.797569
Rotational constants in MHz : 128894.520991 24943.987218 23910.524492

                             ****ORCA TERMINATED NORMALLY****
TOTAL RUN TIME: 0 days 0 hours 1 minutes 1 seconds 394 msec
