                         Program Version 4.1.2  - RELEASE  -
|  1> #Run DFT-D3 single point of the dimer
|  2> ! wB97X-D3 def2-TZVP TIGHTSCF CHELPG PMODEL PAL8
|  3>
|  4> %base "3-139_DFT_AB"
|  5>
|  6> %scf
|  7> MaxIter 1000
|  8> end
|  9>
| 10> * xyz 0 1
| 11>   C                      -7.916342            -6.777899            -3.497241
| 12>   O                      -8.592063            -7.645050            -2.610539
| 13>   H                      -8.289805            -7.563570            -1.732779
| 14>   H                      -6.857783            -7.080269            -3.642114
| 15>   H                      -8.305381            -6.748343            -4.490312
| 16>   H                      -8.036397            -5.738256            -3.130291
| 17>   C                      -4.685835            -4.218706            -1.905755
| 18>   O                      -5.620403            -4.875687            -1.045612
| 19>   H                      -6.175920            -5.416958            -1.549472
| 20>   H                      -3.776749            -4.781768            -1.666579
| 21>   H                      -4.911927            -4.250010            -2.974445
| 22>   H                      -4.583469            -3.144852            -1.605303
| 23> *
| 24>
| 25> #Run DFT-D3 single point of the molecule with dimer basis set
| 26> $new_job
| 27> %base "3-139_DFT_A"
| 28> ! wB97X-D3 def2-TZVP TIGHTSCF CHELPG PMODEL
| 29>
| 30> %scf
| 31> MaxIter 1000
| 32> end
| 33>
| 34> * xyz 0 1
| 35>   C                      -7.916342            -6.777899            -3.497241
| 36>   O                      -8.592063            -7.645050            -2.610539
| 37>   H                      -8.289805            -7.563570            -1.732779
| 38>   H                      -6.857783            -7.080269            -3.642114
| 39>   H                      -8.305381            -6.748343            -4.490312
| 40>   H                      -8.036397            -5.738256            -3.130291
| 41>   C                    : -4.685835            -4.218706            -1.905755
| 42>   O                    : -5.620403            -4.875687            -1.045612
| 43>   H                    : -6.175920            -5.416958            -1.549472
| 44>   H                    : -3.776749            -4.781768            -1.666579
| 45>   H                    : -4.911927            -4.250010            -2.974445
| 46>   H                    : -4.583469            -3.144852            -1.605303
| 47> *
| 48>
| 49> #Run DFT-D3 single point of the particle with dimer basis set
| 50> $new_job
| 51> %base "3-139_DFT_B"
| 52> ! wB97X-D3 def2-TZVP TIGHTSCF CHELPG PMODEL
| 53>
| 54> %scf
| 55> MaxIter 1000
| 56> end
| 57>
| 58> * xyz 0 1
| 59>   C                    : -7.916342            -6.777899            -3.497241
| 60>   O                    : -8.592063            -7.645050            -2.610539
| 61>   H                    : -8.289805            -7.563570            -1.732779
| 62>   H                    : -6.857783            -7.080269            -3.642114
| 63>   H                    : -8.305381            -6.748343            -4.490312
| 64>   H                    : -8.036397            -5.738256            -3.130291
| 65>   C                      -4.685835            -4.218706            -1.905755
| 66>   O                      -5.620403            -4.875687            -1.045612
| 67>   H                      -6.175920            -5.416958            -1.549472
| 68>   H                      -3.776749            -4.781768            -1.666579
| 69>   H                      -4.911927            -4.250010            -2.974445
| 70>   H                      -4.583469            -3.144852            -1.605303
| 71> *
| 72>
| 73>                          ****END OF INPUT****
 Total Charge           Charge          ....    0
 Multiplicity           Mult            ....    1
 Number of Electrons    NEL             ....   36
Dispersion correction           -0.001621324
FINAL SINGLE POINT ENERGY      -231.463924369638
Dispersion correction           -0.000249556
FINAL SINGLE POINT ENERGY      -115.732334194604

CARTESIAN COORDINATES (ANGSTROEM)
---------------------------------
  C     -7.916342   -6.777899   -3.497241
  O     -8.592063   -7.645050   -2.610539
  H     -8.289805   -7.563570   -1.732779
  H     -6.857783   -7.080269   -3.642114
  H     -8.305381   -6.748343   -4.490312
  H     -8.036397   -5.738256   -3.130291
  C     -4.685835   -4.218706   -1.905755
  O     -5.620403   -4.875687   -1.045612
  H     -6.175920   -5.416958   -1.549472
  H     -3.776749   -4.781768   -1.666579
  H     -4.911927   -4.250010   -2.974445
  H     -4.583469   -3.144852   -1.605303

 Multiplicity           Mult            ....    1
 Number of Electrons    NEL             ....   18
 Basis Dimension        Dim             ....  172

ORBITAL ENERGIES
----------------

  NO   OCC          E(Eh)            E(eV)
   0   2.0000     -19.223427      -523.0960
   1   2.0000     -10.316604      -280.7291
   2   2.0000      -1.136911       -30.9369
   3   2.0000      -0.796437       -21.6721
   4   2.0000      -0.612925       -16.6785
   5   2.0000      -0.542568       -14.7640
   6   2.0000      -0.518086       -14.0978
   7   2.0000      -0.438074       -11.9206
   8   2.0000      -0.369804       -10.0629
   9   0.0000       0.069818         1.8998
  10   0.0000       0.134252         3.6532
  11   0.0000       0.149776         4.0756
  12   0.0000       0.168129         4.5750
  13   0.0000       0.186052         5.0627

MULLIKEN ATOMIC CHARGES
-----------------------
   0 C :    0.000278
   1 O :    0.000140
   2 H :   -0.000108
   3 H :   -0.000498
   4 H :   -0.000138
   5 H :   -0.003862
   6 C :   -0.175479
   7 O :   -0.470526
   8 H :    0.304450
   9 H :    0.116520
  10 H :    0.113794
  11 H :    0.115428
Sum of atomic charges:   -0.0000000

LOEWDIN ATOMIC CHARGES
----------------------
   0 C :   -0.004283
   1 O :   -0.000021
   2 H :   -0.000263
   3 H :   -0.000768
   4 H :   -0.000044
   5 H :   -0.002377
   6 C :   -0.371406
   7 O :   -0.071387
   8 H :    0.141172
   9 H :    0.104203
  10 H :    0.096062
  11 H :    0.109111

  Mayer bond orders larger than 0.1
B(  6-C ,  7-O ) :   0.9724 B(  6-C ,  9-H ) :   0.9884 B(  6-C , 10-H ) :   0.9693
B(  6-C , 11-H ) :   0.9705 B(  7-O ,  8-H ) :   0.9192

Dispersion correction           -0.000245941
FINAL SINGLE POINT ENERGY      -115.730697111559

DIPOLE MOMENT
-------------
                                X             Y             Z
Electronic contribution:     -1.15771      -0.72677       1.05369
Nuclear contribution   :      1.16662       0.63703      -1.74697
                        -----------------------------------------
Total Dipole Moment    :      0.00891      -0.08974      -0.69327
                        -----------------------------------------
Magnitude (a.u.)       :      0.69911
Magnitude (Debye)      :      1.77701

Rotational constants in cm-1:     4.251637     0.820546     0.795518
Rotational constants in MHz : 127460.866542 24599.336858 23849.031440

                             ****ORCA TERMINATED NORMALLY****
TOTAL RUN TIME: 0 days 0 hours 5 minutes 50 seconds 152 msec
