                         Program Version 4.1.2  - RELEASE  -
|  1> #Run DFT-D3 single point of the dimer
|  2> ! wB97X-D3 def2-TZVP TIGHTSCF CHELPG PMODEL PAL8
|  3>
|  4> %base "13-120_DFT_AB"
|  5>
|  6> %scf
|  7> MaxIter 1000
|  8> end
|  9>
| 10> * xyz 0 1
| 11>   C                      -4.012360            -0.632223            -6.223825
| 12>   O                      -2.965257            -0.703320            -7.190753
| 13>   H                      -2.852629            0.189757             -7.475184
| 14>   H                      -4.895015            -0.107006            -6.552738
| 15>   H                      -4.281098            -1.627161            -5.907874
| 16>   H                      -3.664603            -0.197199            -5.263075
| 17>   C                      -0.695942            -1.118168            -4.644641
| 18>   O                      -0.689851            0.124149             -5.212528
| 19>   H                      -0.049258            0.673570             -4.677234
| 20>   H                      -0.102550            -1.842898            -5.168804
| 21>   H                      -0.440777            -1.019185            -3.624721
| 22>   H                      -1.700991            -1.589887            -4.669325
| 23> *
| 24>
| 25> #Run DFT-D3 single point of the molecule with dimer basis set
| 26> $new_job
| 27> %base "13-120_DFT_A"
| 28> ! wB97X-D3 def2-TZVP TIGHTSCF CHELPG PMODEL
| 29>
| 30> %scf
| 31> MaxIter 1000
| 32> end
| 33>
| 34> * xyz 0 1
| 35>   C                      -4.012360            -0.632223            -6.223825
| 36>   O                      -2.965257            -0.703320            -7.190753
| 37>   H                      -2.852629            0.189757             -7.475184
| 38>   H                      -4.895015            -0.107006            -6.552738
| 39>   H                      -4.281098            -1.627161            -5.907874
| 40>   H                      -3.664603            -0.197199            -5.263075
| 41>   C                    : -0.695942            -1.118168            -4.644641
| 42>   O                    : -0.689851            0.124149             -5.212528
| 43>   H                    : -0.049258            0.673570             -4.677234
| 44>   H                    : -0.102550            -1.842898            -5.168804
| 45>   H                    : -0.440777            -1.019185            -3.624721
| 46>   H                    : -1.700991            -1.589887            -4.669325
| 47> *
| 48>
| 49> #Run DFT-D3 single point of the particle with dimer basis set
| 50> $new_job
| 51> %base "13-120_DFT_B"
| 52> ! wB97X-D3 def2-TZVP TIGHTSCF CHELPG PMODEL
| 53>
| 54> %scf
| 55> MaxIter 1000
| 56> end
| 57>
| 58> * xyz 0 1
| 59>   C                    : -4.012360            -0.632223            -6.223825
| 60>   O                    : -2.965257            -0.703320            -7.190753
| 61>   H                    : -2.852629            0.189757             -7.475184
| 62>   H                    : -4.895015            -0.107006            -6.552738
| 63>   H                    : -4.281098            -1.627161            -5.907874
| 64>   H                    : -3.664603            -0.197199            -5.263075
| 65>   C                      -0.695942            -1.118168            -4.644641
| 66>   O                      -0.689851            0.124149             -5.212528
| 67>   H                      -0.049258            0.673570             -4.677234
| 68>   H                      -0.102550            -1.842898            -5.168804
| 69>   H                      -0.440777            -1.019185            -3.624721
| 70>   H                      -1.700991            -1.589887            -4.669325
| 71> *
| 72>
| 73>                          ****END OF INPUT****
 Total Charge           Charge          ....    0
 Multiplicity           Mult            ....    1
 Number of Electrons    NEL             ....   36
Dispersion correction           -0.002137782
FINAL SINGLE POINT ENERGY      -231.465796252732
Dispersion correction           -0.000243031
FINAL SINGLE POINT ENERGY      -115.735144796351

CARTESIAN COORDINATES (ANGSTROEM)
---------------------------------
  C     -4.012360   -0.632223   -6.223825
  O     -2.965257   -0.703320   -7.190753
  H     -2.852629    0.189757   -7.475184
  H     -4.895015   -0.107006   -6.552738
  H     -4.281098   -1.627161   -5.907874
  H     -3.664603   -0.197199   -5.263075
  C     -0.695942   -1.118168   -4.644641
  O     -0.689851    0.124149   -5.212528
  H     -0.049258    0.673570   -4.677234
  H     -0.102550   -1.842898   -5.168804
  H     -0.440777   -1.019185   -3.624721
  H     -1.700991   -1.589887   -4.669325

 Multiplicity           Mult            ....    1
 Number of Electrons    NEL             ....   18
 Basis Dimension        Dim             ....  172

ORBITAL ENERGIES
----------------

  NO   OCC          E(Eh)            E(eV)
   0   2.0000     -19.233504      -523.3702
   1   2.0000     -10.303184      -280.3639
   2   2.0000      -1.146924       -31.2094
   3   2.0000      -0.791966       -21.5505
   4   2.0000      -0.617909       -16.8142
   5   2.0000      -0.553425       -15.0595
   6   2.0000      -0.532691       -14.4952
   7   2.0000      -0.427972       -11.6457
   8   2.0000      -0.369675       -10.0594
   9   0.0000       0.092985         2.5303
  10   0.0000       0.116679         3.1750
  11   0.0000       0.154673         4.2089
  12   0.0000       0.182544         4.9673
  13   0.0000       0.198462         5.4004

MULLIKEN ATOMIC CHARGES
-----------------------
   0 C :    0.004669
   1 O :    0.000191
   2 H :   -0.001995
   3 H :    0.000071
   4 H :   -0.000848
   5 H :   -0.002028
   6 C :   -0.155992
   7 O :   -0.461188
   8 H :    0.319402
   9 H :    0.097749
  10 H :    0.101785
  11 H :    0.098183
Sum of atomic charges:    0.0000000

LOEWDIN ATOMIC CHARGES
----------------------
   0 C :   -0.007654
   1 O :   -0.002194
   2 H :   -0.002126
   3 H :   -0.000032
   4 H :   -0.000855
   5 H :   -0.003155
   6 C :   -0.422024
   7 O :   -0.050363
   8 H :    0.198685
   9 H :    0.090356
  10 H :    0.089489
  11 H :    0.109871

  Mayer bond orders larger than 0.1
B(  6-C ,  7-O ) :   1.0142 B(  6-C ,  9-H ) :   0.9758 B(  6-C , 10-H ) :   0.9921
B(  6-C , 11-H ) :   0.9806 B(  7-O ,  8-H ) :   0.8925

Dispersion correction           -0.000222022
FINAL SINGLE POINT ENERGY      -115.729230067914

DIPOLE MOMENT
-------------
                                X             Y             Z
Electronic contribution:      0.00821       1.64906      -0.85440
Nuclear contribution   :      0.39042      -1.74956       1.41929
                        -----------------------------------------
Total Dipole Moment    :      0.39863      -0.10050       0.56489
                        -----------------------------------------
Magnitude (a.u.)       :      0.69865
Magnitude (Debye)      :      1.77583

Rotational constants in cm-1:     4.365142     0.881627     0.843496
Rotational constants in MHz : 130863.672544 26430.520499 25287.372563

                             ****ORCA TERMINATED NORMALLY****
TOTAL RUN TIME: 0 days 0 hours 1 minutes 5 seconds 736 msec
