                         Program Version 4.1.2  - RELEASE  -
|  1> #Run DFT-D3 single point of the dimer
|  2> ! wB97X-D3 def2-TZVP TIGHTSCF CHELPG PMODEL PAL8
|  3>
|  4> %base "7-152_DFT_AB"
|  5>
|  6> %scf
|  7> MaxIter 1000
|  8> end
|  9>
| 10> * xyz 0 1
| 11>   C                      -5.953416            6.441439             -5.791146
| 12>   O                      -4.882713            6.105189             -6.733241
| 13>   H                      -4.725952            5.151699             -6.657263
| 14>   H                      -5.894636            7.567412             -5.696806
| 15>   H                      -6.940423            6.332680             -6.210736
| 16>   H                      -5.806236            5.876499             -4.860108
| 17>   C                      -1.555646            5.231252             -6.405208
| 18>   O                      -0.346762            4.541400             -6.399865
| 19>   H                      0.267018             4.970165             -5.812395
| 20>   H                      -1.461585            6.358154             -6.598062
| 21>   H                      -2.193016            4.839029             -7.166690
| 22>   H                      -2.062145            5.051455             -5.484070
| 23> *
| 24>
| 25> #Run DFT-D3 single point of the molecule with dimer basis set
| 26> $new_job
| 27> %base "7-152_DFT_A"
| 28> ! wB97X-D3 def2-TZVP TIGHTSCF CHELPG PMODEL
| 29>
| 30> %scf
| 31> MaxIter 1000
| 32> end
| 33>
| 34> * xyz 0 1
| 35>   C                      -5.953416            6.441439             -5.791146
| 36>   O                      -4.882713            6.105189             -6.733241
| 37>   H                      -4.725952            5.151699             -6.657263
| 38>   H                      -5.894636            7.567412             -5.696806
| 39>   H                      -6.940423            6.332680             -6.210736
| 40>   H                      -5.806236            5.876499             -4.860108
| 41>   C                    : -1.555646            5.231252             -6.405208
| 42>   O                    : -0.346762            4.541400             -6.399865
| 43>   H                    : 0.267018             4.970165             -5.812395
| 44>   H                    : -1.461585            6.358154             -6.598062
| 45>   H                    : -2.193016            4.839029             -7.166690
| 46>   H                    : -2.062145            5.051455             -5.484070
| 47> *
| 48>
| 49> #Run DFT-D3 single point of the particle with dimer basis set
| 50> $new_job
| 51> %base "7-152_DFT_B"
| 52> ! wB97X-D3 def2-TZVP TIGHTSCF CHELPG PMODEL
| 53>
| 54> %scf
| 55> MaxIter 1000
| 56> end
| 57>
| 58> * xyz 0 1
| 59>   C                    : -5.953416            6.441439             -5.791146
| 60>   O                    : -4.882713            6.105189             -6.733241
| 61>   H                    : -4.725952            5.151699             -6.657263
| 62>   H                    : -5.894636            7.567412             -5.696806
| 63>   H                    : -6.940423            6.332680             -6.210736
| 64>   H                    : -5.806236            5.876499             -4.860108
| 65>   C                      -1.555646            5.231252             -6.405208
| 66>   O                      -0.346762            4.541400             -6.399865
| 67>   H                      0.267018             4.970165             -5.812395
| 68>   H                      -1.461585            6.358154             -6.598062
| 69>   H                      -2.193016            4.839029             -7.166690
| 70>   H                      -2.062145            5.051455             -5.484070
| 71> *
| 72>
| 73>                          ****END OF INPUT****
 Total Charge           Charge          ....    0
 Multiplicity           Mult            ....    1
 Number of Electrons    NEL             ....   36
Dispersion correction           -0.001496869
FINAL SINGLE POINT ENERGY      -231.466998208495
Dispersion correction           -0.000260813
FINAL SINGLE POINT ENERGY      -115.731656197522

CARTESIAN COORDINATES (ANGSTROEM)
---------------------------------
  C     -5.953416    6.441439   -5.791146
  O     -4.882713    6.105189   -6.733241
  H     -4.725952    5.151699   -6.657263
  H     -5.894636    7.567412   -5.696806
  H     -6.940423    6.332680   -6.210736
  H     -5.806236    5.876499   -4.860108
  C     -1.555646    5.231252   -6.405208
  O     -0.346762    4.541400   -6.399865
  H      0.267018    4.970165   -5.812395
  H     -1.461585    6.358154   -6.598062
  H     -2.193016    4.839029   -7.166690
  H     -2.062145    5.051455   -5.484070

 Multiplicity           Mult            ....    1
 Number of Electrons    NEL             ....   18
 Basis Dimension        Dim             ....  172

ORBITAL ENERGIES
----------------

  NO   OCC          E(Eh)            E(eV)
   0   2.0000     -19.228420      -523.2319
   1   2.0000     -10.310375      -280.5596
   2   2.0000      -1.143470       -31.1154
   3   2.0000      -0.797485       -21.7007
   4   2.0000      -0.613100       -16.6833
   5   2.0000      -0.545545       -14.8450
   6   2.0000      -0.532619       -14.4933
   7   2.0000      -0.429229       -11.6799
   8   2.0000      -0.372740       -10.1428
   9   0.0000       0.083939         2.2841
  10   0.0000       0.117846         3.2068
  11   0.0000       0.143586         3.9072
  12   0.0000       0.180687         4.9168
  13   0.0000       0.184147         5.0109

MULLIKEN ATOMIC CHARGES
-----------------------
   0 C :    0.000256
   1 O :    0.000281
   2 H :   -0.000976
   3 H :   -0.000005
   4 H :   -0.000012
   5 H :   -0.000151
   6 C :   -0.160520
   7 O :   -0.472814
   8 H :    0.315080
   9 H :    0.092700
  10 H :    0.121721
  11 H :    0.104440
Sum of atomic charges:   -0.0000000

LOEWDIN ATOMIC CHARGES
----------------------
   0 C :   -0.000202
   1 O :   -0.001078
   2 H :   -0.002436
   3 H :   -0.000005
   4 H :   -0.000004
   5 H :   -0.000068
   6 C :   -0.400457
   7 O :   -0.056630
   8 H :    0.164812
   9 H :    0.102623
  10 H :    0.103923
  11 H :    0.089522

  Mayer bond orders larger than 0.1
B(  6-C ,  7-O ) :   1.0021 B(  6-C ,  9-H ) :   0.9718 B(  6-C , 10-H ) :   0.9723
B(  6-C , 11-H ) :   0.9806 B(  7-O ,  8-H ) :   0.8991

Dispersion correction           -0.000237677
FINAL SINGLE POINT ENERGY      -115.734111305371

DIPOLE MOMENT
-------------
                                X             Y             Z
Electronic contribution:      1.53842      -1.01347      -0.07893
Nuclear contribution   :     -1.62275       1.52833       0.44872
                        -----------------------------------------
Total Dipole Moment    :     -0.08433       0.51486       0.36979
                        -----------------------------------------
Magnitude (a.u.)       :      0.63948
Magnitude (Debye)      :      1.62543

Rotational constants in cm-1:     4.351750     0.848086     0.821047
Rotational constants in MHz : 130462.177985 25424.990898 24614.378657

                             ****ORCA TERMINATED NORMALLY****
TOTAL RUN TIME: 0 days 0 hours 1 minutes 3 seconds 690 msec
