                         Program Version 4.1.2  - RELEASE  -
|  1> #Run DFT-D3 single point of the dimer
|  2> ! wB97X-D3 def2-TZVP TIGHTSCF CHELPG PMODEL PAL8
|  3>
|  4> %base "8-163_DFT_AB"
|  5>
|  6> %scf
|  7> MaxIter 1000
|  8> end
|  9>
| 10> * xyz 0 1
| 11>   C                      1.349163             10.492451            -10.514174
| 12>   O                      1.365359             10.181597            -9.148429
| 13>   H                      0.735344             9.473616             -8.959441
| 14>   H                      0.307704             10.782875            -10.802773
| 15>   H                      2.044243             11.313737            -10.780355
| 16>   H                      1.682850             9.493341             -10.950823
| 17>   C                      3.842978             8.357249             -7.229615
| 18>   O                      2.539073             8.006009             -7.600498
| 19>   H                      2.190317             8.614936             -8.300104
| 20>   H                      4.281900             7.668772             -6.543029
| 21>   H                      4.554479             8.374157             -8.089312
| 22>   H                      3.867044             9.369579             -6.745208
| 23> *
| 24>
| 25> #Run DFT-D3 single point of the molecule with dimer basis set
| 26> $new_job
| 27> %base "8-163_DFT_A"
| 28> ! wB97X-D3 def2-TZVP TIGHTSCF CHELPG PMODEL
| 29>
| 30> %scf
| 31> MaxIter 1000
| 32> end
| 33>
| 34> * xyz 0 1
| 35>   C                      1.349163             10.492451            -10.514174
| 36>   O                      1.365359             10.181597            -9.148429
| 37>   H                      0.735344             9.473616             -8.959441
| 38>   H                      0.307704             10.782875            -10.802773
| 39>   H                      2.044243             11.313737            -10.780355
| 40>   H                      1.682850             9.493341             -10.950823
| 41>   C                    : 3.842978             8.357249             -7.229615
| 42>   O                    : 2.539073             8.006009             -7.600498
| 43>   H                    : 2.190317             8.614936             -8.300104
| 44>   H                    : 4.281900             7.668772             -6.543029
| 45>   H                    : 4.554479             8.374157             -8.089312
| 46>   H                    : 3.867044             9.369579             -6.745208
| 47> *
| 48>
| 49> #Run DFT-D3 single point of the particle with dimer basis set
| 50> $new_job
| 51> %base "8-163_DFT_B"
| 52> ! wB97X-D3 def2-TZVP TIGHTSCF CHELPG PMODEL
| 53>
| 54> %scf
| 55> MaxIter 1000
| 56> end
| 57>
| 58> * xyz 0 1
| 59>   C                    : 1.349163             10.492451            -10.514174
| 60>   O                    : 1.365359             10.181597            -9.148429
| 61>   H                    : 0.735344             9.473616             -8.959441
| 62>   H                    : 0.307704             10.782875            -10.802773
| 63>   H                    : 2.044243             11.313737            -10.780355
| 64>   H                    : 1.682850             9.493341             -10.950823
| 65>   C                      3.842978             8.357249             -7.229615
| 66>   O                      2.539073             8.006009             -7.600498
| 67>   H                      2.190317             8.614936             -8.300104
| 68>   H                      4.281900             7.668772             -6.543029
| 69>   H                      4.554479             8.374157             -8.089312
| 70>   H                      3.867044             9.369579             -6.745208
| 71> *
| 72>
| 73>                          ****END OF INPUT****
 Total Charge           Charge          ....    0
 Multiplicity           Mult            ....    1
 Number of Electrons    NEL             ....   36
Dispersion correction           -0.001637116
FINAL SINGLE POINT ENERGY      -231.467589634871
Dispersion correction           -0.000218778
FINAL SINGLE POINT ENERGY      -115.729146401807

CARTESIAN COORDINATES (ANGSTROEM)
---------------------------------
  C      1.349163   10.492451  -10.514174
  O      1.365359   10.181597   -9.148429
  H      0.735344    9.473616   -8.959441
  H      0.307704   10.782875  -10.802773
  H      2.044243   11.313737  -10.780355
  H      1.682850    9.493341  -10.950823
  C      3.842978    8.357249   -7.229615
  O      2.539073    8.006009   -7.600498
  H      2.190317    8.614936   -8.300104
  H      4.281900    7.668772   -6.543029
  H      4.554479    8.374157   -8.089312
  H      3.867044    9.369579   -6.745208

 Multiplicity           Mult            ....    1
 Number of Electrons    NEL             ....   18
 Basis Dimension        Dim             ....  172

ORBITAL ENERGIES
----------------

  NO   OCC          E(Eh)            E(eV)
   0   2.0000     -19.234313      -523.3923
   1   2.0000     -10.314387      -280.6687
   2   2.0000      -1.133891       -30.8548
   3   2.0000      -0.793655       -21.5964
   4   2.0000      -0.609352       -16.5813
   5   2.0000      -0.539329       -14.6759
   6   2.0000      -0.532541       -14.4912
   7   2.0000      -0.427794       -11.6409
   8   2.0000      -0.371820       -10.1177
   9   0.0000       0.069729         1.8974
  10   0.0000       0.131189         3.5698
  11   0.0000       0.146824         3.9953
  12   0.0000       0.176075         4.7912
  13   0.0000       0.185428         5.0458

MULLIKEN ATOMIC CHARGES
-----------------------
   0 C :   -0.002320
   1 O :   -0.004505
   2 H :   -0.000798
   3 H :    0.000015
   4 H :    0.000060
   5 H :   -0.000252
   6 C :   -0.163601
   7 O :   -0.470542
   8 H :    0.322014
   9 H :    0.126327
  10 H :    0.096006
  11 H :    0.097596
Sum of atomic charges:    0.0000000

LOEWDIN ATOMIC CHARGES
----------------------
   0 C :   -0.002594
   1 O :   -0.018565
   2 H :   -0.008045
   3 H :   -0.000050
   4 H :   -0.000035
   5 H :   -0.000641
   6 C :   -0.400847
   7 O :   -0.067584
   8 H :    0.200666
   9 H :    0.102206
  10 H :    0.096616
  11 H :    0.098873

  Mayer bond orders larger than 0.1
B(  6-C ,  7-O ) :   1.0009 B(  6-C ,  9-H ) :   0.9707 B(  6-C , 10-H ) :   0.9778
B(  6-C , 11-H ) :   0.9751 B(  7-O ,  8-H ) :   0.8926

Dispersion correction           -0.000254799
FINAL SINGLE POINT ENERGY      -115.734523866420

DIPOLE MOMENT
-------------
                                X             Y             Z
Electronic contribution:     -1.74445      -0.65361      -0.35264
Nuclear contribution   :      2.04163       1.14607       0.06993
                        -----------------------------------------
Total Dipole Moment    :      0.29718       0.49246      -0.28271
                        -----------------------------------------
Magnitude (a.u.)       :      0.64090
Magnitude (Debye)      :      1.62905

Rotational constants in cm-1:     4.303747     0.828154     0.803920
Rotational constants in MHz : 129023.087162 24827.429224 24100.918365

                             ****ORCA TERMINATED NORMALLY****
TOTAL RUN TIME: 0 days 0 hours 0 minutes 46 seconds 205 msec
