                         Program Version 4.1.2  - RELEASE  -
|  1> #Run DFT-D3 single point of the dimer
|  2> ! wB97X-D3 def2-TZVP TIGHTSCF CHELPG PMODEL PAL8
|  3>
|  4> %base "10-116_DFT_AB"
|  5>
|  6> %scf
|  7> MaxIter 1000
|  8> end
|  9>
| 10> * xyz 0 1
| 11>   C                      -7.366661            -2.963687            2.761216
| 12>   O                      -7.991004            -1.877299            2.184801
| 13>   H                      -8.630948            -1.490112            2.772157
| 14>   H                      -8.031490            -3.775481            2.924278
| 15>   H                      -6.620792            -3.428823            2.136483
| 16>   H                      -6.995310            -2.677469            3.725112
| 17>   C                      -9.543987            -2.864024            -0.483499
| 18>   O                      -9.572609            -4.140452            -1.070107
| 19>   H                      -9.604277            -4.847970            -0.341031
| 20>   H                      -9.792078            -2.886355            0.578464
| 21>   H                      -8.511814            -2.464252            -0.351393
| 22>   H                      -10.229205           -2.148158            -0.994160
| 23> *
| 24>
| 25> #Run DFT-D3 single point of the molecule with dimer basis set
| 26> $new_job
| 27> %base "10-116_DFT_A"
| 28> ! wB97X-D3 def2-TZVP TIGHTSCF CHELPG PMODEL
| 29>
| 30> %scf
| 31> MaxIter 1000
| 32> end
| 33>
| 34> * xyz 0 1
| 35>   C                      -7.366661            -2.963687            2.761216
| 36>   O                      -7.991004            -1.877299            2.184801
| 37>   H                      -8.630948            -1.490112            2.772157
| 38>   H                      -8.031490            -3.775481            2.924278
| 39>   H                      -6.620792            -3.428823            2.136483
| 40>   H                      -6.995310            -2.677469            3.725112
| 41>   C                    : -9.543987            -2.864024            -0.483499
| 42>   O                    : -9.572609            -4.140452            -1.070107
| 43>   H                    : -9.604277            -4.847970            -0.341031
| 44>   H                    : -9.792078            -2.886355            0.578464
| 45>   H                    : -8.511814            -2.464252            -0.351393
| 46>   H                    : -10.229205           -2.148158            -0.994160
| 47> *
| 48>
| 49> #Run DFT-D3 single point of the particle with dimer basis set
| 50> $new_job
| 51> %base "10-116_DFT_B"
| 52> ! wB97X-D3 def2-TZVP TIGHTSCF CHELPG PMODEL
| 53>
| 54> %scf
| 55> MaxIter 1000
| 56> end
| 57>
| 58> * xyz 0 1
| 59>   C                    : -7.366661            -2.963687            2.761216
| 60>   O                    : -7.991004            -1.877299            2.184801
| 61>   H                    : -8.630948            -1.490112            2.772157
| 62>   H                    : -8.031490            -3.775481            2.924278
| 63>   H                    : -6.620792            -3.428823            2.136483
| 64>   H                    : -6.995310            -2.677469            3.725112
| 65>   C                      -9.543987            -2.864024            -0.483499
| 66>   O                      -9.572609            -4.140452            -1.070107
| 67>   H                      -9.604277            -4.847970            -0.341031
| 68>   H                      -9.792078            -2.886355            0.578464
| 69>   H                      -8.511814            -2.464252            -0.351393
| 70>   H                      -10.229205           -2.148158            -0.994160
| 71> *
| 72>
| 73>                          ****END OF INPUT****
 Total Charge           Charge          ....    0
 Multiplicity           Mult            ....    1
 Number of Electrons    NEL             ....   36
Dispersion correction           -0.001956405
FINAL SINGLE POINT ENERGY      -231.461635892481
Dispersion correction           -0.000218071
FINAL SINGLE POINT ENERGY      -115.732233211494

CARTESIAN COORDINATES (ANGSTROEM)
---------------------------------
  C     -7.366661   -2.963687    2.761216
  O     -7.991004   -1.877299    2.184801
  H     -8.630948   -1.490112    2.772157
  H     -8.031490   -3.775481    2.924278
  H     -6.620792   -3.428823    2.136483
  H     -6.995310   -2.677469    3.725112
  C     -9.543987   -2.864024   -0.483499
  O     -9.572609   -4.140452   -1.070107
  H     -9.604277   -4.847970   -0.341031
  H     -9.792078   -2.886355    0.578464
  H     -8.511814   -2.464252   -0.351393
  H    -10.229205   -2.148158   -0.994160

 Multiplicity           Mult            ....    1
 Number of Electrons    NEL             ....   18
 Basis Dimension        Dim             ....  172

ORBITAL ENERGIES
----------------

  NO   OCC          E(Eh)            E(eV)
   0   2.0000     -19.236265      -523.4454
   1   2.0000     -10.316049      -280.7140
   2   2.0000      -1.129196       -30.7270
   3   2.0000      -0.789207       -21.4754
   4   2.0000      -0.612968       -16.6797
   5   2.0000      -0.538798       -14.6614
   6   2.0000      -0.519600       -14.1390
   7   2.0000      -0.428922       -11.6716
   8   2.0000      -0.370494       -10.0817
   9   0.0000       0.073171         1.9911
  10   0.0000       0.111796         3.0421
  11   0.0000       0.148598         4.0436
  12   0.0000       0.160141         4.3577
  13   0.0000       0.188271         5.1231

MULLIKEN ATOMIC CHARGES
-----------------------
   0 C :    0.000260
   1 O :   -0.002580
   2 H :   -0.000518
   3 H :   -0.000279
   4 H :    0.000159
   5 H :    0.000150
   6 C :   -0.162445
   7 O :   -0.474791
   8 H :    0.322312
   9 H :    0.103502
  10 H :    0.097261
  11 H :    0.116970
Sum of atomic charges:    0.0000000

LOEWDIN ATOMIC CHARGES
----------------------
   0 C :   -0.003292
   1 O :   -0.006841
   2 H :   -0.001149
   3 H :   -0.000416
   4 H :   -0.000220
   5 H :   -0.000021
   6 C :   -0.404896
   7 O :   -0.093293
   8 H :    0.203141
   9 H :    0.096692
  10 H :    0.101421
  11 H :    0.108875

  Mayer bond orders larger than 0.1
B(  6-C ,  7-O ) :   1.0113 B(  6-C ,  9-H ) :   0.9853 B(  6-C , 10-H ) :   0.9705
B(  6-C , 11-H ) :   0.9670 B(  7-O ,  8-H ) :   0.8889

Dispersion correction           -0.000260001
FINAL SINGLE POINT ENERGY      -115.728073995170

DIPOLE MOMENT
-------------
                                X             Y             Z
Electronic contribution:     -0.10883      -1.62357      -1.04913
Nuclear contribution   :      0.08504       1.65227       1.77176
                        -----------------------------------------
Total Dipole Moment    :     -0.02379       0.02870       0.72263
                        -----------------------------------------
Magnitude (a.u.)       :      0.72360
Magnitude (Debye)      :      1.83923

Rotational constants in cm-1:     4.216372     0.827859     0.793106
Rotational constants in MHz : 126403.651703 24818.598630 23776.719476

                             ****ORCA TERMINATED NORMALLY****
TOTAL RUN TIME: 0 days 0 hours 1 minutes 2 seconds 574 msec
