                         Program Version 4.1.2  - RELEASE  -
|  1> #Run DFT-D3 single point of the dimer
|  2> ! wB97X-D3 def2-TZVP TIGHTSCF CHELPG PMODEL PAL8
|  3>
|  4> %base "9-55_DFT_AB"
|  5>
|  6> %scf
|  7> MaxIter 1000
|  8> end
|  9>
| 10> * xyz 0 1
| 11>   C                      11.104101            1.379980             -2.789674
| 12>   O                      10.501086            1.573904             -4.084412
| 13>   H                      10.985737            2.266012             -4.552232
| 14>   H                      12.067943            1.871421             -2.666359
| 15>   H                      10.426387            1.644756             -2.008202
| 16>   H                      11.529797            0.348971             -2.652523
| 17>   C                      6.482871             0.175619             -3.124092
| 18>   O                      5.876064             1.479061             -3.086430
| 19>   H                      5.127288             1.460981             -2.485195
| 20>   H                      6.305677             -0.243266            -2.102666
| 21>   H                      5.921835             -0.472918            -3.836024
| 22>   H                      7.590044             0.153542             -3.268757
| 23> *
| 24>
| 25> #Run DFT-D3 single point of the molecule with dimer basis set
| 26> $new_job
| 27> %base "9-55_DFT_A"
| 28> ! wB97X-D3 def2-TZVP TIGHTSCF CHELPG PMODEL
| 29>
| 30> %scf
| 31> MaxIter 1000
| 32> end
| 33>
| 34> * xyz 0 1
| 35>   C                      11.104101            1.379980             -2.789674
| 36>   O                      10.501086            1.573904             -4.084412
| 37>   H                      10.985737            2.266012             -4.552232
| 38>   H                      12.067943            1.871421             -2.666359
| 39>   H                      10.426387            1.644756             -2.008202
| 40>   H                      11.529797            0.348971             -2.652523
| 41>   C                    : 6.482871             0.175619             -3.124092
| 42>   O                    : 5.876064             1.479061             -3.086430
| 43>   H                    : 5.127288             1.460981             -2.485195
| 44>   H                    : 6.305677             -0.243266            -2.102666
| 45>   H                    : 5.921835             -0.472918            -3.836024
| 46>   H                    : 7.590044             0.153542             -3.268757
| 47> *
| 48>
| 49> #Run DFT-D3 single point of the particle with dimer basis set
| 50> $new_job
| 51> %base "9-55_DFT_B"
| 52> ! wB97X-D3 def2-TZVP TIGHTSCF CHELPG PMODEL
| 53>
| 54> %scf
| 55> MaxIter 1000
| 56> end
| 57>
| 58> * xyz 0 1
| 59>   C                    : 11.104101            1.379980             -2.789674
| 60>   O                    : 10.501086            1.573904             -4.084412
| 61>   H                    : 10.985737            2.266012             -4.552232
| 62>   H                    : 12.067943            1.871421             -2.666359
| 63>   H                    : 10.426387            1.644756             -2.008202
| 64>   H                    : 11.529797            0.348971             -2.652523
| 65>   C                      6.482871             0.175619             -3.124092
| 66>   O                      5.876064             1.479061             -3.086430
| 67>   H                      5.127288             1.460981             -2.485195
| 68>   H                      6.305677             -0.243266            -2.102666
| 69>   H                      5.921835             -0.472918            -3.836024
| 70>   H                      7.590044             0.153542             -3.268757
| 71> *
| 72>
| 73>                          ****END OF INPUT****
 Total Charge           Charge          ....    0
 Multiplicity           Mult            ....    1
 Number of Electrons    NEL             ....   36
Dispersion correction           -0.001047939
FINAL SINGLE POINT ENERGY      -231.460262632444
Dispersion correction           -0.000272351
FINAL SINGLE POINT ENERGY      -115.729277861383

CARTESIAN COORDINATES (ANGSTROEM)
---------------------------------
  C     11.104101    1.379980   -2.789674
  O     10.501086    1.573904   -4.084412
  H     10.985737    2.266012   -4.552232
  H     12.067943    1.871421   -2.666359
  H     10.426387    1.644756   -2.008202
  H     11.529797    0.348971   -2.652523
  C      6.482871    0.175619   -3.124092
  O      5.876064    1.479061   -3.086430
  H      5.127288    1.460981   -2.485195
  H      6.305677   -0.243266   -2.102666
  H      5.921835   -0.472918   -3.836024
  H      7.590044    0.153542   -3.268757

 Multiplicity           Mult            ....    1
 Number of Electrons    NEL             ....   18
 Basis Dimension        Dim             ....  172

ORBITAL ENERGIES
----------------

  NO   OCC          E(Eh)            E(eV)
   0   2.0000     -19.227376      -523.2035
   1   2.0000     -10.323907      -280.9278
   2   2.0000      -1.127727       -30.6870
   3   2.0000      -0.790589       -21.5130
   4   2.0000      -0.603668       -16.4266
   5   2.0000      -0.541221       -14.7274
   6   2.0000      -0.525806       -14.3079
   7   2.0000      -0.424901       -11.5622
   8   2.0000      -0.372786       -10.1440
   9   0.0000       0.085071         2.3149
  10   0.0000       0.112451         3.0600
  11   0.0000       0.150074         4.0837
  12   0.0000       0.167794         4.5659
  13   0.0000       0.182669         4.9707

MULLIKEN ATOMIC CHARGES
-----------------------
   0 C :    0.000048
   1 O :   -0.000021
   2 H :   -0.000005
   3 H :    0.000014
   4 H :    0.000131
   5 H :   -0.000025
   6 C :   -0.173118
   7 O :   -0.482472
   8 H :    0.317962
   9 H :    0.102068
  10 H :    0.106965
  11 H :    0.128453
Sum of atomic charges:   -0.0000000

LOEWDIN ATOMIC CHARGES
----------------------
   0 C :   -0.000643
   1 O :   -0.000269
   2 H :   -0.000015
   3 H :   -0.000007
   4 H :   -0.000102
   5 H :   -0.000025
   6 C :   -0.374044
   7 O :   -0.102371
   8 H :    0.167074
   9 H :    0.100482
  10 H :    0.099010
  11 H :    0.110910

  Mayer bond orders larger than 0.1
B(  6-C ,  7-O ) :   0.9944 B(  6-C ,  9-H ) :   0.9923 B(  6-C , 10-H ) :   0.9720
B(  6-C , 11-H ) :   0.9644 B(  7-O ,  8-H ) :   0.8979

Dispersion correction           -0.000249290
FINAL SINGLE POINT ENERGY      -115.730342204864

DIPOLE MOMENT
-------------
                                X             Y             Z
Electronic contribution:     -0.54878       1.72350      -0.19109
Nuclear contribution   :      0.32382      -2.27217       0.58849
                        -----------------------------------------
Total Dipole Moment    :     -0.22496      -0.54866       0.39739
                        -----------------------------------------
Magnitude (a.u.)       :      0.71384
Magnitude (Debye)      :      1.81443

Rotational constants in cm-1:     4.157530     0.803633     0.779676
Rotational constants in MHz : 124639.619746 24092.300296 23374.100520

                             ****ORCA TERMINATED NORMALLY****
TOTAL RUN TIME: 0 days 0 hours 0 minutes 44 seconds 480 msec
