                         Program Version 4.1.2  - RELEASE  -
|  1> #Run DFT-D3 single point of the dimer
|  2> ! wB97X-D3 def2-TZVP TIGHTSCF CHELPG PMODEL PAL8
|  3>
|  4> %base "16-94_DFT_AB"
|  5>
|  6> %scf
|  7> MaxIter 1000
|  8> end
|  9>
| 10> * xyz 0 1
| 11>   C                      7.892758             10.821007            -2.226867
| 12>   O                      8.272880             9.742820             -1.404930
| 13>   H                      8.541633             10.062633            -0.501364
| 14>   H                      7.192416             10.442952            -2.924750
| 15>   H                      7.429778             11.576646            -1.600123
| 16>   H                      8.748379             11.363983            -2.592521
| 17>   C                      4.275576             10.982180            -1.648719
| 18>   O                      5.038486             11.994649            -1.023041
| 19>   H                      5.521984             11.546447            -0.319667
| 20>   H                      4.794996             10.361679            -2.357556
| 21>   H                      3.831836             10.249441            -0.948133
| 22>   H                      3.407997             11.389099            -2.222498
| 23> *
| 24>
| 25> #Run DFT-D3 single point of the molecule with dimer basis set
| 26> $new_job
| 27> %base "16-94_DFT_A"
| 28> ! wB97X-D3 def2-TZVP TIGHTSCF CHELPG PMODEL
| 29>
| 30> %scf
| 31> MaxIter 1000
| 32> end
| 33>
| 34> * xyz 0 1
| 35>   C                      7.892758             10.821007            -2.226867
| 36>   O                      8.272880             9.742820             -1.404930
| 37>   H                      8.541633             10.062633            -0.501364
| 38>   H                      7.192416             10.442952            -2.924750
| 39>   H                      7.429778             11.576646            -1.600123
| 40>   H                      8.748379             11.363983            -2.592521
| 41>   C                    : 4.275576             10.982180            -1.648719
| 42>   O                    : 5.038486             11.994649            -1.023041
| 43>   H                    : 5.521984             11.546447            -0.319667
| 44>   H                    : 4.794996             10.361679            -2.357556
| 45>   H                    : 3.831836             10.249441            -0.948133
| 46>   H                    : 3.407997             11.389099            -2.222498
| 47> *
| 48>
| 49> #Run DFT-D3 single point of the particle with dimer basis set
| 50> $new_job
| 51> %base "16-94_DFT_B"
| 52> ! wB97X-D3 def2-TZVP TIGHTSCF CHELPG PMODEL
| 53>
| 54> %scf
| 55> MaxIter 1000
| 56> end
| 57>
| 58> * xyz 0 1
| 59>   C                    : 7.892758             10.821007            -2.226867
| 60>   O                    : 8.272880             9.742820             -1.404930
| 61>   H                    : 8.541633             10.062633            -0.501364
| 62>   H                    : 7.192416             10.442952            -2.924750
| 63>   H                    : 7.429778             11.576646            -1.600123
| 64>   H                    : 8.748379             11.363983            -2.592521
| 65>   C                      4.275576             10.982180            -1.648719
| 66>   O                      5.038486             11.994649            -1.023041
| 67>   H                      5.521984             11.546447            -0.319667
| 68>   H                      4.794996             10.361679            -2.357556
| 69>   H                      3.831836             10.249441            -0.948133
| 70>   H                      3.407997             11.389099            -2.222498
| 71> *
| 72>
| 73>                          ****END OF INPUT****
 Total Charge           Charge          ....    0
 Multiplicity           Mult            ....    1
 Number of Electrons    NEL             ....   36
Dispersion correction           -0.002086178
FINAL SINGLE POINT ENERGY      -231.465484528957
Dispersion correction           -0.000224679
FINAL SINGLE POINT ENERGY      -115.730545565801

CARTESIAN COORDINATES (ANGSTROEM)
---------------------------------
  C      7.892758   10.821007   -2.226867
  O      8.272880    9.742820   -1.404930
  H      8.541633   10.062633   -0.501364
  H      7.192416   10.442952   -2.924750
  H      7.429778   11.576646   -1.600123
  H      8.748379   11.363983   -2.592521
  C      4.275576   10.982180   -1.648719
  O      5.038486   11.994649   -1.023041
  H      5.521984   11.546447   -0.319667
  H      4.794996   10.361679   -2.357556
  H      3.831836   10.249441   -0.948133
  H      3.407997   11.389099   -2.222498

 Multiplicity           Mult            ....    1
 Number of Electrons    NEL             ....   18
 Basis Dimension        Dim             ....  172

ORBITAL ENERGIES
----------------

  NO   OCC          E(Eh)            E(eV)
   0   2.0000     -19.238149      -523.4967
   1   2.0000     -10.315404      -280.6964
   2   2.0000      -1.140660       -31.0389
   3   2.0000      -0.796027       -21.6610
   4   2.0000      -0.615525       -16.7493
   5   2.0000      -0.536932       -14.6107
   6   2.0000      -0.527556       -14.3555
   7   2.0000      -0.437803       -11.9132
   8   2.0000      -0.377088       -10.2611
   9   0.0000       0.082914         2.2562
  10   0.0000       0.132998         3.6191
  11   0.0000       0.144532         3.9329
  12   0.0000       0.169648         4.6164
  13   0.0000       0.193401         5.2627

MULLIKEN ATOMIC CHARGES
-----------------------
   0 C :    0.002095
   1 O :    0.000181
   2 H :   -0.000040
   3 H :    0.001500
   4 H :   -0.014905
   5 H :   -0.001114
   6 C :   -0.189038
   7 O :   -0.452724
   8 H :    0.320196
   9 H :    0.104881
  10 H :    0.106668
  11 H :    0.122300
Sum of atomic charges:   -0.0000000

LOEWDIN ATOMIC CHARGES
----------------------
   0 C :   -0.010204
   1 O :   -0.000115
   2 H :   -0.000166
   3 H :   -0.002847
   4 H :   -0.012995
   5 H :   -0.000109
   6 C :   -0.395518
   7 O :   -0.055978
   8 H :    0.177076
   9 H :    0.090525
  10 H :    0.097565
  11 H :    0.112769

  Mayer bond orders larger than 0.1
B(  6-C ,  7-O ) :   1.0142 B(  6-C ,  9-H ) :   0.9681 B(  6-C , 10-H ) :   0.9817
B(  6-C , 11-H ) :   0.9765 B(  7-O ,  8-H ) :   0.8959

Dispersion correction           -0.000255799
FINAL SINGLE POINT ENERGY      -115.734329675502

DIPOLE MOMENT
-------------
                                X             Y             Z
Electronic contribution:      1.04146       1.52777       0.76080
Nuclear contribution   :     -1.05133      -2.20280      -0.55545
                        -----------------------------------------
Total Dipole Moment    :     -0.00987      -0.67502       0.20535
                        -----------------------------------------
Magnitude (a.u.)       :      0.70564
Magnitude (Debye)      :      1.79358

Rotational constants in cm-1:     4.398979     0.821925     0.787336
Rotational constants in MHz : 131878.083154 24640.685141 23603.740919

                             ****ORCA TERMINATED NORMALLY****
TOTAL RUN TIME: 0 days 0 hours 0 minutes 55 seconds 592 msec
