                         Program Version 4.1.2  - RELEASE  -
|  1> #Run DFT-D3 single point of the dimer
|  2> ! wB97X-D3 def2-TZVP TIGHTSCF CHELPG PMODEL PAL8
|  3>
|  4> %base "8-140_DFT_AB"
|  5>
|  6> %scf
|  7> MaxIter 1000
|  8> end
|  9>
| 10> * xyz 0 1
| 11>   C                      8.283693             3.564489             -7.961779
| 12>   O                      9.208929             4.425566             -8.624489
| 13>   H                      9.989970             4.551249             -8.070807
| 14>   H                      8.733532             2.900308             -7.241755
| 15>   H                      7.574161             4.085482             -7.293596
| 16>   H                      7.764251             3.051280             -8.713159
| 17>   C                      7.542558             -0.041059            -10.357391
| 18>   O                      7.854523             -0.146638            -8.979683
| 19>   H                      8.683991             0.205657             -8.657346
| 20>   H                      8.355913             0.431980             -10.915062
| 21>   H                      7.198235             -0.949970            -10.882221
| 22>   H                      6.773131             0.681524             -10.525731
| 23> *
| 24>
| 25> #Run DFT-D3 single point of the molecule with dimer basis set
| 26> $new_job
| 27> %base "8-140_DFT_A"
| 28> ! wB97X-D3 def2-TZVP TIGHTSCF CHELPG PMODEL
| 29>
| 30> %scf
| 31> MaxIter 1000
| 32> end
| 33>
| 34> * xyz 0 1
| 35>   C                      8.283693             3.564489             -7.961779
| 36>   O                      9.208929             4.425566             -8.624489
| 37>   H                      9.989970             4.551249             -8.070807
| 38>   H                      8.733532             2.900308             -7.241755
| 39>   H                      7.574161             4.085482             -7.293596
| 40>   H                      7.764251             3.051280             -8.713159
| 41>   C                    : 7.542558             -0.041059            -10.357391
| 42>   O                    : 7.854523             -0.146638            -8.979683
| 43>   H                    : 8.683991             0.205657             -8.657346
| 44>   H                    : 8.355913             0.431980             -10.915062
| 45>   H                    : 7.198235             -0.949970            -10.882221
| 46>   H                    : 6.773131             0.681524             -10.525731
| 47> *
| 48>
| 49> #Run DFT-D3 single point of the particle with dimer basis set
| 50> $new_job
| 51> %base "8-140_DFT_B"
| 52> ! wB97X-D3 def2-TZVP TIGHTSCF CHELPG PMODEL
| 53>
| 54> %scf
| 55> MaxIter 1000
| 56> end
| 57>
| 58> * xyz 0 1
| 59>   C                    : 8.283693             3.564489             -7.961779
| 60>   O                    : 9.208929             4.425566             -8.624489
| 61>   H                    : 9.989970             4.551249             -8.070807
| 62>   H                    : 8.733532             2.900308             -7.241755
| 63>   H                    : 7.574161             4.085482             -7.293596
| 64>   H                    : 7.764251             3.051280             -8.713159
| 65>   C                      7.542558             -0.041059            -10.357391
| 66>   O                      7.854523             -0.146638            -8.979683
| 67>   H                      8.683991             0.205657             -8.657346
| 68>   H                      8.355913             0.431980             -10.915062
| 69>   H                      7.198235             -0.949970            -10.882221
| 70>   H                      6.773131             0.681524             -10.525731
| 71> *
| 72>
| 73>                          ****END OF INPUT****
 Total Charge           Charge          ....    0
 Multiplicity           Mult            ....    1
 Number of Electrons    NEL             ....   36
Dispersion correction           -0.001521947
FINAL SINGLE POINT ENERGY      -231.462144412975
Dispersion correction           -0.000254931
FINAL SINGLE POINT ENERGY      -115.732521775019

CARTESIAN COORDINATES (ANGSTROEM)
---------------------------------
  C      8.283693    3.564489   -7.961779
  O      9.208929    4.425566   -8.624489
  H      9.989970    4.551249   -8.070807
  H      8.733532    2.900308   -7.241755
  H      7.574161    4.085482   -7.293596
  H      7.764251    3.051280   -8.713159
  C      7.542558   -0.041059  -10.357391
  O      7.854523   -0.146638   -8.979683
  H      8.683991    0.205657   -8.657346
  H      8.355913    0.431980  -10.915062
  H      7.198235   -0.949970  -10.882221
  H      6.773131    0.681524  -10.525731

 Multiplicity           Mult            ....    1
 Number of Electrons    NEL             ....   18
 Basis Dimension        Dim             ....  172

ORBITAL ENERGIES
----------------

  NO   OCC          E(Eh)            E(eV)
   0   2.0000     -19.227554      -523.2083
   1   2.0000     -10.313893      -280.6553
   2   2.0000      -1.129253       -30.7285
   3   2.0000      -0.804376       -21.8882
   4   2.0000      -0.618351       -16.8262
   5   2.0000      -0.538183       -14.6447
   6   2.0000      -0.528752       -14.3881
   7   2.0000      -0.419181       -11.4065
   8   2.0000      -0.372620       -10.1395
   9   0.0000       0.079760         2.1704
  10   0.0000       0.125913         3.4263
  11   0.0000       0.142476         3.8770
  12   0.0000       0.168585         4.5874
  13   0.0000       0.194895         5.3034

MULLIKEN ATOMIC CHARGES
-----------------------
   0 C :   -0.003466
   1 O :    0.000112
   2 H :    0.000017
   3 H :   -0.000125
   4 H :   -0.000318
   5 H :   -0.000617
   6 C :   -0.159058
   7 O :   -0.503260
   8 H :    0.328099
   9 H :    0.105940
  10 H :    0.120613
  11 H :    0.112064
Sum of atomic charges:   -0.0000000

LOEWDIN ATOMIC CHARGES
----------------------
   0 C :   -0.003690
   1 O :   -0.000024
   2 H :   -0.000003
   3 H :   -0.000748
   4 H :   -0.000051
   5 H :   -0.001830
   6 C :   -0.381948
   7 O :   -0.077536
   8 H :    0.166289
   9 H :    0.098751
  10 H :    0.106406
  11 H :    0.094383

  Mayer bond orders larger than 0.1
B(  6-C ,  7-O ) :   0.9927 B(  6-C ,  9-H ) :   0.9852 B(  6-C , 10-H ) :   0.9704
B(  6-C , 11-H ) :   0.9776 B(  7-O ,  8-H ) :   0.8866

Dispersion correction           -0.000274571
FINAL SINGLE POINT ENERGY      -115.728227933954

DIPOLE MOMENT
-------------
                                X             Y             Z
Electronic contribution:      0.32709      -0.32855       1.82181
Nuclear contribution   :      0.10712       0.63428      -2.20312
                        -----------------------------------------
Total Dipole Moment    :      0.43421       0.30573      -0.38131
                        -----------------------------------------
Magnitude (a.u.)       :      0.65376
Magnitude (Debye)      :      1.66173

Rotational constants in cm-1:     4.651192     0.807282     0.778477
Rotational constants in MHz : 139439.213977 24201.700166 23338.158896

                             ****ORCA TERMINATED NORMALLY****
TOTAL RUN TIME: 0 days 0 hours 0 minutes 43 seconds 956 msec
