                         Program Version 4.1.2  - RELEASE  -
|  1> #Run DFT-D3 single point of the dimer
|  2> ! wB97X-D3 def2-TZVP TIGHTSCF CHELPG PMODEL PAL8
|  3>
|  4> %base "8-7_DFT_AB"
|  5>
|  6> %scf
|  7> MaxIter 1000
|  8> end
|  9>
| 10> * xyz 0 1
| 11>   C                      3.233414             -3.571402            3.480505
| 12>   O                      2.255676             -2.570167            3.219103
| 13>   H                      1.566001             -2.787145            3.844910
| 14>   H                      2.766447             -4.558397            3.518261
| 15>   H                      4.083400             -3.498807            2.869667
| 16>   H                      3.649298             -3.340378            4.517966
| 17>   C                      3.383848             -4.997898            8.775477
| 18>   O                      4.321349             -5.344710            9.793845
| 19>   H                      5.010987             -4.761969            9.925138
| 20>   H                      3.874750             -4.633568            7.908581
| 21>   H                      2.788686             -5.840481            8.401953
| 22>   H                      2.727648             -4.186402            9.122463
| 23> *
| 24>
| 25> #Run DFT-D3 single point of the molecule with dimer basis set
| 26> $new_job
| 27> %base "8-7_DFT_A"
| 28> ! wB97X-D3 def2-TZVP TIGHTSCF CHELPG PMODEL
| 29>
| 30> %scf
| 31> MaxIter 1000
| 32> end
| 33>
| 34> * xyz 0 1
| 35>   C                      3.233414             -3.571402            3.480505
| 36>   O                      2.255676             -2.570167            3.219103
| 37>   H                      1.566001             -2.787145            3.844910
| 38>   H                      2.766447             -4.558397            3.518261
| 39>   H                      4.083400             -3.498807            2.869667
| 40>   H                      3.649298             -3.340378            4.517966
| 41>   C                    : 3.383848             -4.997898            8.775477
| 42>   O                    : 4.321349             -5.344710            9.793845
| 43>   H                    : 5.010987             -4.761969            9.925138
| 44>   H                    : 3.874750             -4.633568            7.908581
| 45>   H                    : 2.788686             -5.840481            8.401953
| 46>   H                    : 2.727648             -4.186402            9.122463
| 47> *
| 48>
| 49> #Run DFT-D3 single point of the particle with dimer basis set
| 50> $new_job
| 51> %base "8-7_DFT_B"
| 52> ! wB97X-D3 def2-TZVP TIGHTSCF CHELPG PMODEL
| 53>
| 54> %scf
| 55> MaxIter 1000
| 56> end
| 57>
| 58> * xyz 0 1
| 59>   C                    : 3.233414             -3.571402            3.480505
| 60>   O                    : 2.255676             -2.570167            3.219103
| 61>   H                    : 1.566001             -2.787145            3.844910
| 62>   H                    : 2.766447             -4.558397            3.518261
| 63>   H                    : 4.083400             -3.498807            2.869667
| 64>   H                    : 3.649298             -3.340378            4.517966
| 65>   C                      3.383848             -4.997898            8.775477
| 66>   O                      4.321349             -5.344710            9.793845
| 67>   H                      5.010987             -4.761969            9.925138
| 68>   H                      3.874750             -4.633568            7.908581
| 69>   H                      2.788686             -5.840481            8.401953
| 70>   H                      2.727648             -4.186402            9.122463
| 71> *
| 72>
| 73>                          ****END OF INPUT****
 Total Charge           Charge          ....    0
 Multiplicity           Mult            ....    1
 Number of Electrons    NEL             ....   36
Dispersion correction           -0.000680996
FINAL SINGLE POINT ENERGY      -231.460737545256
Dispersion correction           -0.000215901
FINAL SINGLE POINT ENERGY      -115.730571078918

CARTESIAN COORDINATES (ANGSTROEM)
---------------------------------
  C      3.233414   -3.571402    3.480505
  O      2.255676   -2.570167    3.219103
  H      1.566001   -2.787145    3.844910
  H      2.766447   -4.558397    3.518261
  H      4.083400   -3.498807    2.869667
  H      3.649298   -3.340378    4.517966
  C      3.383848   -4.997898    8.775477
  O      4.321349   -5.344710    9.793845
  H      5.010987   -4.761969    9.925138
  H      3.874750   -4.633568    7.908581
  H      2.788686   -5.840481    8.401953
  H      2.727648   -4.186402    9.122463

 Multiplicity           Mult            ....    1
 Number of Electrons    NEL             ....   18
 Basis Dimension        Dim             ....  172

ORBITAL ENERGIES
----------------

  NO   OCC          E(Eh)            E(eV)
   0   2.0000     -19.221147      -523.0340
   1   2.0000     -10.313270      -280.6383
   2   2.0000      -1.135545       -30.8997
   3   2.0000      -0.806657       -21.9502
   4   2.0000      -0.617994       -16.8165
   5   2.0000      -0.541552       -14.7364
   6   2.0000      -0.528812       -14.3897
   7   2.0000      -0.424397       -11.5484
   8   2.0000      -0.374142       -10.1809
   9   0.0000       0.082312         2.2398
  10   0.0000       0.122169         3.3244
  11   0.0000       0.147134         4.0037
  12   0.0000       0.164529         4.4771
  13   0.0000       0.182489         4.9658

MULLIKEN ATOMIC CHARGES
-----------------------
   0 C :    0.000166
   1 O :   -0.000002
   2 H :   -0.000005
   3 H :   -0.000022
   4 H :   -0.000012
   5 H :   -0.000363
   6 C :   -0.154763
   7 O :   -0.488678
   8 H :    0.309045
   9 H :    0.106828
  10 H :    0.123629
  11 H :    0.104175
Sum of atomic charges:    0.0000000

LOEWDIN ATOMIC CHARGES
----------------------
   0 C :   -0.000065
   1 O :   -0.000002
   2 H :   -0.000001
   3 H :   -0.000006
   4 H :   -0.000000
   5 H :   -0.000266
   6 C :   -0.364559
   7 O :   -0.065508
   8 H :    0.132834
   9 H :    0.088870
  10 H :    0.110938
  11 H :    0.097765

  Mayer bond orders larger than 0.1
B(  6-C ,  7-O ) :   0.9867 B(  6-C ,  9-H ) :   0.9812 B(  6-C , 10-H ) :   0.9693
B(  6-C , 11-H ) :   0.9782 B(  7-O ,  8-H ) :   0.9054

Dispersion correction           -0.000257326
FINAL SINGLE POINT ENERGY      -115.730082405366

DIPOLE MOMENT
-------------
                                X             Y             Z
Electronic contribution:      1.12064      -0.57071       1.30955
Nuclear contribution   :     -1.03935       1.11381      -1.69063
                        -----------------------------------------
Total Dipole Moment    :      0.08129       0.54309      -0.38109
                        -----------------------------------------
Magnitude (a.u.)       :      0.66842
Magnitude (Debye)      :      1.69899

Rotational constants in cm-1:     4.598320     0.806368     0.785430
Rotational constants in MHz : 137854.163872 24174.301145 23546.603714

                             ****ORCA TERMINATED NORMALLY****
TOTAL RUN TIME: 0 days 0 hours 0 minutes 41 seconds 643 msec
