                         Program Version 4.1.2  - RELEASE  -
|  1> #Run DFT-D3 single point of the dimer
|  2> ! wB97X-D3 def2-TZVP TIGHTSCF CHELPG PMODEL PAL8
|  3>
|  4> %base "5-63_DFT_AB"
|  5>
|  6> %scf
|  7> MaxIter 1000
|  8> end
|  9>
| 10> * xyz 0 1
| 11>   C                      0.496941             1.392049             5.026981
| 12>   O                      -0.494197            0.337308             5.082726
| 13>   H                      -0.689183            0.394878             4.127763
| 14>   H                      1.282604             1.248695             5.776744
| 15>   H                      1.032644             1.416140             4.066925
| 16>   H                      -0.013328            2.353019             5.225455
| 17>   C                      0.567218             6.000519             3.160337
| 18>   O                      0.360484             6.270881             1.769133
| 19>   H                      -0.567800            6.452111             1.611484
| 20>   H                      1.629474             5.820001             3.235269
| 21>   H                      0.317510             6.933082             3.730363
| 22>   H                      -0.035569            5.195958             3.619373
| 23> *
| 24>
| 25> #Run DFT-D3 single point of the molecule with dimer basis set
| 26> $new_job
| 27> %base "5-63_DFT_A"
| 28> ! wB97X-D3 def2-TZVP TIGHTSCF CHELPG PMODEL
| 29>
| 30> %scf
| 31> MaxIter 1000
| 32> end
| 33>
| 34> * xyz 0 1
| 35>   C                      0.496941             1.392049             5.026981
| 36>   O                      -0.494197            0.337308             5.082726
| 37>   H                      -0.689183            0.394878             4.127763
| 38>   H                      1.282604             1.248695             5.776744
| 39>   H                      1.032644             1.416140             4.066925
| 40>   H                      -0.013328            2.353019             5.225455
| 41>   C                    : 0.567218             6.000519             3.160337
| 42>   O                    : 0.360484             6.270881             1.769133
| 43>   H                    : -0.567800            6.452111             1.611484
| 44>   H                    : 1.629474             5.820001             3.235269
| 45>   H                    : 0.317510             6.933082             3.730363
| 46>   H                    : -0.035569            5.195958             3.619373
| 47> *
| 48>
| 49> #Run DFT-D3 single point of the particle with dimer basis set
| 50> $new_job
| 51> %base "5-63_DFT_B"
| 52> ! wB97X-D3 def2-TZVP TIGHTSCF CHELPG PMODEL
| 53>
| 54> %scf
| 55> MaxIter 1000
| 56> end
| 57>
| 58> * xyz 0 1
| 59>   C                    : 0.496941             1.392049             5.026981
| 60>   O                    : -0.494197            0.337308             5.082726
| 61>   H                    : -0.689183            0.394878             4.127763
| 62>   H                    : 1.282604             1.248695             5.776744
| 63>   H                    : 1.032644             1.416140             4.066925
| 64>   H                    : -0.013328            2.353019             5.225455
| 65>   C                      0.567218             6.000519             3.160337
| 66>   O                      0.360484             6.270881             1.769133
| 67>   H                      -0.567800            6.452111             1.611484
| 68>   H                      1.629474             5.820001             3.235269
| 69>   H                      0.317510             6.933082             3.730363
| 70>   H                      -0.035569            5.195958             3.619373
| 71> *
| 72>
| 73>                          ****END OF INPUT****
 Total Charge           Charge          ....    0
 Multiplicity           Mult            ....    1
 Number of Electrons    NEL             ....   36
Dispersion correction           -0.000819154
FINAL SINGLE POINT ENERGY      -231.464020762969
Dispersion correction           -0.000226452
FINAL SINGLE POINT ENERGY      -115.728773476522

CARTESIAN COORDINATES (ANGSTROEM)
---------------------------------
  C      0.496941    1.392049    5.026981
  O     -0.494197    0.337308    5.082726
  H     -0.689183    0.394878    4.127763
  H      1.282604    1.248695    5.776744
  H      1.032644    1.416140    4.066925
  H     -0.013328    2.353019    5.225455
  C      0.567218    6.000519    3.160337
  O      0.360484    6.270881    1.769133
  H     -0.567800    6.452111    1.611484
  H      1.629474    5.820001    3.235269
  H      0.317510    6.933082    3.730363
  H     -0.035569    5.195958    3.619373

 Multiplicity           Mult            ....    1
 Number of Electrons    NEL             ....   18
 Basis Dimension        Dim             ....  172

ORBITAL ENERGIES
----------------

  NO   OCC          E(Eh)            E(eV)
   0   2.0000     -19.229134      -523.2513
   1   2.0000     -10.316848      -280.7357
   2   2.0000      -1.129848       -30.7447
   3   2.0000      -0.794651       -21.6235
   4   2.0000      -0.610054       -16.6004
   5   2.0000      -0.532653       -14.4942
   6   2.0000      -0.523312       -14.2400
   7   2.0000      -0.438440       -11.9306
   8   2.0000      -0.371888       -10.1196
   9   0.0000       0.084405         2.2968
  10   0.0000       0.116622         3.1735
  11   0.0000       0.147296         4.0081
  12   0.0000       0.171666         4.6713
  13   0.0000       0.183539         4.9944

MULLIKEN ATOMIC CHARGES
-----------------------
   0 C :    0.000147
   1 O :   -0.000004
   2 H :   -0.000010
   3 H :   -0.000007
   4 H :   -0.000012
   5 H :   -0.000419
   6 C :   -0.165127
   7 O :   -0.477835
   8 H :    0.310678
   9 H :    0.125846
  10 H :    0.101275
  11 H :    0.105468
Sum of atomic charges:   -0.0000000

LOEWDIN ATOMIC CHARGES
----------------------
   0 C :   -0.000304
   1 O :   -0.000004
   2 H :   -0.000001
   3 H :   -0.000002
   4 H :   -0.000030
   5 H :   -0.000604
   6 C :   -0.374658
   7 O :   -0.090634
   8 H :    0.163072
   9 H :    0.108107
  10 H :    0.099443
  11 H :    0.095614

  Mayer bond orders larger than 0.1
B(  6-C ,  7-O ) :   0.9921 B(  6-C ,  9-H ) :   0.9751 B(  6-C , 10-H ) :   0.9794
B(  6-C , 11-H ) :   0.9636 B(  7-O ,  8-H ) :   0.9019

Dispersion correction           -0.000255217
FINAL SINGLE POINT ENERGY      -115.734831337587

DIPOLE MOMENT
-------------
                                X             Y             Z
Electronic contribution:     -0.12746       0.18480      -1.77317
Nuclear contribution   :     -0.37255      -0.17749       2.23187
                        -----------------------------------------
Total Dipole Moment    :     -0.50001       0.00731       0.45870
                        -----------------------------------------
Magnitude (a.u.)       :      0.67858
Magnitude (Debye)      :      1.72481

Rotational constants in cm-1:     4.228485     0.815914     0.784686
Rotational constants in MHz : 126766.795406 24460.486668 23524.284184

                             ****ORCA TERMINATED NORMALLY****
TOTAL RUN TIME: 0 days 0 hours 1 minutes 3 seconds 327 msec
