                         Program Version 4.1.2  - RELEASE  -
|  1> #Run DFT-D3 single point of the dimer
|  2> ! wB97X-D3 def2-TZVP TIGHTSCF CHELPG PMODEL PAL8
|  3>
|  4> %base "20-53_DFT_AB"
|  5>
|  6> %scf
|  7> MaxIter 1000
|  8> end
|  9>
| 10> * xyz 0 1
| 11>   C                      10.369788            -1.022027            1.137112
| 12>   O                      9.385676             -0.662923            2.037067
| 13>   H                      8.915815             -1.406507            2.396030
| 14>   H                      9.951602             -1.529467            0.290434
| 15>   H                      10.979370            -0.132618            0.842871
| 16>   H                      10.919377            -1.856796            1.581003
| 17>   C                      10.961408            -5.532686            1.829235
| 18>   O                      11.366368            -6.838994            1.781109
| 19>   H                      11.088653            -7.143761            0.930612
| 20>   H                      11.536080            -4.998605            1.147628
| 21>   H                      9.918327             -5.439448            1.569578
| 22>   H                      11.144971            -5.038956            2.765687
| 23> *
| 24>
| 25> #Run DFT-D3 single point of the molecule with dimer basis set
| 26> $new_job
| 27> %base "20-53_DFT_A"
| 28> ! wB97X-D3 def2-TZVP TIGHTSCF CHELPG PMODEL
| 29>
| 30> %scf
| 31> MaxIter 1000
| 32> end
| 33>
| 34> * xyz 0 1
| 35>   C                      10.369788            -1.022027            1.137112
| 36>   O                      9.385676             -0.662923            2.037067
| 37>   H                      8.915815             -1.406507            2.396030
| 38>   H                      9.951602             -1.529467            0.290434
| 39>   H                      10.979370            -0.132618            0.842871
| 40>   H                      10.919377            -1.856796            1.581003
| 41>   C                    : 10.961408            -5.532686            1.829235
| 42>   O                    : 11.366368            -6.838994            1.781109
| 43>   H                    : 11.088653            -7.143761            0.930612
| 44>   H                    : 11.536080            -4.998605            1.147628
| 45>   H                    : 9.918327             -5.439448            1.569578
| 46>   H                    : 11.144971            -5.038956            2.765687
| 47> *
| 48>
| 49> #Run DFT-D3 single point of the particle with dimer basis set
| 50> $new_job
| 51> %base "20-53_DFT_B"
| 52> ! wB97X-D3 def2-TZVP TIGHTSCF CHELPG PMODEL
| 53>
| 54> %scf
| 55> MaxIter 1000
| 56> end
| 57>
| 58> * xyz 0 1
| 59>   C                    : 10.369788            -1.022027            1.137112
| 60>   O                    : 9.385676             -0.662923            2.037067
| 61>   H                    : 8.915815             -1.406507            2.396030
| 62>   H                    : 9.951602             -1.529467            0.290434
| 63>   H                    : 10.979370            -0.132618            0.842871
| 64>   H                    : 10.919377            -1.856796            1.581003
| 65>   C                      10.961408            -5.532686            1.829235
| 66>   O                      11.366368            -6.838994            1.781109
| 67>   H                      11.088653            -7.143761            0.930612
| 68>   H                      11.536080            -4.998605            1.147628
| 69>   H                      9.918327             -5.439448            1.569578
| 70>   H                      11.144971            -5.038956            2.765687
| 71> *
| 72>
| 73>                          ****END OF INPUT****
 Total Charge           Charge          ....    0
 Multiplicity           Mult            ....    1
 Number of Electrons    NEL             ....   36
Dispersion correction           -0.000980831
FINAL SINGLE POINT ENERGY      -231.460061007961
Dispersion correction           -0.000216196
FINAL SINGLE POINT ENERGY      -115.729811308165

CARTESIAN COORDINATES (ANGSTROEM)
---------------------------------
  C     10.369788   -1.022027    1.137112
  O      9.385676   -0.662923    2.037067
  H      8.915815   -1.406507    2.396030
  H      9.951602   -1.529467    0.290434
  H     10.979370   -0.132618    0.842871
  H     10.919377   -1.856796    1.581003
  C     10.961408   -5.532686    1.829235
  O     11.366368   -6.838994    1.781109
  H     11.088653   -7.143761    0.930612
  H     11.536080   -4.998605    1.147628
  H      9.918327   -5.439448    1.569578
  H     11.144971   -5.038956    2.765687

 Multiplicity           Mult            ....    1
 Number of Electrons    NEL             ....   18
 Basis Dimension        Dim             ....  172

ORBITAL ENERGIES
----------------

  NO   OCC          E(Eh)            E(eV)
   0   2.0000     -19.226438      -523.1780
   1   2.0000     -10.298696      -280.2418
   2   2.0000      -1.155372       -31.4393
   3   2.0000      -0.799764       -21.7627
   4   2.0000      -0.620187       -16.8762
   5   2.0000      -0.556090       -15.1320
   6   2.0000      -0.538763       -14.6605
   7   2.0000      -0.432891       -11.7796
   8   2.0000      -0.370406       -10.0793
   9   0.0000       0.080885         2.2010
  10   0.0000       0.117837         3.2065
  11   0.0000       0.152593         4.1523
  12   0.0000       0.161333         4.3901
  13   0.0000       0.190391         5.1808

MULLIKEN ATOMIC CHARGES
-----------------------
   0 C :    0.000526
   1 O :   -0.000003
   2 H :   -0.000031
   3 H :   -0.000198
   4 H :   -0.000007
   5 H :   -0.000673
   6 C :   -0.152987
   7 O :   -0.465862
   8 H :    0.314636
   9 H :    0.096498
  10 H :    0.094101
  11 H :    0.113999
Sum of atomic charges:   -0.0000000

LOEWDIN ATOMIC CHARGES
----------------------
   0 C :   -0.000248
   1 O :   -0.000008
   2 H :   -0.000030
   3 H :   -0.000059
   4 H :   -0.000002
   5 H :   -0.000489
   6 C :   -0.410425
   7 O :   -0.037122
   8 H :    0.166828
   9 H :    0.083661
  10 H :    0.092269
  11 H :    0.105626

  Mayer bond orders larger than 0.1
B(  6-C ,  7-O ) :   0.9983 B(  6-C ,  9-H ) :   0.9881 B(  6-C , 10-H ) :   0.9848
B(  6-C , 11-H ) :   0.9713 B(  7-O ,  8-H ) :   0.9015

Dispersion correction           -0.000191150
FINAL SINGLE POINT ENERGY      -115.729905301600

DIPOLE MOMENT
-------------
                                X             Y             Z
Electronic contribution:      0.57121      -1.72295       0.12895
Nuclear contribution   :     -0.88498       2.03640      -0.65068
                        -----------------------------------------
Total Dipole Moment    :     -0.31378       0.31345      -0.52173
                        -----------------------------------------
Magnitude (a.u.)       :      0.68477
Magnitude (Debye)      :      1.74056

Rotational constants in cm-1:     4.518963     0.889403     0.853660
Rotational constants in MHz : 135475.092832 26663.622405 25592.088632

                             ****ORCA TERMINATED NORMALLY****
TOTAL RUN TIME: 0 days 0 hours 1 minutes 7 seconds 953 msec
