                         Program Version 4.1.2  - RELEASE  -
|  1> #Run DFT-D3 single point of the dimer
|  2> ! wB97X-D3 def2-TZVP TIGHTSCF CHELPG PMODEL PAL8
|  3>
|  4> %base "17-213_DFT_AB"
|  5>
|  6> %scf
|  7> MaxIter 1000
|  8> end
|  9>
| 10> * xyz 0 1
| 11>   C                      -0.007571            2.884202             0.553842
| 12>   O                      -0.961278            2.596705             -0.447890
| 13>   H                      -1.309672            3.448110             -0.727636
| 14>   H                      -0.458122            3.474589             1.324680
| 15>   H                      0.421138             2.083740             1.150053
| 16>   H                      0.747337             3.588553             0.238310
| 17>   C                      0.546155             -0.386009            -2.246830
| 18>   O                      -0.111670            -0.141035            -1.018801
| 19>   H                      -0.654529            0.653653             -1.151172
| 20>   H                      1.184324             0.479456             -2.585590
| 21>   H                      1.090515             -1.314380            -2.225483
| 22>   H                      -0.141371            -0.503635            -3.086953
| 23> *
| 24>
| 25> #Run DFT-D3 single point of the molecule with dimer basis set
| 26> $new_job
| 27> %base "17-213_DFT_A"
| 28> ! wB97X-D3 def2-TZVP TIGHTSCF CHELPG PMODEL
| 29>
| 30> %scf
| 31> MaxIter 1000
| 32> end
| 33>
| 34> * xyz 0 1
| 35>   C                      -0.007571            2.884202             0.553842
| 36>   O                      -0.961278            2.596705             -0.447890
| 37>   H                      -1.309672            3.448110             -0.727636
| 38>   H                      -0.458122            3.474589             1.324680
| 39>   H                      0.421138             2.083740             1.150053
| 40>   H                      0.747337             3.588553             0.238310
| 41>   C                    : 0.546155             -0.386009            -2.246830
| 42>   O                    : -0.111670            -0.141035            -1.018801
| 43>   H                    : -0.654529            0.653653             -1.151172
| 44>   H                    : 1.184324             0.479456             -2.585590
| 45>   H                    : 1.090515             -1.314380            -2.225483
| 46>   H                    : -0.141371            -0.503635            -3.086953
| 47> *
| 48>
| 49> #Run DFT-D3 single point of the particle with dimer basis set
| 50> $new_job
| 51> %base "17-213_DFT_B"
| 52> ! wB97X-D3 def2-TZVP TIGHTSCF CHELPG PMODEL
| 53>
| 54> %scf
| 55> MaxIter 1000
| 56> end
| 57>
| 58> * xyz 0 1
| 59>   C                    : -0.007571            2.884202             0.553842
| 60>   O                    : -0.961278            2.596705             -0.447890
| 61>   H                    : -1.309672            3.448110             -0.727636
| 62>   H                    : -0.458122            3.474589             1.324680
| 63>   H                    : 0.421138             2.083740             1.150053
| 64>   H                    : 0.747337             3.588553             0.238310
| 65>   C                      0.546155             -0.386009            -2.246830
| 66>   O                      -0.111670            -0.141035            -1.018801
| 67>   H                      -0.654529            0.653653             -1.151172
| 68>   H                      1.184324             0.479456             -2.585590
| 69>   H                      1.090515             -1.314380            -2.225483
| 70>   H                      -0.141371            -0.503635            -3.086953
| 71> *
| 72>
| 73>                          ****END OF INPUT****
 Total Charge           Charge          ....    0
 Multiplicity           Mult            ....    1
 Number of Electrons    NEL             ....   36
Dispersion correction           -0.001700732
FINAL SINGLE POINT ENERGY      -231.469857437563
Dispersion correction           -0.000231028
FINAL SINGLE POINT ENERGY      -115.727379159560

CARTESIAN COORDINATES (ANGSTROEM)
---------------------------------
  C     -0.007571    2.884202    0.553842
  O     -0.961278    2.596705   -0.447890
  H     -1.309672    3.448110   -0.727636
  H     -0.458122    3.474589    1.324680
  H      0.421138    2.083740    1.150053
  H      0.747337    3.588553    0.238310
  C      0.546155   -0.386009   -2.246830
  O     -0.111670   -0.141035   -1.018801
  H     -0.654529    0.653653   -1.151172
  H      1.184324    0.479456   -2.585590
  H      1.090515   -1.314380   -2.225483
  H     -0.141371   -0.503635   -3.086953

 Multiplicity           Mult            ....    1
 Number of Electrons    NEL             ....   18
 Basis Dimension        Dim             ....  172

ORBITAL ENERGIES
----------------

  NO   OCC          E(Eh)            E(eV)
   0   2.0000     -19.235895      -523.4353
   1   2.0000     -10.315216      -280.6913
   2   2.0000      -1.137003       -30.9394
   3   2.0000      -0.795229       -21.6393
   4   2.0000      -0.613509       -16.6944
   5   2.0000      -0.538188       -14.6448
   6   2.0000      -0.525788       -14.3074
   7   2.0000      -0.440827       -11.9955
   8   2.0000      -0.372728       -10.1424
   9   0.0000       0.075746         2.0612
  10   0.0000       0.129806         3.5322
  11   0.0000       0.150429         4.0934
  12   0.0000       0.168885         4.5956
  13   0.0000       0.190187         5.1752

MULLIKEN ATOMIC CHARGES
-----------------------
   0 C :   -0.005378
   1 O :   -0.001806
   2 H :   -0.000129
   3 H :   -0.000346
   4 H :   -0.002515
   5 H :    0.000575
   6 C :   -0.177298
   7 O :   -0.459224
   8 H :    0.316092
   9 H :    0.100126
  10 H :    0.126429
  11 H :    0.103474
Sum of atomic charges:   -0.0000000

LOEWDIN ATOMIC CHARGES
----------------------
   0 C :   -0.008716
   1 O :   -0.014199
   2 H :   -0.000614
   3 H :   -0.000164
   4 H :   -0.002495
   5 H :   -0.000101
   6 C :   -0.391909
   7 O :   -0.064421
   8 H :    0.184300
   9 H :    0.100118
  10 H :    0.105586
  11 H :    0.092616

  Mayer bond orders larger than 0.1
B(  6-C ,  7-O ) :   1.0044 B(  6-C ,  9-H ) :   0.9694 B(  6-C , 10-H ) :   0.9729
B(  6-C , 11-H ) :   0.9785 B(  7-O ,  8-H ) :   0.8986

Dispersion correction           -0.000244924
FINAL SINGLE POINT ENERGY      -115.734948025661

DIPOLE MOMENT
-------------
                                X             Y             Z
Electronic contribution:     -0.74649       0.11867       1.76456
Nuclear contribution   :      0.64933       0.24698      -2.34268
                        -----------------------------------------
Total Dipole Moment    :     -0.09716       0.36565      -0.57811
                        -----------------------------------------
Magnitude (a.u.)       :      0.69091
Magnitude (Debye)      :      1.75615

Rotational constants in cm-1:     4.303720     0.827743     0.791600
Rotational constants in MHz : 129022.277850 24815.121820 23731.567859

                             ****ORCA TERMINATED NORMALLY****
TOTAL RUN TIME: 0 days 0 hours 1 minutes 7 seconds 627 msec
