                         Program Version 4.1.2  - RELEASE  -
|  1> #Run DFT-D3 single point of the dimer
|  2> ! wB97X-D3 def2-TZVP TIGHTSCF CHELPG PMODEL PAL8
|  3>
|  4> %base "10-72_DFT_AB"
|  5>
|  6> %scf
|  7> MaxIter 1000
|  8> end
|  9>
| 10> * xyz 0 1
| 11>   C                      4.546624             -10.081734           -0.355543
| 12>   O                      3.316980             -9.471916            -0.450149
| 13>   H                      3.133284             -8.853097            0.272998
| 14>   H                      5.079215             -10.102797           -1.305874
| 15>   H                      5.187251             -9.604669            0.363695
| 16>   H                      4.466684             -11.200598           -0.094542
| 17>   C                      3.098485             -10.254710           3.154652
| 18>   O                      1.929443             -10.645468           2.413402
| 19>   H                      1.326363             -9.867213            2.392018
| 20>   H                      3.838667             -9.664771            2.574647
| 21>   H                      2.839848             -9.539749            3.990909
| 22>   H                      3.496632             -11.128306           3.655965
| 23> *
| 24>
| 25> #Run DFT-D3 single point of the molecule with dimer basis set
| 26> $new_job
| 27> %base "10-72_DFT_A"
| 28> ! wB97X-D3 def2-TZVP TIGHTSCF CHELPG PMODEL
| 29>
| 30> %scf
| 31> MaxIter 1000
| 32> end
| 33>
| 34> * xyz 0 1
| 35>   C                      4.546624             -10.081734           -0.355543
| 36>   O                      3.316980             -9.471916            -0.450149
| 37>   H                      3.133284             -8.853097            0.272998
| 38>   H                      5.079215             -10.102797           -1.305874
| 39>   H                      5.187251             -9.604669            0.363695
| 40>   H                      4.466684             -11.200598           -0.094542
| 41>   C                    : 3.098485             -10.254710           3.154652
| 42>   O                    : 1.929443             -10.645468           2.413402
| 43>   H                    : 1.326363             -9.867213            2.392018
| 44>   H                    : 3.838667             -9.664771            2.574647
| 45>   H                    : 2.839848             -9.539749            3.990909
| 46>   H                    : 3.496632             -11.128306           3.655965
| 47> *
| 48>
| 49> #Run DFT-D3 single point of the particle with dimer basis set
| 50> $new_job
| 51> %base "10-72_DFT_B"
| 52> ! wB97X-D3 def2-TZVP TIGHTSCF CHELPG PMODEL
| 53>
| 54> %scf
| 55> MaxIter 1000
| 56> end
| 57>
| 58> * xyz 0 1
| 59>   C                    : 4.546624             -10.081734           -0.355543
| 60>   O                    : 3.316980             -9.471916            -0.450149
| 61>   H                    : 3.133284             -8.853097            0.272998
| 62>   H                    : 5.079215             -10.102797           -1.305874
| 63>   H                    : 5.187251             -9.604669            0.363695
| 64>   H                    : 4.466684             -11.200598           -0.094542
| 65>   C                      3.098485             -10.254710           3.154652
| 66>   O                      1.929443             -10.645468           2.413402
| 67>   H                      1.326363             -9.867213            2.392018
| 68>   H                      3.838667             -9.664771            2.574647
| 69>   H                      2.839848             -9.539749            3.990909
| 70>   H                      3.496632             -11.128306           3.655965
| 71> *
| 72>
| 73>                          ****END OF INPUT****
 Total Charge           Charge          ....    0
 Multiplicity           Mult            ....    1
 Number of Electrons    NEL             ....   36
Dispersion correction           -0.002153487
FINAL SINGLE POINT ENERGY      -231.464618000054
Dispersion correction           -0.000254254
FINAL SINGLE POINT ENERGY      -115.732469079506

CARTESIAN COORDINATES (ANGSTROEM)
---------------------------------
  C      4.546624  -10.081734   -0.355543
  O      3.316980   -9.471916   -0.450149
  H      3.133284   -8.853097    0.272998
  H      5.079215  -10.102797   -1.305874
  H      5.187251   -9.604669    0.363695
  H      4.466684  -11.200598   -0.094542
  C      3.098485  -10.254710    3.154652
  O      1.929443  -10.645468    2.413402
  H      1.326363   -9.867213    2.392018
  H      3.838667   -9.664771    2.574647
  H      2.839848   -9.539749    3.990909
  H      3.496632  -11.128306    3.655965

 Multiplicity           Mult            ....    1
 Number of Electrons    NEL             ....   18
 Basis Dimension        Dim             ....  172

ORBITAL ENERGIES
----------------

  NO   OCC          E(Eh)            E(eV)
   0   2.0000     -19.235161      -523.4153
   1   2.0000     -10.320097      -280.8241
   2   2.0000      -1.126100       -30.6427
   3   2.0000      -0.792015       -21.5518
   4   2.0000      -0.606492       -16.5035
   5   2.0000      -0.539542       -14.6817
   6   2.0000      -0.517178       -14.0731
   7   2.0000      -0.435594       -11.8531
   8   2.0000      -0.375093       -10.2068
   9   0.0000       0.087946         2.3931
  10   0.0000       0.119778         3.2593
  11   0.0000       0.150571         4.0972
  12   0.0000       0.169581         4.6145
  13   0.0000       0.195071         5.3082

MULLIKEN ATOMIC CHARGES
-----------------------
   0 C :    0.004179
   1 O :   -0.000421
   2 H :   -0.002766
   3 H :    0.000203
   4 H :   -0.000989
   5 H :   -0.000730
   6 C :   -0.183286
   7 O :   -0.476906
   8 H :    0.318680
   9 H :    0.106546
  10 H :    0.106958
  11 H :    0.128534
Sum of atomic charges:    0.0000000

LOEWDIN ATOMIC CHARGES
----------------------
   0 C :   -0.005204
   1 O :   -0.002088
   2 H :   -0.003632
   3 H :   -0.000016
   4 H :   -0.002241
   5 H :   -0.000514
   6 C :   -0.375900
   7 O :   -0.100038
   8 H :    0.182569
   9 H :    0.099931
  10 H :    0.101287
  11 H :    0.105845

  Mayer bond orders larger than 0.1
B(  6-C ,  7-O ) :   0.9988 B(  6-C ,  9-H ) :   0.9647 B(  6-C , 10-H ) :   0.9812
B(  6-C , 11-H ) :   0.9751 B(  7-O ,  8-H ) :   0.8957

Dispersion correction           -0.000264083
FINAL SINGLE POINT ENERGY      -115.732878474107

DIPOLE MOMENT
-------------
                                X             Y             Z
Electronic contribution:     -1.37783      -0.76015      -1.06751
Nuclear contribution   :      1.45038       1.40043       1.37929
                        -----------------------------------------
Total Dipole Moment    :      0.07255       0.64029       0.31179
                        -----------------------------------------
Magnitude (a.u.)       :      0.71585
Magnitude (Debye)      :      1.81955

Rotational constants in cm-1:     4.184557     0.802931     0.773487
Rotational constants in MHz : 125449.874053 24071.269107 23188.553727

                             ****ORCA TERMINATED NORMALLY****
TOTAL RUN TIME: 0 days 0 hours 1 minutes 5 seconds 179 msec
