                         Program Version 4.1.2  - RELEASE  -
|  1> #Run DFT-D3 single point of the dimer
|  2> ! wB97X-D3 def2-TZVP TIGHTSCF CHELPG PMODEL PAL8
|  3>
|  4> %base "8-138_DFT_AB"
|  5>
|  6> %scf
|  7> MaxIter 1000
|  8> end
|  9>
| 10> * xyz 0 1
| 11>   C                      -3.245610            4.766604             5.925738
| 12>   O                      -2.105204            5.526825             5.753957
| 13>   H                      -2.061038            5.470847             4.812791
| 14>   H                      -3.398093            4.514218             6.964937
| 15>   H                      -4.115643            5.335577             5.674308
| 16>   H                      -3.145554            3.834048             5.296263
| 17>   C                      -0.750382            9.042573             4.240234
| 18>   O                      -1.531073            7.879996             4.293425
| 19>   H                      -1.534108            7.630623             5.212753
| 20>   H                      -1.386413            9.896742             3.962073
| 21>   H                      -0.066361            9.151641             5.103275
| 22>   H                      0.001728             8.825493             3.435080
| 23> *
| 24>
| 25> #Run DFT-D3 single point of the molecule with dimer basis set
| 26> $new_job
| 27> %base "8-138_DFT_A"
| 28> ! wB97X-D3 def2-TZVP TIGHTSCF CHELPG PMODEL
| 29>
| 30> %scf
| 31> MaxIter 1000
| 32> end
| 33>
| 34> * xyz 0 1
| 35>   C                      -3.245610            4.766604             5.925738
| 36>   O                      -2.105204            5.526825             5.753957
| 37>   H                      -2.061038            5.470847             4.812791
| 38>   H                      -3.398093            4.514218             6.964937
| 39>   H                      -4.115643            5.335577             5.674308
| 40>   H                      -3.145554            3.834048             5.296263
| 41>   C                    : -0.750382            9.042573             4.240234
| 42>   O                    : -1.531073            7.879996             4.293425
| 43>   H                    : -1.534108            7.630623             5.212753
| 44>   H                    : -1.386413            9.896742             3.962073
| 45>   H                    : -0.066361            9.151641             5.103275
| 46>   H                    : 0.001728             8.825493             3.435080
| 47> *
| 48>
| 49> #Run DFT-D3 single point of the particle with dimer basis set
| 50> $new_job
| 51> %base "8-138_DFT_B"
| 52> ! wB97X-D3 def2-TZVP TIGHTSCF CHELPG PMODEL
| 53>
| 54> %scf
| 55> MaxIter 1000
| 56> end
| 57>
| 58> * xyz 0 1
| 59>   C                    : -3.245610            4.766604             5.925738
| 60>   O                    : -2.105204            5.526825             5.753957
| 61>   H                    : -2.061038            5.470847             4.812791
| 62>   H                    : -3.398093            4.514218             6.964937
| 63>   H                    : -4.115643            5.335577             5.674308
| 64>   H                    : -3.145554            3.834048             5.296263
| 65>   C                      -0.750382            9.042573             4.240234
| 66>   O                      -1.531073            7.879996             4.293425
| 67>   H                      -1.534108            7.630623             5.212753
| 68>   H                      -1.386413            9.896742             3.962073
| 69>   H                      -0.066361            9.151641             5.103275
| 70>   H                      0.001728             8.825493             3.435080
| 71> *
| 72>
| 73>                          ****END OF INPUT****
 Total Charge           Charge          ....    0
 Multiplicity           Mult            ....    1
 Number of Electrons    NEL             ....   36
Dispersion correction           -0.001329471
FINAL SINGLE POINT ENERGY      -231.466123884285
Dispersion correction           -0.000191737
FINAL SINGLE POINT ENERGY      -115.729670046531

CARTESIAN COORDINATES (ANGSTROEM)
---------------------------------
  C     -3.245610    4.766604    5.925738
  O     -2.105204    5.526825    5.753957
  H     -2.061038    5.470847    4.812791
  H     -3.398093    4.514218    6.964937
  H     -4.115643    5.335577    5.674308
  H     -3.145554    3.834048    5.296263
  C     -0.750382    9.042573    4.240234
  O     -1.531073    7.879996    4.293425
  H     -1.534108    7.630623    5.212753
  H     -1.386413    9.896742    3.962073
  H     -0.066361    9.151641    5.103275
  H      0.001728    8.825493    3.435080

 Multiplicity           Mult            ....    1
 Number of Electrons    NEL             ....   18
 Basis Dimension        Dim             ....  172

ORBITAL ENERGIES
----------------

  NO   OCC          E(Eh)            E(eV)
   0   2.0000     -19.229091      -523.2502
   1   2.0000     -10.316402      -280.7236
   2   2.0000      -1.144097       -31.1325
   3   2.0000      -0.789868       -21.4934
   4   2.0000      -0.613590       -16.6966
   5   2.0000      -0.551189       -14.9986
   6   2.0000      -0.518235       -14.1019
   7   2.0000      -0.433221       -11.7885
   8   2.0000      -0.371978       -10.1220
   9   0.0000       0.086277         2.3477
  10   0.0000       0.121380         3.3029
  11   0.0000       0.155494         4.2312
  12   0.0000       0.183030         4.9805
  13   0.0000       0.193864         5.2753

MULLIKEN ATOMIC CHARGES
-----------------------
   0 C :   -0.000281
   1 O :   -0.001483
   2 H :   -0.005079
   3 H :    0.000003
   4 H :   -0.000306
   5 H :    0.000039
   6 C :   -0.180577
   7 O :   -0.452940
   8 H :    0.313925
   9 H :    0.112483
  10 H :    0.107350
  11 H :    0.106867
Sum of atomic charges:    0.0000000

LOEWDIN ATOMIC CHARGES
----------------------
   0 C :   -0.001140
   1 O :   -0.011023
   2 H :   -0.009307
   3 H :   -0.000018
   4 H :   -0.000172
   5 H :   -0.000021
   6 C :   -0.403276
   7 O :   -0.056466
   8 H :    0.170979
   9 H :    0.101817
  10 H :    0.099885
  11 H :    0.108742

  Mayer bond orders larger than 0.1
B(  6-C ,  7-O ) :   1.0054 B(  6-C ,  9-H ) :   0.9708 B(  6-C , 10-H ) :   0.9801
B(  6-C , 11-H ) :   0.9792 B(  7-O ,  8-H ) :   0.9019

Dispersion correction           -0.000234877
FINAL SINGLE POINT ENERGY      -115.730163426113

DIPOLE MOMENT
-------------
                                X             Y             Z
Electronic contribution:     -1.15145      -1.35295       0.05528
Nuclear contribution   :      1.47048       1.62408       0.51731
                        -----------------------------------------
Total Dipole Moment    :      0.31903       0.27113       0.57258
                        -----------------------------------------
Magnitude (a.u.)       :      0.70933
Magnitude (Debye)      :      1.80296

Rotational constants in cm-1:     4.105499     0.850006     0.823711
Rotational constants in MHz : 123079.769784 25482.545775 24694.232205

                             ****ORCA TERMINATED NORMALLY****
TOTAL RUN TIME: 0 days 0 hours 0 minutes 45 seconds 419 msec
