                         Program Version 4.1.2  - RELEASE  -
|  1> #Run DFT-D3 single point of the dimer
|  2> ! wB97X-D3 def2-TZVP TIGHTSCF  CHELPG PAL8
|  3>
|  4> %base "111_charges"
|  5>
|  6> %scf
|  7> MaxIter 1000
|  8> end
|  9> %output
| 10>   Print[ P_Mayer ] 1
| 11>   Print[ P_NatPop ] 1
| 12>   Print[ P_Hirshfeld ] 1
| 13>   Print[ P_Mulliken ] 1
| 14>   Print [ P_Loewdin ] 1
| 15> end
| 16>
| 17> * xyz 0 1
| 18>   C                      -3.147951            -8.611223            -3.303645
| 19>   O                      -3.540132            -9.693111            -2.461106
| 20>   H                      -4.061371            -9.261799            -1.729854
| 21>   H                      -2.515672            -7.948690            -2.731341
| 22>   H                      -2.549695            -8.968175            -4.120108
| 23>   H                      -4.049267            -8.092638            -3.703248
| 24> *
| 25>
| 26>                          ****END OF INPUT****

CARTESIAN COORDINATES (ANGSTROEM)
---------------------------------
  C     -3.147951   -8.611223   -3.303645
  O     -3.540132   -9.693111   -2.461106
  H     -4.061371   -9.261799   -1.729854
  H     -2.515672   -7.948690   -2.731341
  H     -2.549695   -8.968175   -4.120108
  H     -4.049267   -8.092638   -3.703248

 Total Charge           Charge          ....    0
 Multiplicity           Mult            ....    1
 Number of Electrons    NEL             ....   18
 Basis Dimension        Dim             ....   86

ORBITAL ENERGIES
----------------

  NO   OCC          E(Eh)            E(eV)
   0   2.0000     -19.231370      -523.3122
   1   2.0000     -10.311998      -280.6037
   2   2.0000      -1.126856       -30.6633
   3   2.0000      -0.791773       -21.5452
   4   2.0000      -0.599716       -16.3191
   5   2.0000      -0.545404       -14.8412
   6   2.0000      -0.527145       -14.3444
   7   2.0000      -0.434357       -11.8194
   8   2.0000      -0.372155       -10.1269
   9   0.0000       0.111043         3.0216
  10   0.0000       0.156235         4.2514
  11   0.0000       0.201757         5.4901
  12   0.0000       0.206695         5.6245
  13   0.0000       0.217978         5.9315

MULLIKEN ATOMIC CHARGES
-----------------------
   0 C :   -0.163724
   1 O :   -0.477445
   2 H :    0.315533
   3 H :    0.103573
   4 H :    0.121646
   5 H :    0.100418
Sum of atomic charges:    0.0000000

LOEWDIN ATOMIC CHARGES
----------------------
   0 C :   -0.378328
   1 O :   -0.105663
   2 H :    0.189569
   3 H :    0.091938
   4 H :    0.103508
   5 H :    0.098976

  Mayer bond orders larger than 0.1
B(  0-C ,  1-O ) :   0.9952 B(  0-C ,  3-H ) :   0.9809 B(  0-C ,  4-H ) :   0.9723
B(  0-C ,  5-H ) :   0.9773 B(  1-O ,  2-H ) :   0.8966

Dispersion correction           -0.000225453
FINAL SINGLE POINT ENERGY      -115.734234173455

DIPOLE MOMENT
-------------
                                X             Y             Z
Electronic contribution:     -0.39415      -1.47412       0.91303
Nuclear contribution   :      0.25311       2.16149      -0.81019
                        -----------------------------------------
Total Dipole Moment    :     -0.14104       0.68737       0.10284
                        -----------------------------------------
Magnitude (a.u.)       :      0.70919
Magnitude (Debye)      :      1.80261

Rotational constants in cm-1:     4.175500     0.826177     0.798476
Rotational constants in MHz : 125178.330403 24768.149862 23937.712580

                             ****ORCA TERMINATED NORMALLY****
TOTAL RUN TIME: 0 days 0 hours 0 minutes 42 seconds 381 msec
