                         Program Version 4.1.2  - RELEASE  -
|  1> #Run DFT-D3 single point of the dimer
|  2> ! wB97X-D3 def2-TZVP TIGHTSCF CHELPG PMODEL PAL8
|  3>
|  4> %base "21-198_DFT_AB"
|  5>
|  6> %scf
|  7> MaxIter 1000
|  8> end
|  9>
| 10> * xyz 0 1
| 11>   C                      0.091192             -1.749890            -4.539063
| 12>   O                      -0.502179            -0.515485            -4.763093
| 13>   H                      -0.965131            -0.273473            -3.970408
| 14>   H                      -0.308437            -2.259169            -3.681666
| 15>   H                      0.147476             -2.344741            -5.426290
| 16>   H                      1.158647             -1.549646            -4.267280
| 17>   C                      1.462838             -0.711124            -1.274654
| 18>   O                      2.243322             -0.188704            -2.242712
| 19>   H                      1.745035             0.212361             -2.959952
| 20>   H                      1.293219             -0.079725            -0.462173
| 21>   H                      0.480284             -1.107234            -1.686789
| 22>   H                      1.961819             -1.640637            -0.787274
| 23> *
| 24>
| 25> #Run DFT-D3 single point of the molecule with dimer basis set
| 26> $new_job
| 27> %base "21-198_DFT_A"
| 28> ! wB97X-D3 def2-TZVP TIGHTSCF CHELPG PMODEL
| 29>
| 30> %scf
| 31> MaxIter 1000
| 32> end
| 33>
| 34> * xyz 0 1
| 35>   C                      0.091192             -1.749890            -4.539063
| 36>   O                      -0.502179            -0.515485            -4.763093
| 37>   H                      -0.965131            -0.273473            -3.970408
| 38>   H                      -0.308437            -2.259169            -3.681666
| 39>   H                      0.147476             -2.344741            -5.426290
| 40>   H                      1.158647             -1.549646            -4.267280
| 41>   C                    : 1.462838             -0.711124            -1.274654
| 42>   O                    : 2.243322             -0.188704            -2.242712
| 43>   H                    : 1.745035             0.212361             -2.959952
| 44>   H                    : 1.293219             -0.079725            -0.462173
| 45>   H                    : 0.480284             -1.107234            -1.686789
| 46>   H                    : 1.961819             -1.640637            -0.787274
| 47> *
| 48>
| 49> #Run DFT-D3 single point of the particle with dimer basis set
| 50> $new_job
| 51> %base "21-198_DFT_B"
| 52> ! wB97X-D3 def2-TZVP TIGHTSCF CHELPG PMODEL
| 53>
| 54> %scf
| 55> MaxIter 1000
| 56> end
| 57>
| 58> * xyz 0 1
| 59>   C                    : 0.091192             -1.749890            -4.539063
| 60>   O                    : -0.502179            -0.515485            -4.763093
| 61>   H                    : -0.965131            -0.273473            -3.970408
| 62>   H                    : -0.308437            -2.259169            -3.681666
| 63>   H                    : 0.147476             -2.344741            -5.426290
| 64>   H                    : 1.158647             -1.549646            -4.267280
| 65>   C                      1.462838             -0.711124            -1.274654
| 66>   O                      2.243322             -0.188704            -2.242712
| 67>   H                      1.745035             0.212361             -2.959952
| 68>   H                      1.293219             -0.079725            -0.462173
| 69>   H                      0.480284             -1.107234            -1.686789
| 70>   H                      1.961819             -1.640637            -0.787274
| 71> *
| 72>
| 73>                          ****END OF INPUT****
 Total Charge           Charge          ....    0
 Multiplicity           Mult            ....    1
 Number of Electrons    NEL             ....   36
Dispersion correction           -0.002309670
FINAL SINGLE POINT ENERGY      -231.462934521636
Dispersion correction           -0.000224850
FINAL SINGLE POINT ENERGY      -115.732508497548

CARTESIAN COORDINATES (ANGSTROEM)
---------------------------------
  C      0.091192   -1.749890   -4.539063
  O     -0.502179   -0.515485   -4.763093
  H     -0.965131   -0.273473   -3.970408
  H     -0.308437   -2.259169   -3.681666
  H      0.147476   -2.344741   -5.426290
  H      1.158647   -1.549646   -4.267280
  C      1.462838   -0.711124   -1.274654
  O      2.243322   -0.188704   -2.242712
  H      1.745035    0.212361   -2.959952
  H      1.293219   -0.079725   -0.462173
  H      0.480284   -1.107234   -1.686789
  H      1.961819   -1.640637   -0.787274

 Multiplicity           Mult            ....    1
 Number of Electrons    NEL             ....   18
 Basis Dimension        Dim             ....  172

ORBITAL ENERGIES
----------------

  NO   OCC          E(Eh)            E(eV)
   0   2.0000     -19.232387      -523.3399
   1   2.0000     -10.314135      -280.6619
   2   2.0000      -1.156671       -31.4746
   3   2.0000      -0.794115       -21.6090
   4   2.0000      -0.624867       -17.0035
   5   2.0000      -0.554441       -15.0871
   6   2.0000      -0.531138       -14.4530
   7   2.0000      -0.416288       -11.3278
   8   2.0000      -0.372728       -10.1424
   9   0.0000       0.074327         2.0225
  10   0.0000       0.138995         3.7822
  11   0.0000       0.147518         4.0142
  12   0.0000       0.166692         4.5359
  13   0.0000       0.188106         5.1186

MULLIKEN ATOMIC CHARGES
-----------------------
   0 C :    0.001336
   1 O :    0.000077
   2 H :   -0.000162
   3 H :   -0.000086
   4 H :   -0.000459
   5 H :   -0.010990
   6 C :   -0.142930
   7 O :   -0.463165
   8 H :    0.325649
   9 H :    0.108051
  10 H :    0.084082
  11 H :    0.098597
Sum of atomic charges:   -0.0000000

LOEWDIN ATOMIC CHARGES
----------------------
   0 C :   -0.008769
   1 O :   -0.000670
   2 H :   -0.000993
   3 H :   -0.003133
   4 H :   -0.000056
   5 H :   -0.008935
   6 C :   -0.436218
   7 O :   -0.016958
   8 H :    0.176210
   9 H :    0.081143
  10 H :    0.103073
  11 H :    0.115306

  Mayer bond orders larger than 0.1
B(  6-C ,  7-O ) :   1.0040 B(  6-C ,  9-H ) :   0.9781 B(  6-C , 10-H ) :   0.9833
B(  6-C , 11-H ) :   0.9733 B(  7-O ,  8-H ) :   0.8899

Dispersion correction           -0.000242863
FINAL SINGLE POINT ENERGY      -115.728322995354

DIPOLE MOMENT
-------------
                                X             Y             Z
Electronic contribution:      1.15774       0.88584      -1.26820
Nuclear contribution   :     -1.76076      -0.78711       1.15302
                        -----------------------------------------
Total Dipole Moment    :     -0.60302       0.09873      -0.11518
                        -----------------------------------------
Magnitude (a.u.)       :      0.62181
Magnitude (Debye)      :      1.58052

Rotational constants in cm-1:     4.327847     0.880749     0.844097
Rotational constants in MHz : 129745.603834 26404.175848 25305.404905

                             ****ORCA TERMINATED NORMALLY****
TOTAL RUN TIME: 0 days 0 hours 1 minutes 8 seconds 115 msec
