                         Program Version 4.1.2  - RELEASE  -
|  1> #Run DFT-D3 single point of the dimer
|  2> ! wB97X-D3 def2-TZVP TIGHTSCF CHELPG PMODEL PAL8
|  3>
|  4> %base "10-81_DFT_AB"
|  5>
|  6> %scf
|  7> MaxIter 1000
|  8> end
|  9>
| 10> * xyz 0 1
| 11>   C                      -8.524424            -8.551857            -7.483804
| 12>   O                      -9.010956            -9.552221            -6.626090
| 13>   H                      -9.770529            -9.256232            -6.136644
| 14>   H                      -7.877334            -8.876806            -8.253957
| 15>   H                      -9.389126            -8.178034            -7.915574
| 16>   H                      -7.935626            -7.708410            -7.024587
| 17>   C                      -4.911452            -8.847695            -10.883785
| 18>   O                      -5.865044            -8.034821            -10.220594
| 19>   H                      -5.476972            -7.195485            -9.863102
| 20>   H                      -3.921869            -8.654860            -10.470061
| 21>   H                      -5.179424            -9.887251            -10.801956
| 22>   H                      -4.938959            -8.569282            -11.932343
| 23> *
| 24>
| 25> #Run DFT-D3 single point of the molecule with dimer basis set
| 26> $new_job
| 27> %base "10-81_DFT_A"
| 28> ! wB97X-D3 def2-TZVP TIGHTSCF CHELPG PMODEL
| 29>
| 30> %scf
| 31> MaxIter 1000
| 32> end
| 33>
| 34> * xyz 0 1
| 35>   C                      -8.524424            -8.551857            -7.483804
| 36>   O                      -9.010956            -9.552221            -6.626090
| 37>   H                      -9.770529            -9.256232            -6.136644
| 38>   H                      -7.877334            -8.876806            -8.253957
| 39>   H                      -9.389126            -8.178034            -7.915574
| 40>   H                      -7.935626            -7.708410            -7.024587
| 41>   C                    : -4.911452            -8.847695            -10.883785
| 42>   O                    : -5.865044            -8.034821            -10.220594
| 43>   H                    : -5.476972            -7.195485            -9.863102
| 44>   H                    : -3.921869            -8.654860            -10.470061
| 45>   H                    : -5.179424            -9.887251            -10.801956
| 46>   H                    : -4.938959            -8.569282            -11.932343
| 47> *
| 48>
| 49> #Run DFT-D3 single point of the particle with dimer basis set
| 50> $new_job
| 51> %base "10-81_DFT_B"
| 52> ! wB97X-D3 def2-TZVP TIGHTSCF CHELPG PMODEL
| 53>
| 54> %scf
| 55> MaxIter 1000
| 56> end
| 57>
| 58> * xyz 0 1
| 59>   C                    : -8.524424            -8.551857            -7.483804
| 60>   O                    : -9.010956            -9.552221            -6.626090
| 61>   H                    : -9.770529            -9.256232            -6.136644
| 62>   H                    : -7.877334            -8.876806            -8.253957
| 63>   H                    : -9.389126            -8.178034            -7.915574
| 64>   H                    : -7.935626            -7.708410            -7.024587
| 65>   C                      -4.911452            -8.847695            -10.883785
| 66>   O                      -5.865044            -8.034821            -10.220594
| 67>   H                      -5.476972            -7.195485            -9.863102
| 68>   H                      -3.921869            -8.654860            -10.470061
| 69>   H                      -5.179424            -9.887251            -10.801956
| 70>   H                      -4.938959            -8.569282            -11.932343
| 71> *
| 72>
| 73>                          ****END OF INPUT****
 Total Charge           Charge          ....    0
 Multiplicity           Mult            ....    1
 Number of Electrons    NEL             ....   36
Dispersion correction           -0.001130584
FINAL SINGLE POINT ENERGY      -231.462231897647
Dispersion correction           -0.000241462
FINAL SINGLE POINT ENERGY      -115.726837752423

CARTESIAN COORDINATES (ANGSTROEM)
---------------------------------
  C     -8.524424   -8.551857   -7.483804
  O     -9.010956   -9.552221   -6.626090
  H     -9.770529   -9.256232   -6.136644
  H     -7.877334   -8.876806   -8.253957
  H     -9.389126   -8.178034   -7.915574
  H     -7.935626   -7.708410   -7.024587
  C     -4.911452   -8.847695  -10.883785
  O     -5.865044   -8.034821  -10.220594
  H     -5.476972   -7.195485   -9.863102
  H     -3.921869   -8.654860  -10.470061
  H     -5.179424   -9.887251  -10.801956
  H     -4.938959   -8.569282  -11.932343

 Multiplicity           Mult            ....    1
 Number of Electrons    NEL             ....   18
 Basis Dimension        Dim             ....  172

ORBITAL ENERGIES
----------------

  NO   OCC          E(Eh)            E(eV)
   0   2.0000     -19.226719      -523.1856
   1   2.0000     -10.309966      -280.5484
   2   2.0000      -1.124445       -30.5977
   3   2.0000      -0.795416       -21.6444
   4   2.0000      -0.604748       -16.4560
   5   2.0000      -0.541561       -14.7366
   6   2.0000      -0.533578       -14.5194
   7   2.0000      -0.426452       -11.6043
   8   2.0000      -0.368515       -10.0278
   9   0.0000       0.094783         2.5792
  10   0.0000       0.115152         3.1334
  11   0.0000       0.154261         4.1977
  12   0.0000       0.180508         4.9119
  13   0.0000       0.196086         5.3358

MULLIKEN ATOMIC CHARGES
-----------------------
   0 C :    0.002040
   1 O :   -0.000052
   2 H :   -0.000008
   3 H :   -0.006545
   4 H :   -0.000464
   5 H :   -0.000828
   6 C :   -0.152461
   7 O :   -0.489421
   8 H :    0.319266
   9 H :    0.101815
  10 H :    0.121973
  11 H :    0.104686
Sum of atomic charges:   -0.0000000

LOEWDIN ATOMIC CHARGES
----------------------
   0 C :   -0.003104
   1 O :   -0.000026
   2 H :   -0.000007
   3 H :   -0.005673
   4 H :   -0.000050
   5 H :   -0.000294
   6 C :   -0.373916
   7 O :   -0.095950
   8 H :    0.184626
   9 H :    0.095598
  10 H :    0.103082
  11 H :    0.095713

  Mayer bond orders larger than 0.1
B(  6-C ,  7-O ) :   0.9901 B(  6-C ,  9-H ) :   0.9830 B(  6-C , 10-H ) :   0.9726
B(  6-C , 11-H ) :   0.9779 B(  7-O ,  8-H ) :   0.8897

Dispersion correction           -0.000239443
FINAL SINGLE POINT ENERGY      -115.733696398529

DIPOLE MOMENT
-------------
                                X             Y             Z
Electronic contribution:     -1.22869       0.83004       0.80747
Nuclear contribution   :      1.88515      -0.62870      -0.85443
                        -----------------------------------------
Total Dipole Moment    :      0.65646       0.20134      -0.04695
                        -----------------------------------------
Magnitude (a.u.)       :      0.68825
Magnitude (Debye)      :      1.74939

Rotational constants in cm-1:     4.288801     0.831059     0.798989
Rotational constants in MHz : 128575.004626 24914.507628 23953.073560

                             ****ORCA TERMINATED NORMALLY****
TOTAL RUN TIME: 0 days 0 hours 1 minutes 1 seconds 903 msec
