                         Program Version 4.1.2  - RELEASE  -
|  1> #Run DFT-D3 single point of the dimer
|  2> ! wB97X-D3 def2-TZVP TIGHTSCF CHELPG PMODEL PAL8
|  3>
|  4> %base "17-170_DFT_AB"
|  5>
|  6> %scf
|  7> MaxIter 1000
|  8> end
|  9>
| 10> * xyz 0 1
| 11>   C                      -0.918051            9.986518             -4.696559
| 12>   O                      0.482540             9.792273             -5.105386
| 13>   H                      0.396491             9.328244             -5.962615
| 14>   H                      -1.468727            10.746023            -5.246948
| 15>   H                      -1.570204            9.126121             -4.893993
| 16>   H                      -1.051724            10.273759            -3.662889
| 17>   C                      2.138114             7.553743             -3.607472
| 18>   O                      2.033165             8.634707             -2.745587
| 19>   H                      1.551235             9.341516             -3.242946
| 20>   H                      2.661205             6.794591             -3.034214
| 21>   H                      1.144059             7.065508             -3.824194
| 22>   H                      2.753719             7.638786             -4.459255
| 23> *
| 24>
| 25> #Run DFT-D3 single point of the molecule with dimer basis set
| 26> $new_job
| 27> %base "17-170_DFT_A"
| 28> ! wB97X-D3 def2-TZVP TIGHTSCF CHELPG PMODEL
| 29>
| 30> %scf
| 31> MaxIter 1000
| 32> end
| 33>
| 34> * xyz 0 1
| 35>   C                      -0.918051            9.986518             -4.696559
| 36>   O                      0.482540             9.792273             -5.105386
| 37>   H                      0.396491             9.328244             -5.962615
| 38>   H                      -1.468727            10.746023            -5.246948
| 39>   H                      -1.570204            9.126121             -4.893993
| 40>   H                      -1.051724            10.273759            -3.662889
| 41>   C                    : 2.138114             7.553743             -3.607472
| 42>   O                    : 2.033165             8.634707             -2.745587
| 43>   H                    : 1.551235             9.341516             -3.242946
| 44>   H                    : 2.661205             6.794591             -3.034214
| 45>   H                    : 1.144059             7.065508             -3.824194
| 46>   H                    : 2.753719             7.638786             -4.459255
| 47> *
| 48>
| 49> #Run DFT-D3 single point of the particle with dimer basis set
| 50> $new_job
| 51> %base "17-170_DFT_B"
| 52> ! wB97X-D3 def2-TZVP TIGHTSCF CHELPG PMODEL
| 53>
| 54> %scf
| 55> MaxIter 1000
| 56> end
| 57>
| 58> * xyz 0 1
| 59>   C                    : -0.918051            9.986518             -4.696559
| 60>   O                    : 0.482540             9.792273             -5.105386
| 61>   H                    : 0.396491             9.328244             -5.962615
| 62>   H                    : -1.468727            10.746023            -5.246948
| 63>   H                    : -1.570204            9.126121             -4.893993
| 64>   H                    : -1.051724            10.273759            -3.662889
| 65>   C                      2.138114             7.553743             -3.607472
| 66>   O                      2.033165             8.634707             -2.745587
| 67>   H                      1.551235             9.341516             -3.242946
| 68>   H                      2.661205             6.794591             -3.034214
| 69>   H                      1.144059             7.065508             -3.824194
| 70>   H                      2.753719             7.638786             -4.459255
| 71> *
| 72>
| 73>                          ****END OF INPUT****
 Total Charge           Charge          ....    0
 Multiplicity           Mult            ....    1
 Number of Electrons    NEL             ....   36
Dispersion correction           -0.002127971
FINAL SINGLE POINT ENERGY      -231.467610755564
Dispersion correction           -0.000276601
FINAL SINGLE POINT ENERGY      -115.729549486376

CARTESIAN COORDINATES (ANGSTROEM)
---------------------------------
  C     -0.918051    9.986518   -4.696559
  O      0.482540    9.792273   -5.105386
  H      0.396491    9.328244   -5.962615
  H     -1.468727   10.746023   -5.246948
  H     -1.570204    9.126121   -4.893993
  H     -1.051724   10.273759   -3.662889
  C      2.138114    7.553743   -3.607472
  O      2.033165    8.634707   -2.745587
  H      1.551235    9.341516   -3.242946
  H      2.661205    6.794591   -3.034214
  H      1.144059    7.065508   -3.824194
  H      2.753719    7.638786   -4.459255

 Multiplicity           Mult            ....    1
 Number of Electrons    NEL             ....   18
 Basis Dimension        Dim             ....  172

ORBITAL ENERGIES
----------------

  NO   OCC          E(Eh)            E(eV)
   0   2.0000     -19.237164      -523.4698
   1   2.0000     -10.307313      -280.4762
   2   2.0000      -1.142446       -31.0875
   3   2.0000      -0.795170       -21.6377
   4   2.0000      -0.612692       -16.6722
   5   2.0000      -0.549633       -14.9563
   6   2.0000      -0.525631       -14.3032
   7   2.0000      -0.427075       -11.6213
   8   2.0000      -0.377734       -10.2787
   9   0.0000       0.068359         1.8601
  10   0.0000       0.136257         3.7077
  11   0.0000       0.143661         3.9092
  12   0.0000       0.163737         4.4555
  13   0.0000       0.190069         5.1721

MULLIKEN ATOMIC CHARGES
-----------------------
   0 C :   -0.002621
   1 O :   -0.000884
   2 H :   -0.000199
   3 H :   -0.000081
   4 H :   -0.000111
   5 H :   -0.000463
   6 C :   -0.171592
   7 O :   -0.460253
   8 H :    0.315456
   9 H :    0.118063
  10 H :    0.095503
  11 H :    0.107182
Sum of atomic charges:   -0.0000000

LOEWDIN ATOMIC CHARGES
----------------------
   0 C :   -0.004497
   1 O :   -0.010885
   2 H :   -0.000882
   3 H :   -0.000076
   4 H :   -0.000138
   5 H :   -0.000885
   6 C :   -0.416674
   7 O :   -0.055769
   8 H :    0.191500
   9 H :    0.110318
  10 H :    0.101621
  11 H :    0.086367

  Mayer bond orders larger than 0.1
B(  6-C ,  7-O ) :   1.0098 B(  6-C ,  9-H ) :   0.9774 B(  6-C , 10-H ) :   0.9763
B(  6-C , 11-H ) :   0.9699 B(  7-O ,  8-H ) :   0.9020

Dispersion correction           -0.000245636
FINAL SINGLE POINT ENERGY      -115.731117966577

DIPOLE MOMENT
-------------
                                X             Y             Z
Electronic contribution:     -0.05246       1.52736       1.10866
Nuclear contribution   :     -0.16661      -1.50484      -1.71574
                        -----------------------------------------
Total Dipole Moment    :     -0.21907       0.02252      -0.60708
                        -----------------------------------------
Magnitude (a.u.)       :      0.64579
Magnitude (Debye)      :      1.64147

Rotational constants in cm-1:     4.344881     0.849274     0.826651
Rotational constants in MHz : 130256.241298 25460.601657 24782.376045

                             ****ORCA TERMINATED NORMALLY****
TOTAL RUN TIME: 0 days 0 hours 1 minutes 10 seconds 916 msec
