                         Program Version 4.1.2  - RELEASE  -
|  1> #Run DFT-D3 single point of the dimer
|  2> ! wB97X-D3 def2-TZVP TIGHTSCF CHELPG PMODEL PAL8
|  3>
|  4> %base "12-115_DFT_AB"
|  5>
|  6> %scf
|  7> MaxIter 1000
|  8> end
|  9>
| 10> * xyz 0 1
| 11>   C                      0.458656             -0.930274            -4.011846
| 12>   O                      1.515919             -0.989407            -3.097757
| 13>   H                      2.343066             -1.128490            -3.561394
| 14>   H                      0.659038             -0.054227            -4.714166
| 15>   H                      0.496070             -1.799020            -4.676867
| 16>   H                      -0.554769            -0.926448            -3.628725
| 17>   C                      -0.727275            1.563052             -0.967298
| 18>   O                      0.096966             0.363734             -0.938946
| 19>   H                      0.008853             -0.073685            -1.808591
| 20>   H                      -1.797823            1.336049             -1.111129
| 21>   H                      -0.641607            2.169287             -0.038777
| 22>   H                      -0.399857            2.277220             -1.734787
| 23> *
| 24>
| 25> #Run DFT-D3 single point of the molecule with dimer basis set
| 26> $new_job
| 27> %base "12-115_DFT_A"
| 28> ! wB97X-D3 def2-TZVP TIGHTSCF CHELPG PMODEL
| 29>
| 30> %scf
| 31> MaxIter 1000
| 32> end
| 33>
| 34> * xyz 0 1
| 35>   C                      0.458656             -0.930274            -4.011846
| 36>   O                      1.515919             -0.989407            -3.097757
| 37>   H                      2.343066             -1.128490            -3.561394
| 38>   H                      0.659038             -0.054227            -4.714166
| 39>   H                      0.496070             -1.799020            -4.676867
| 40>   H                      -0.554769            -0.926448            -3.628725
| 41>   C                    : -0.727275            1.563052             -0.967298
| 42>   O                    : 0.096966             0.363734             -0.938946
| 43>   H                    : 0.008853             -0.073685            -1.808591
| 44>   H                    : -1.797823            1.336049             -1.111129
| 45>   H                    : -0.641607            2.169287             -0.038777
| 46>   H                    : -0.399857            2.277220             -1.734787
| 47> *
| 48>
| 49> #Run DFT-D3 single point of the particle with dimer basis set
| 50> $new_job
| 51> %base "12-115_DFT_B"
| 52> ! wB97X-D3 def2-TZVP TIGHTSCF CHELPG PMODEL
| 53>
| 54> %scf
| 55> MaxIter 1000
| 56> end
| 57>
| 58> * xyz 0 1
| 59>   C                    : 0.458656             -0.930274            -4.011846
| 60>   O                    : 1.515919             -0.989407            -3.097757
| 61>   H                    : 2.343066             -1.128490            -3.561394
| 62>   H                    : 0.659038             -0.054227            -4.714166
| 63>   H                    : 0.496070             -1.799020            -4.676867
| 64>   H                    : -0.554769            -0.926448            -3.628725
| 65>   C                      -0.727275            1.563052             -0.967298
| 66>   O                      0.096966             0.363734             -0.938946
| 67>   H                      0.008853             -0.073685            -1.808591
| 68>   H                      -1.797823            1.336049             -1.111129
| 69>   H                      -0.641607            2.169287             -0.038777
| 70>   H                      -0.399857            2.277220             -1.734787
| 71> *
| 72>
| 73>                          ****END OF INPUT****
 Total Charge           Charge          ....    0
 Multiplicity           Mult            ....    1
 Number of Electrons    NEL             ....   36
Dispersion correction           -0.001770729
FINAL SINGLE POINT ENERGY      -231.464120295738
Dispersion correction           -0.000231921
FINAL SINGLE POINT ENERGY      -115.730644567089

CARTESIAN COORDINATES (ANGSTROEM)
---------------------------------
  C      0.458656   -0.930274   -4.011846
  O      1.515919   -0.989407   -3.097757
  H      2.343066   -1.128490   -3.561394
  H      0.659038   -0.054227   -4.714166
  H      0.496070   -1.799020   -4.676867
  H     -0.554769   -0.926448   -3.628725
  C     -0.727275    1.563052   -0.967298
  O      0.096966    0.363734   -0.938946
  H      0.008853   -0.073685   -1.808591
  H     -1.797823    1.336049   -1.111129
  H     -0.641607    2.169287   -0.038777
  H     -0.399857    2.277220   -1.734787

 Multiplicity           Mult            ....    1
 Number of Electrons    NEL             ....   18
 Basis Dimension        Dim             ....  172

ORBITAL ENERGIES
----------------

  NO   OCC          E(Eh)            E(eV)
   0   2.0000     -19.235226      -523.4171
   1   2.0000     -10.320603      -280.8379
   2   2.0000      -1.122191       -30.5364
   3   2.0000      -0.794958       -21.6319
   4   2.0000      -0.600557       -16.3420
   5   2.0000      -0.538896       -14.6641
   6   2.0000      -0.520809       -14.1719
   7   2.0000      -0.433457       -11.7950
   8   2.0000      -0.377504       -10.2724
   9   0.0000       0.070532         1.9193
  10   0.0000       0.132238         3.5984
  11   0.0000       0.149421         4.0659
  12   0.0000       0.164541         4.4774
  13   0.0000       0.183881         5.0037

MULLIKEN ATOMIC CHARGES
-----------------------
   0 C :   -0.006184
   1 O :   -0.000683
   2 H :   -0.000149
   3 H :    0.000876
   4 H :   -0.000421
   5 H :   -0.002547
   6 C :   -0.187341
   7 O :   -0.470537
   8 H :    0.315409
   9 H :    0.113149
  10 H :    0.127038
  11 H :    0.111390
Sum of atomic charges:    0.0000000

LOEWDIN ATOMIC CHARGES
----------------------
   0 C :   -0.014120
   1 O :   -0.010221
   2 H :   -0.000485
   3 H :   -0.000235
   4 H :   -0.000226
   5 H :   -0.004277
   6 C :   -0.366364
   7 O :   -0.098001
   8 H :    0.185953
   9 H :    0.097977
  10 H :    0.113248
  11 H :    0.096752

  Mayer bond orders larger than 0.1
B(  6-C ,  7-O ) :   0.9913 B(  6-C ,  9-H ) :   0.9752 B(  6-C , 10-H ) :   0.9720
B(  6-C , 11-H ) :   0.9710 B(  7-O ,  8-H ) :   0.9038

Dispersion correction           -0.000273636
FINAL SINGLE POINT ENERGY      -115.734222985948

DIPOLE MOMENT
-------------
                                X             Y             Z
Electronic contribution:      1.08255      -1.54446       0.19015
Nuclear contribution   :     -1.47386       1.79302      -0.72839
                        -----------------------------------------
Total Dipole Moment    :     -0.39131       0.24856      -0.53824
                        -----------------------------------------
Magnitude (a.u.)       :      0.71036
Magnitude (Debye)      :      1.80559

Rotational constants in cm-1:     4.281722     0.781134     0.757064
Rotational constants in MHz : 128362.803249 23417.810073 22696.210214

                             ****ORCA TERMINATED NORMALLY****
TOTAL RUN TIME: 0 days 0 hours 1 minutes 8 seconds 720 msec
