                         Program Version 4.1.2  - RELEASE  -
|  1> #Run DFT-D3 single point of the dimer
|  2> ! wB97X-D3 def2-TZVP TIGHTSCF CHELPG PMODEL PAL8
|  3>
|  4> %base "13-165_DFT_AB"
|  5>
|  6> %scf
|  7> MaxIter 1000
|  8> end
|  9>
| 10> * xyz 0 1
| 11>   C                      -5.844480            -6.625047            -2.749340
| 12>   O                      -5.017358            -6.194426            -3.857765
| 13>   H                      -5.008790            -5.271032            -4.088305
| 14>   H                      -5.698650            -7.714798            -2.622161
| 15>   H                      -5.572286            -6.151671            -1.749440
| 16>   H                      -6.872306            -6.378046            -2.941820
| 17>   C                      -3.229925            -9.058745            -4.313825
| 18>   O                      -4.099625            -8.482971            -5.210653
| 19>   H                      -4.230069            -7.588252            -4.890243
| 20>   H                      -2.302949            -8.511018            -4.397252
| 21>   H                      -3.675922            -8.894935            -3.326234
| 22>   H                      -3.092762            -10.182586           -4.421901
| 23> *
| 24>
| 25> #Run DFT-D3 single point of the molecule with dimer basis set
| 26> $new_job
| 27> %base "13-165_DFT_A"
| 28> ! wB97X-D3 def2-TZVP TIGHTSCF CHELPG PMODEL
| 29>
| 30> %scf
| 31> MaxIter 1000
| 32> end
| 33>
| 34> * xyz 0 1
| 35>   C                      -5.844480            -6.625047            -2.749340
| 36>   O                      -5.017358            -6.194426            -3.857765
| 37>   H                      -5.008790            -5.271032            -4.088305
| 38>   H                      -5.698650            -7.714798            -2.622161
| 39>   H                      -5.572286            -6.151671            -1.749440
| 40>   H                      -6.872306            -6.378046            -2.941820
| 41>   C                    : -3.229925            -9.058745            -4.313825
| 42>   O                    : -4.099625            -8.482971            -5.210653
| 43>   H                    : -4.230069            -7.588252            -4.890243
| 44>   H                    : -2.302949            -8.511018            -4.397252
| 45>   H                    : -3.675922            -8.894935            -3.326234
| 46>   H                    : -3.092762            -10.182586           -4.421901
| 47> *
| 48>
| 49> #Run DFT-D3 single point of the particle with dimer basis set
| 50> $new_job
| 51> %base "13-165_DFT_B"
| 52> ! wB97X-D3 def2-TZVP TIGHTSCF CHELPG PMODEL
| 53>
| 54> %scf
| 55> MaxIter 1000
| 56> end
| 57>
| 58> * xyz 0 1
| 59>   C                    : -5.844480            -6.625047            -2.749340
| 60>   O                    : -5.017358            -6.194426            -3.857765
| 61>   H                    : -5.008790            -5.271032            -4.088305
| 62>   H                    : -5.698650            -7.714798            -2.622161
| 63>   H                    : -5.572286            -6.151671            -1.749440
| 64>   H                    : -6.872306            -6.378046            -2.941820
| 65>   C                      -3.229925            -9.058745            -4.313825
| 66>   O                      -4.099625            -8.482971            -5.210653
| 67>   H                      -4.230069            -7.588252            -4.890243
| 68>   H                      -2.302949            -8.511018            -4.397252
| 69>   H                      -3.675922            -8.894935            -3.326234
| 70>   H                      -3.092762            -10.182586           -4.421901
| 71> *
| 72>
| 73>                          ****END OF INPUT****
 Total Charge           Charge          ....    0
 Multiplicity           Mult            ....    1
 Number of Electrons    NEL             ....   36
Dispersion correction           -0.002079343
FINAL SINGLE POINT ENERGY      -231.471138183280
Dispersion correction           -0.000288615
FINAL SINGLE POINT ENERGY      -115.732086959803

CARTESIAN COORDINATES (ANGSTROEM)
---------------------------------
  C     -5.844480   -6.625047   -2.749340
  O     -5.017358   -6.194426   -3.857765
  H     -5.008790   -5.271032   -4.088305
  H     -5.698650   -7.714798   -2.622161
  H     -5.572286   -6.151671   -1.749440
  H     -6.872306   -6.378046   -2.941820
  C     -3.229925   -9.058745   -4.313825
  O     -4.099625   -8.482971   -5.210653
  H     -4.230069   -7.588252   -4.890243
  H     -2.302949   -8.511018   -4.397252
  H     -3.675922   -8.894935   -3.326234
  H     -3.092762  -10.182586   -4.421901

 Multiplicity           Mult            ....    1
 Number of Electrons    NEL             ....   18
 Basis Dimension        Dim             ....  172

ORBITAL ENERGIES
----------------

  NO   OCC          E(Eh)            E(eV)
   0   2.0000     -19.227838      -523.2161
   1   2.0000     -10.313351      -280.6406
   2   2.0000      -1.151537       -31.3349
   3   2.0000      -0.787588       -21.4314
   4   2.0000      -0.614851       -16.7309
   5   2.0000      -0.555391       -15.1130
   6   2.0000      -0.532772       -14.4975
   7   2.0000      -0.427806       -11.6412
   8   2.0000      -0.368500       -10.0274
   9   0.0000       0.070544         1.9196
  10   0.0000       0.136839         3.7236
  11   0.0000       0.143698         3.9102
  12   0.0000       0.170620         4.6428
  13   0.0000       0.192949         5.2504

MULLIKEN ATOMIC CHARGES
-----------------------
   0 C :   -0.003951
   1 O :   -0.004820
   2 H :   -0.000494
   3 H :    0.000909
   4 H :    0.000015
   5 H :    0.000360
   6 C :   -0.166309
   7 O :   -0.456934
   8 H :    0.316432
   9 H :    0.104309
  10 H :    0.092662
  11 H :    0.117822
Sum of atomic charges:   -0.0000000

LOEWDIN ATOMIC CHARGES
----------------------
   0 C :   -0.007142
   1 O :   -0.021739
   2 H :   -0.001262
   3 H :   -0.002878
   4 H :   -0.000078
   5 H :   -0.000081
   6 C :   -0.414306
   7 O :   -0.040002
   8 H :    0.183618
   9 H :    0.092370
  10 H :    0.094978
  11 H :    0.116521

  Mayer bond orders larger than 0.1
B(  6-C ,  7-O ) :   0.9875 B(  6-C ,  9-H ) :   0.9890 B(  6-C , 10-H ) :   0.9850
B(  6-C , 11-H ) :   0.9658 B(  7-O ,  8-H ) :   0.9026

Dispersion correction           -0.000196747
FINAL SINGLE POINT ENERGY      -115.729639781975

DIPOLE MOMENT
-------------
                                X             Y             Z
Electronic contribution:     -1.07285       0.54448      -1.32212
Nuclear contribution   :      1.31007      -0.20726       1.85387
                        -----------------------------------------
Total Dipole Moment    :      0.23722       0.33722       0.53175
                        -----------------------------------------
Magnitude (a.u.)       :      0.67287
Magnitude (Debye)      :      1.71029

Rotational constants in cm-1:     4.170646     0.880132     0.844442
Rotational constants in MHz : 125032.820738 26385.680753 25315.738679

                             ****ORCA TERMINATED NORMALLY****
TOTAL RUN TIME: 0 days 0 hours 1 minutes 12 seconds 403 msec
