                         Program Version 4.1.2  - RELEASE  -
|  1> #Run DFT-D3 single point of the dimer
|  2> ! wB97X-D3 def2-TZVP TIGHTSCF CHELPG PMODEL PAL8
|  3>
|  4> %base "17-87_DFT_AB"
|  5>
|  6> %scf
|  7> MaxIter 1000
|  8> end
|  9>
| 10> * xyz 0 1
| 11>   C                      6.352193             4.195746             -4.190666
| 12>   O                      5.100575             4.500113             -4.616961
| 13>   H                      4.495087             4.304367             -3.860152
| 14>   H                      7.093230             4.700914             -4.815245
| 15>   H                      6.551793             4.589563             -3.174605
| 16>   H                      6.623159             3.143777             -4.209572
| 17>   C                      7.325339             5.251497             0.133177
| 18>   O                      6.504811             4.108082             0.081789
| 19>   H                      5.631289             4.365463             -0.281375
| 20>   H                      8.367817             5.088402             0.117534
| 21>   H                      7.009722             5.937494             -0.695289
| 22>   H                      6.979847             5.774637             1.076056
| 23> *
| 24>
| 25> #Run DFT-D3 single point of the molecule with dimer basis set
| 26> $new_job
| 27> %base "17-87_DFT_A"
| 28> ! wB97X-D3 def2-TZVP TIGHTSCF CHELPG PMODEL
| 29>
| 30> %scf
| 31> MaxIter 1000
| 32> end
| 33>
| 34> * xyz 0 1
| 35>   C                      6.352193             4.195746             -4.190666
| 36>   O                      5.100575             4.500113             -4.616961
| 37>   H                      4.495087             4.304367             -3.860152
| 38>   H                      7.093230             4.700914             -4.815245
| 39>   H                      6.551793             4.589563             -3.174605
| 40>   H                      6.623159             3.143777             -4.209572
| 41>   C                    : 7.325339             5.251497             0.133177
| 42>   O                    : 6.504811             4.108082             0.081789
| 43>   H                    : 5.631289             4.365463             -0.281375
| 44>   H                    : 8.367817             5.088402             0.117534
| 45>   H                    : 7.009722             5.937494             -0.695289
| 46>   H                    : 6.979847             5.774637             1.076056
| 47> *
| 48>
| 49> #Run DFT-D3 single point of the particle with dimer basis set
| 50> $new_job
| 51> %base "17-87_DFT_B"
| 52> ! wB97X-D3 def2-TZVP TIGHTSCF CHELPG PMODEL
| 53>
| 54> %scf
| 55> MaxIter 1000
| 56> end
| 57>
| 58> * xyz 0 1
| 59>   C                    : 6.352193             4.195746             -4.190666
| 60>   O                    : 5.100575             4.500113             -4.616961
| 61>   H                    : 4.495087             4.304367             -3.860152
| 62>   H                    : 7.093230             4.700914             -4.815245
| 63>   H                    : 6.551793             4.589563             -3.174605
| 64>   H                    : 6.623159             3.143777             -4.209572
| 65>   C                      7.325339             5.251497             0.133177
| 66>   O                      6.504811             4.108082             0.081789
| 67>   H                      5.631289             4.365463             -0.281375
| 68>   H                      8.367817             5.088402             0.117534
| 69>   H                      7.009722             5.937494             -0.695289
| 70>   H                      6.979847             5.774637             1.076056
| 71> *
| 72>
| 73>                          ****END OF INPUT****
 Total Charge           Charge          ....    0
 Multiplicity           Mult            ....    1
 Number of Electrons    NEL             ....   36
Dispersion correction           -0.001270669
FINAL SINGLE POINT ENERGY      -231.462070856687
Dispersion correction           -0.000226117
FINAL SINGLE POINT ENERGY      -115.733152645949

CARTESIAN COORDINATES (ANGSTROEM)
---------------------------------
  C      6.352193    4.195746   -4.190666
  O      5.100575    4.500113   -4.616961
  H      4.495087    4.304367   -3.860152
  H      7.093230    4.700914   -4.815245
  H      6.551793    4.589563   -3.174605
  H      6.623159    3.143777   -4.209572
  C      7.325339    5.251497    0.133177
  O      6.504811    4.108082    0.081789
  H      5.631289    4.365463   -0.281375
  H      8.367817    5.088402    0.117534
  H      7.009722    5.937494   -0.695289
  H      6.979847    5.774637    1.076056

 Multiplicity           Mult            ....    1
 Number of Electrons    NEL             ....   18
 Basis Dimension        Dim             ....  172

ORBITAL ENERGIES
----------------

  NO   OCC          E(Eh)            E(eV)
   0   2.0000     -19.228437      -523.2324
   1   2.0000     -10.316231      -280.7189
   2   2.0000      -1.133578       -30.8462
   3   2.0000      -0.790969       -21.5234
   4   2.0000      -0.607024       -16.5180
   5   2.0000      -0.548906       -14.9365
   6   2.0000      -0.528709       -14.3869
   7   2.0000      -0.430440       -11.7129
   8   2.0000      -0.364847        -9.9280
   9   0.0000       0.078351         2.1320
  10   0.0000       0.121274         3.3000
  11   0.0000       0.149678         4.0730
  12   0.0000       0.169698         4.6177
  13   0.0000       0.186697         5.0803

MULLIKEN ATOMIC CHARGES
-----------------------
   0 C :    0.001078
   1 O :    0.000060
   2 H :   -0.000145
   3 H :   -0.000133
   4 H :   -0.003564
   5 H :   -0.000035
   6 C :   -0.182702
   7 O :   -0.479485
   8 H :    0.321709
   9 H :    0.132844
  10 H :    0.102591
  11 H :    0.107781
Sum of atomic charges:   -0.0000000

LOEWDIN ATOMIC CHARGES
----------------------
   0 C :   -0.001170
   1 O :   -0.000016
   2 H :   -0.000082
   3 H :   -0.000016
   4 H :   -0.002171
   5 H :   -0.000055
   6 C :   -0.389719
   7 O :   -0.089918
   8 H :    0.182670
   9 H :    0.096674
  10 H :    0.099828
  11 H :    0.103976

  Mayer bond orders larger than 0.1
B(  6-C ,  7-O ) :   0.9803 B(  6-C ,  9-H ) :   0.9657 B(  6-C , 10-H ) :   0.9853
B(  6-C , 11-H ) :   0.9874 B(  7-O ,  8-H ) :   0.8923

Dispersion correction           -0.000221473
FINAL SINGLE POINT ENERGY      -115.728532143038

DIPOLE MOMENT
-------------
                                X             Y             Z
Electronic contribution:     -0.67469      -1.66179      -0.05783
Nuclear contribution   :      0.45546       2.26519      -0.16292
                        -----------------------------------------
Total Dipole Moment    :     -0.21923       0.60340      -0.22076
                        -----------------------------------------
Magnitude (a.u.)       :      0.67889
Magnitude (Debye)      :      1.72559

Rotational constants in cm-1:     4.157880     0.842139     0.809297
Rotational constants in MHz : 124650.119067 25246.687320 24262.128270

                             ****ORCA TERMINATED NORMALLY****
TOTAL RUN TIME: 0 days 0 hours 1 minutes 8 seconds 183 msec
