                         Program Version 4.1.2  - RELEASE  -
|  1> #Run DFT-D3 single point of the dimer
|  2> ! wB97X-D3 def2-TZVP TIGHTSCF CHELPG PMODEL PAL8
|  3>
|  4> %base "10-201_DFT_AB"
|  5>
|  6> %scf
|  7> MaxIter 1000
|  8> end
|  9>
| 10> * xyz 0 1
| 11>   C                      6.425509             10.084216            -9.917144
| 12>   O                      6.767222             11.232632            -9.099256
| 13>   H                      5.918805             11.504326            -8.737319
| 14>   H                      5.355203             9.881868             -9.973306
| 15>   H                      6.853493             10.319147            -10.919582
| 16>   H                      6.843638             9.127835             -9.563481
| 17>   C                      6.976497             8.006726             -7.057729
| 18>   O                      7.408445             9.358313             -6.936746
| 19>   H                      7.372370             9.843564             -7.800199
| 20>   H                      6.427452             7.731948             -7.882621
| 21>   H                      7.838230             7.343526             -7.132434
| 22>   H                      6.382113             7.740143             -6.200561
| 23> *
| 24>
| 25> #Run DFT-D3 single point of the molecule with dimer basis set
| 26> $new_job
| 27> %base "10-201_DFT_A"
| 28> ! wB97X-D3 def2-TZVP TIGHTSCF CHELPG PMODEL
| 29>
| 30> %scf
| 31> MaxIter 1000
| 32> end
| 33>
| 34> * xyz 0 1
| 35>   C                      6.425509             10.084216            -9.917144
| 36>   O                      6.767222             11.232632            -9.099256
| 37>   H                      5.918805             11.504326            -8.737319
| 38>   H                      5.355203             9.881868             -9.973306
| 39>   H                      6.853493             10.319147            -10.919582
| 40>   H                      6.843638             9.127835             -9.563481
| 41>   C                    : 6.976497             8.006726             -7.057729
| 42>   O                    : 7.408445             9.358313             -6.936746
| 43>   H                    : 7.372370             9.843564             -7.800199
| 44>   H                    : 6.427452             7.731948             -7.882621
| 45>   H                    : 7.838230             7.343526             -7.132434
| 46>   H                    : 6.382113             7.740143             -6.200561
| 47> *
| 48>
| 49> #Run DFT-D3 single point of the particle with dimer basis set
| 50> $new_job
| 51> %base "10-201_DFT_B"
| 52> ! wB97X-D3 def2-TZVP TIGHTSCF CHELPG PMODEL
| 53>
| 54> %scf
| 55> MaxIter 1000
| 56> end
| 57>
| 58> * xyz 0 1
| 59>   C                    : 6.425509             10.084216            -9.917144
| 60>   O                    : 6.767222             11.232632            -9.099256
| 61>   H                    : 5.918805             11.504326            -8.737319
| 62>   H                    : 5.355203             9.881868             -9.973306
| 63>   H                    : 6.853493             10.319147            -10.919582
| 64>   H                    : 6.843638             9.127835             -9.563481
| 65>   C                      6.976497             8.006726             -7.057729
| 66>   O                      7.408445             9.358313             -6.936746
| 67>   H                      7.372370             9.843564             -7.800199
| 68>   H                      6.427452             7.731948             -7.882621
| 69>   H                      7.838230             7.343526             -7.132434
| 70>   H                      6.382113             7.740143             -6.200561
| 71> *
| 72>
| 73>                          ****END OF INPUT****
 Total Charge           Charge          ....    0
 Multiplicity           Mult            ....    1
 Number of Electrons    NEL             ....   36
Dispersion correction           -0.002143507
FINAL SINGLE POINT ENERGY      -231.466844961836
Dispersion correction           -0.000261841
FINAL SINGLE POINT ENERGY      -115.732614833312

CARTESIAN COORDINATES (ANGSTROEM)
---------------------------------
  C      6.425509   10.084216   -9.917144
  O      6.767222   11.232632   -9.099256
  H      5.918805   11.504326   -8.737319
  H      5.355203    9.881868   -9.973306
  H      6.853493   10.319147  -10.919582
  H      6.843638    9.127835   -9.563481
  C      6.976497    8.006726   -7.057729
  O      7.408445    9.358313   -6.936746
  H      7.372370    9.843564   -7.800199
  H      6.427452    7.731948   -7.882621
  H      7.838230    7.343526   -7.132434
  H      6.382113    7.740143   -6.200561

 Multiplicity           Mult            ....    1
 Number of Electrons    NEL             ....   18
 Basis Dimension        Dim             ....  172

ORBITAL ENERGIES
----------------

  NO   OCC          E(Eh)            E(eV)
   0   2.0000     -19.233214      -523.3624
   1   2.0000     -10.303829      -280.3814
   2   2.0000      -1.124800       -30.6074
   3   2.0000      -0.804190       -21.8831
   4   2.0000      -0.615838       -16.7578
   5   2.0000      -0.539939       -14.6925
   6   2.0000      -0.520310       -14.1583
   7   2.0000      -0.435827       -11.8594
   8   2.0000      -0.372815       -10.1448
   9   0.0000       0.069756         1.8982
  10   0.0000       0.142207         3.8696
  11   0.0000       0.153194         4.1686
  12   0.0000       0.170693         4.6448
  13   0.0000       0.186849         5.0844

MULLIKEN ATOMIC CHARGES
-----------------------
   0 C :   -0.011090
   1 O :   -0.001266
   2 H :   -0.000795
   3 H :    0.001114
   4 H :   -0.000119
   5 H :    0.001264
   6 C :   -0.167547
   7 O :   -0.480969
   8 H :    0.317912
   9 H :    0.116427
  10 H :    0.102516
  11 H :    0.122552
Sum of atomic charges:   -0.0000000

LOEWDIN ATOMIC CHARGES
----------------------
   0 C :   -0.018889
   1 O :   -0.014640
   2 H :   -0.002711
   3 H :   -0.000338
   4 H :   -0.000235
   5 H :   -0.009165
   6 C :   -0.364812
   7 O :   -0.077438
   8 H :    0.199094
   9 H :    0.084948
  10 H :    0.099411
  11 H :    0.104776

  Mayer bond orders larger than 0.1
B(  6-C ,  7-O ) :   0.9897 B(  6-C ,  9-H ) :   0.9693 B(  6-C , 10-H ) :   0.9854
B(  6-C , 11-H ) :   0.9770 B(  7-O ,  8-H ) :   0.8996

Dispersion correction           -0.000263303
FINAL SINGLE POINT ENERGY      -115.729992053054

DIPOLE MOMENT
-------------
                                X             Y             Z
Electronic contribution:      0.48789       1.74772       0.24668
Nuclear contribution   :     -0.71259      -2.00431      -0.86915
                        -----------------------------------------
Total Dipole Moment    :     -0.22470      -0.25659      -0.62247
                        -----------------------------------------
Magnitude (a.u.)       :      0.70979
Magnitude (Debye)      :      1.80414

Rotational constants in cm-1:     4.580157     0.811278     0.786648
Rotational constants in MHz : 137309.648917 24321.488266 23583.122786

                             ****ORCA TERMINATED NORMALLY****
TOTAL RUN TIME: 0 days 0 hours 1 minutes 11 seconds 625 msec
