                         Program Version 4.1.2  - RELEASE  -
|  1> #Run DFT-D3 single point of the dimer
|  2> ! wB97X-D3 def2-TZVP TIGHTSCF CHELPG PMODEL PAL8
|  3>
|  4> %base "12-88_DFT_AB"
|  5>
|  6> %scf
|  7> MaxIter 1000
|  8> end
|  9>
| 10> * xyz 0 1
| 11>   C                      -4.658780            -2.037883            7.649658
| 12>   O                      -5.337638            -1.572166            6.540238
| 13>   H                      -6.235660            -1.469603            6.901389
| 14>   H                      -3.612432            -1.652803            7.614765
| 15>   H                      -5.188026            -1.588476            8.460927
| 16>   H                      -4.629709            -3.094023            7.716798
| 17>   C                      -6.097727            -5.340235            3.404560
| 18>   O                      -6.498002            -6.530726            3.998378
| 19>   H                      -6.377586            -6.543467            4.952224
| 20>   H                      -5.046251            -5.086913            3.652144
| 21>   H                      -6.052630            -5.371745            2.312971
| 22>   H                      -6.693114            -4.525740            3.737371
| 23> *
| 24>
| 25> #Run DFT-D3 single point of the molecule with dimer basis set
| 26> $new_job
| 27> %base "12-88_DFT_A"
| 28> ! wB97X-D3 def2-TZVP TIGHTSCF CHELPG PMODEL
| 29>
| 30> %scf
| 31> MaxIter 1000
| 32> end
| 33>
| 34> * xyz 0 1
| 35>   C                      -4.658780            -2.037883            7.649658
| 36>   O                      -5.337638            -1.572166            6.540238
| 37>   H                      -6.235660            -1.469603            6.901389
| 38>   H                      -3.612432            -1.652803            7.614765
| 39>   H                      -5.188026            -1.588476            8.460927
| 40>   H                      -4.629709            -3.094023            7.716798
| 41>   C                    : -6.097727            -5.340235            3.404560
| 42>   O                    : -6.498002            -6.530726            3.998378
| 43>   H                    : -6.377586            -6.543467            4.952224
| 44>   H                    : -5.046251            -5.086913            3.652144
| 45>   H                    : -6.052630            -5.371745            2.312971
| 46>   H                    : -6.693114            -4.525740            3.737371
| 47> *
| 48>
| 49> #Run DFT-D3 single point of the particle with dimer basis set
| 50> $new_job
| 51> %base "12-88_DFT_B"
| 52> ! wB97X-D3 def2-TZVP TIGHTSCF CHELPG PMODEL
| 53>
| 54> %scf
| 55> MaxIter 1000
| 56> end
| 57>
| 58> * xyz 0 1
| 59>   C                    : -4.658780            -2.037883            7.649658
| 60>   O                    : -5.337638            -1.572166            6.540238
| 61>   H                    : -6.235660            -1.469603            6.901389
| 62>   H                    : -3.612432            -1.652803            7.614765
| 63>   H                    : -5.188026            -1.588476            8.460927
| 64>   H                    : -4.629709            -3.094023            7.716798
| 65>   C                      -6.097727            -5.340235            3.404560
| 66>   O                      -6.498002            -6.530726            3.998378
| 67>   H                      -6.377586            -6.543467            4.952224
| 68>   H                      -5.046251            -5.086913            3.652144
| 69>   H                      -6.052630            -5.371745            2.312971
| 70>   H                      -6.693114            -4.525740            3.737371
| 71> *
| 72>
| 73>                          ****END OF INPUT****
 Total Charge           Charge          ....    0
 Multiplicity           Mult            ....    1
 Number of Electrons    NEL             ....   36
Dispersion correction           -0.000673519
FINAL SINGLE POINT ENERGY      -231.461666988017
Dispersion correction           -0.000197371
FINAL SINGLE POINT ENERGY      -115.728129751886

CARTESIAN COORDINATES (ANGSTROEM)
---------------------------------
  C     -4.658780   -2.037883    7.649658
  O     -5.337638   -1.572166    6.540238
  H     -6.235660   -1.469603    6.901389
  H     -3.612432   -1.652803    7.614765
  H     -5.188026   -1.588476    8.460927
  H     -4.629709   -3.094023    7.716798
  C     -6.097727   -5.340235    3.404560
  O     -6.498002   -6.530726    3.998378
  H     -6.377586   -6.543467    4.952224
  H     -5.046251   -5.086913    3.652144
  H     -6.052630   -5.371745    2.312971
  H     -6.693114   -4.525740    3.737371

 Multiplicity           Mult            ....    1
 Number of Electrons    NEL             ....   18
 Basis Dimension        Dim             ....  172

ORBITAL ENERGIES
----------------

  NO   OCC          E(Eh)            E(eV)
   0   2.0000     -19.228084      -523.2228
   1   2.0000     -10.309473      -280.5350
   2   2.0000      -1.139788       -31.0152
   3   2.0000      -0.799041       -21.7430
   4   2.0000      -0.617532       -16.8039
   5   2.0000      -0.549398       -14.9499
   6   2.0000      -0.528489       -14.3809
   7   2.0000      -0.423113       -11.5135
   8   2.0000      -0.371345       -10.1048
   9   0.0000       0.081367         2.2141
  10   0.0000       0.116754         3.1770
  11   0.0000       0.148565         4.0427
  12   0.0000       0.165520         4.5040
  13   0.0000       0.193777         5.2729

MULLIKEN ATOMIC CHARGES
-----------------------
   0 C :   -0.000050
   1 O :   -0.000002
   2 H :   -0.000016
   3 H :    0.000004
   4 H :    0.000000
   5 H :    0.000004
   6 C :   -0.149578
   7 O :   -0.482971
   8 H :    0.319913
   9 H :    0.088900
  10 H :    0.120558
  11 H :    0.103237
Sum of atomic charges:    0.0000000

LOEWDIN ATOMIC CHARGES
----------------------
   0 C :   -0.000026
   1 O :   -0.000024
   2 H :   -0.000018
   3 H :   -0.000000
   4 H :   -0.000001
   5 H :   -0.000008
   6 C :   -0.401554
   7 O :   -0.061806
   8 H :    0.171417
   9 H :    0.095117
  10 H :    0.109563
  11 H :    0.087339

  Mayer bond orders larger than 0.1
B(  6-C ,  7-O ) :   0.9992 B(  6-C ,  9-H ) :   0.9809 B(  6-C , 10-H ) :   0.9693
B(  6-C , 11-H ) :   0.9792 B(  7-O ,  8-H ) :   0.8919

Dispersion correction           -0.000241186
FINAL SINGLE POINT ENERGY      -115.733126972273

DIPOLE MOMENT
-------------
                                X             Y             Z
Electronic contribution:     -0.68568      -1.62031       0.63990
Nuclear contribution   :      0.92847       2.08508      -0.25874
                        -----------------------------------------
Total Dipole Moment    :      0.24280       0.46477       0.38116
                        -----------------------------------------
Magnitude (a.u.)       :      0.64826
Magnitude (Debye)      :      1.64775

Rotational constants in cm-1:     4.492057     0.842026     0.814921
Rotational constants in MHz : 134668.493282 25243.293381 24430.720027

                             ****ORCA TERMINATED NORMALLY****
TOTAL RUN TIME: 0 days 0 hours 1 minutes 3 seconds 698 msec
