                         Program Version 4.1.2  - RELEASE  -
|  1> #Run DFT-D3 single point of the dimer
|  2> ! wB97X-D3 def2-TZVP TIGHTSCF CHELPG PMODEL PAL8
|  3>
|  4> %base "5-159_DFT_AB"
|  5>
|  6> %scf
|  7> MaxIter 1000
|  8> end
|  9>
| 10> * xyz 0 1
| 11>   C                      -4.490171            -8.439713            1.377857
| 12>   O                      -5.249925            -9.607869            1.666368
| 13>   H                      -6.214125            -9.396867            1.541505
| 14>   H                      -4.785397            -7.682133            2.112799
| 15>   H                      -3.375560            -8.481849            1.470877
| 16>   H                      -4.515786            -8.055330            0.410306
| 17>   C                      -8.445730            -7.230128            0.981224
| 18>   O                      -7.606037            -8.335033            0.766093
| 19>   H                      -7.174182            -8.345744            -0.074494
| 20>   H                      -8.098595            -6.689675            1.881978
| 21>   H                      -8.245143            -6.562673            0.152544
| 22>   H                      -9.558064            -7.434609            1.076089
| 23> *
| 24>
| 25> #Run DFT-D3 single point of the molecule with dimer basis set
| 26> $new_job
| 27> %base "5-159_DFT_A"
| 28> ! wB97X-D3 def2-TZVP TIGHTSCF CHELPG PMODEL
| 29>
| 30> %scf
| 31> MaxIter 1000
| 32> end
| 33>
| 34> * xyz 0 1
| 35>   C                      -4.490171            -8.439713            1.377857
| 36>   O                      -5.249925            -9.607869            1.666368
| 37>   H                      -6.214125            -9.396867            1.541505
| 38>   H                      -4.785397            -7.682133            2.112799
| 39>   H                      -3.375560            -8.481849            1.470877
| 40>   H                      -4.515786            -8.055330            0.410306
| 41>   C                    : -8.445730            -7.230128            0.981224
| 42>   O                    : -7.606037            -8.335033            0.766093
| 43>   H                    : -7.174182            -8.345744            -0.074494
| 44>   H                    : -8.098595            -6.689675            1.881978
| 45>   H                    : -8.245143            -6.562673            0.152544
| 46>   H                    : -9.558064            -7.434609            1.076089
| 47> *
| 48>
| 49> #Run DFT-D3 single point of the particle with dimer basis set
| 50> $new_job
| 51> %base "5-159_DFT_B"
| 52> ! wB97X-D3 def2-TZVP TIGHTSCF CHELPG PMODEL
| 53>
| 54> %scf
| 55> MaxIter 1000
| 56> end
| 57>
| 58> * xyz 0 1
| 59>   C                    : -4.490171            -8.439713            1.377857
| 60>   O                    : -5.249925            -9.607869            1.666368
| 61>   H                    : -6.214125            -9.396867            1.541505
| 62>   H                    : -4.785397            -7.682133            2.112799
| 63>   H                    : -3.375560            -8.481849            1.470877
| 64>   H                    : -4.515786            -8.055330            0.410306
| 65>   C                      -8.445730            -7.230128            0.981224
| 66>   O                      -7.606037            -8.335033            0.766093
| 67>   H                      -7.174182            -8.345744            -0.074494
| 68>   H                      -8.098595            -6.689675            1.881978
| 69>   H                      -8.245143            -6.562673            0.152544
| 70>   H                      -9.558064            -7.434609            1.076089
| 71> *
| 72>
| 73>                          ****END OF INPUT****
 Total Charge           Charge          ....    0
 Multiplicity           Mult            ....    1
 Number of Electrons    NEL             ....   36
Dispersion correction           -0.002042914
FINAL SINGLE POINT ENERGY      -231.463624581899
Dispersion correction           -0.000260530
FINAL SINGLE POINT ENERGY      -115.725199450462

CARTESIAN COORDINATES (ANGSTROEM)
---------------------------------
  C     -4.490171   -8.439713    1.377857
  O     -5.249925   -9.607869    1.666368
  H     -6.214125   -9.396867    1.541505
  H     -4.785397   -7.682133    2.112799
  H     -3.375560   -8.481849    1.470877
  H     -4.515786   -8.055330    0.410306
  C     -8.445730   -7.230128    0.981224
  O     -7.606037   -8.335033    0.766093
  H     -7.174182   -8.345744   -0.074494
  H     -8.098595   -6.689675    1.881978
  H     -8.245143   -6.562673    0.152544
  H     -9.558064   -7.434609    1.076089

 Multiplicity           Mult            ....    1
 Number of Electrons    NEL             ....   18
 Basis Dimension        Dim             ....  172

ORBITAL ENERGIES
----------------

  NO   OCC          E(Eh)            E(eV)
   0   2.0000     -19.227047      -523.1946
   1   2.0000     -10.318626      -280.7841
   2   2.0000      -1.139267       -31.0010
   3   2.0000      -0.796478       -21.6733
   4   2.0000      -0.616810       -16.7843
   5   2.0000      -0.540592       -14.7103
   6   2.0000      -0.533449       -14.5159
   7   2.0000      -0.419903       -11.4261
   8   2.0000      -0.374154       -10.1812
   9   0.0000       0.089450         2.4341
  10   0.0000       0.132014         3.5923
  11   0.0000       0.147810         4.0221
  12   0.0000       0.180862         4.9215
  13   0.0000       0.196131         5.3370

MULLIKEN ATOMIC CHARGES
-----------------------
   0 C :   -0.009074
   1 O :    0.003029
   2 H :   -0.007612
   3 H :   -0.000250
   4 H :   -0.001002
   5 H :   -0.003541
   6 C :   -0.156650
   7 O :   -0.473828
   8 H :    0.321840
   9 H :    0.114294
  10 H :    0.102752
  11 H :    0.110041
Sum of atomic charges:   -0.0000000

LOEWDIN ATOMIC CHARGES
----------------------
   0 C :   -0.013217
   1 O :   -0.005728
   2 H :   -0.043191
   3 H :   -0.001251
   4 H :   -0.000242
   5 H :   -0.002306
   6 C :   -0.389218
   7 O :   -0.015901
   8 H :    0.162844
   9 H :    0.104533
  10 H :    0.096515
  11 H :    0.107161

  Mayer bond orders larger than 0.1
B(  6-C ,  7-O ) :   0.9980 B(  6-C ,  9-H ) :   0.9779 B(  6-C , 10-H ) :   0.9890
B(  6-C , 11-H ) :   0.9631 B(  7-O ,  8-H ) :   0.8932

Dispersion correction           -0.000252553
FINAL SINGLE POINT ENERGY      -115.730842166357

DIPOLE MOMENT
-------------
                                X             Y             Z
Electronic contribution:      0.94238      -1.50599      -0.17137
Nuclear contribution   :     -0.98773       1.97021      -0.32698
                        -----------------------------------------
Total Dipole Moment    :     -0.04535       0.46422      -0.49835
                        -----------------------------------------
Magnitude (a.u.)       :      0.68257
Magnitude (Debye)      :      1.73496

Rotational constants in cm-1:     4.333078     0.828259     0.807203
Rotational constants in MHz : 129902.400154 24830.582593 24199.333478

                             ****ORCA TERMINATED NORMALLY****
TOTAL RUN TIME: 0 days 0 hours 0 minutes 57 seconds 710 msec
