                         Program Version 4.1.2  - RELEASE  -
|  1> #Run DFT-D3 single point of the dimer
|  2> ! wB97X-D3 def2-TZVP TIGHTSCF CHELPG PMODEL PAL8
|  3>
|  4> %base "10-83_DFT_AB"
|  5>
|  6> %scf
|  7> MaxIter 1000
|  8> end
|  9>
| 10> * xyz 0 1
| 11>   C                      0.325050             3.682876             4.670970
| 12>   O                      -0.846528            4.166738             4.035653
| 13>   H                      -1.548622            4.059657             4.702336
| 14>   H                      0.917244             3.089913             4.008710
| 15>   H                      1.078371             4.362851             4.962118
| 16>   H                      0.047949             3.124406             5.575140
| 17>   C                      -3.729851            3.038293             4.185323
| 18>   O                      -3.523052            2.471416             5.433180
| 19>   H                      -4.135422            2.762021             6.113348
| 20>   H                      -4.740345            3.461552             4.070275
| 21>   H                      -3.093136            3.884884             4.062776
| 22>   H                      -3.567683            2.320354             3.352861
| 23> *
| 24>
| 25> #Run DFT-D3 single point of the molecule with dimer basis set
| 26> $new_job
| 27> %base "10-83_DFT_A"
| 28> ! wB97X-D3 def2-TZVP TIGHTSCF CHELPG PMODEL
| 29>
| 30> %scf
| 31> MaxIter 1000
| 32> end
| 33>
| 34> * xyz 0 1
| 35>   C                      0.325050             3.682876             4.670970
| 36>   O                      -0.846528            4.166738             4.035653
| 37>   H                      -1.548622            4.059657             4.702336
| 38>   H                      0.917244             3.089913             4.008710
| 39>   H                      1.078371             4.362851             4.962118
| 40>   H                      0.047949             3.124406             5.575140
| 41>   C                    : -3.729851            3.038293             4.185323
| 42>   O                    : -3.523052            2.471416             5.433180
| 43>   H                    : -4.135422            2.762021             6.113348
| 44>   H                    : -4.740345            3.461552             4.070275
| 45>   H                    : -3.093136            3.884884             4.062776
| 46>   H                    : -3.567683            2.320354             3.352861
| 47> *
| 48>
| 49> #Run DFT-D3 single point of the particle with dimer basis set
| 50> $new_job
| 51> %base "10-83_DFT_B"
| 52> ! wB97X-D3 def2-TZVP TIGHTSCF CHELPG PMODEL
| 53>
| 54> %scf
| 55> MaxIter 1000
| 56> end
| 57>
| 58> * xyz 0 1
| 59>   C                    : 0.325050             3.682876             4.670970
| 60>   O                    : -0.846528            4.166738             4.035653
| 61>   H                    : -1.548622            4.059657             4.702336
| 62>   H                    : 0.917244             3.089913             4.008710
| 63>   H                    : 1.078371             4.362851             4.962118
| 64>   H                    : 0.047949             3.124406             5.575140
| 65>   C                      -3.729851            3.038293             4.185323
| 66>   O                      -3.523052            2.471416             5.433180
| 67>   H                      -4.135422            2.762021             6.113348
| 68>   H                      -4.740345            3.461552             4.070275
| 69>   H                      -3.093136            3.884884             4.062776
| 70>   H                      -3.567683            2.320354             3.352861
| 71> *
| 72>
| 73>                          ****END OF INPUT****
 Total Charge           Charge          ....    0
 Multiplicity           Mult            ....    1
 Number of Electrons    NEL             ....   36
Dispersion correction           -0.001816823
FINAL SINGLE POINT ENERGY      -231.461905729327
Dispersion correction           -0.000247701
FINAL SINGLE POINT ENERGY      -115.729082387117

CARTESIAN COORDINATES (ANGSTROEM)
---------------------------------
  C      0.325050    3.682876    4.670970
  O     -0.846528    4.166738    4.035653
  H     -1.548622    4.059657    4.702336
  H      0.917244    3.089913    4.008710
  H      1.078371    4.362851    4.962118
  H      0.047949    3.124406    5.575140
  C     -3.729851    3.038293    4.185323
  O     -3.523052    2.471416    5.433180
  H     -4.135422    2.762021    6.113348
  H     -4.740345    3.461552    4.070275
  H     -3.093136    3.884884    4.062776
  H     -3.567683    2.320354    3.352861

 Multiplicity           Mult            ....    1
 Number of Electrons    NEL             ....   18
 Basis Dimension        Dim             ....  172

ORBITAL ENERGIES
----------------

  NO   OCC          E(Eh)            E(eV)
   0   2.0000     -19.227728      -523.2131
   1   2.0000     -10.310591      -280.5654
   2   2.0000      -1.140659       -31.0389
   3   2.0000      -0.798018       -21.7152
   4   2.0000      -0.619980       -16.8705
   5   2.0000      -0.544137       -14.8067
   6   2.0000      -0.530078       -14.4241
   7   2.0000      -0.423614       -11.5271
   8   2.0000      -0.371091       -10.0979
   9   0.0000       0.096584         2.6282
  10   0.0000       0.120587         3.2813
  11   0.0000       0.152153         4.1403
  12   0.0000       0.184194         5.0122
  13   0.0000       0.199583         5.4309

MULLIKEN ATOMIC CHARGES
-----------------------
   0 C :    0.000708
   1 O :    0.000224
   2 H :    0.006366
   3 H :   -0.000122
   4 H :   -0.000005
   5 H :   -0.001867
   6 C :   -0.147688
   7 O :   -0.483733
   8 H :    0.321436
   9 H :    0.103745
  10 H :    0.088613
  11 H :    0.112324
Sum of atomic charges:    0.0000000

LOEWDIN ATOMIC CHARGES
----------------------
   0 C :   -0.001069
   1 O :   -0.010616
   2 H :   -0.019555
   3 H :   -0.000017
   4 H :   -0.000013
   5 H :   -0.000753
   6 C :   -0.391644
   7 O :   -0.054520
   8 H :    0.170860
   9 H :    0.096784
  10 H :    0.101063
  11 H :    0.109482

  Mayer bond orders larger than 0.1
B(  6-C ,  7-O ) :   1.0040 B(  6-C ,  9-H ) :   0.9853 B(  6-C , 10-H ) :   0.9790
B(  6-C , 11-H ) :   0.9746 B(  7-O ,  8-H ) :   0.8915

Dispersion correction           -0.000246681
FINAL SINGLE POINT ENERGY      -115.733463482974

DIPOLE MOMENT
-------------
                                X             Y             Z
Electronic contribution:      0.38401      -0.85865       1.59672
Nuclear contribution   :     -0.89184       1.28393      -1.62573
                        -----------------------------------------
Total Dipole Moment    :     -0.50783       0.42528      -0.02901
                        -----------------------------------------
Magnitude (a.u.)       :      0.66302
Magnitude (Debye)      :      1.68526

Rotational constants in cm-1:     4.434726     0.848088     0.816350
Rotational constants in MHz : 132949.736175 25425.035592 24473.569864

                             ****ORCA TERMINATED NORMALLY****
TOTAL RUN TIME: 0 days 0 hours 1 minutes 5 seconds 178 msec
