                         Program Version 4.1.2  - RELEASE  -
|  1> #Run DFT-D3 single point of the dimer
|  2> ! wB97X-D3 def2-TZVP TIGHTSCF CHELPG PMODEL PAL8
|  3>
|  4> %base "19-64_DFT_AB"
|  5>
|  6> %scf
|  7> MaxIter 1000
|  8> end
|  9>
| 10> * xyz 0 1
| 11>   C                      -7.284692            9.448034             8.888117
| 12>   O                      -8.112072            10.027242            9.933787
| 13>   H                      -7.642018            10.829037            10.204778
| 14>   H                      -6.230103            9.391925             9.178771
| 15>   H                      -7.543175            8.418381             8.673947
| 16>   H                      -7.374277            10.050018            7.969878
| 17>   C                      -2.472019            6.718270             9.838577
| 18>   O                      -3.128777            6.038836             10.865620
| 19>   H                      -2.541078            5.623681             11.411225
| 20>   H                      -2.944758            7.683144             9.612910
| 21>   H                      -1.430267            6.842742             10.183854
| 22>   H                      -2.344871            6.126323             8.908435
| 23> *
| 24>
| 25> #Run DFT-D3 single point of the molecule with dimer basis set
| 26> $new_job
| 27> %base "19-64_DFT_A"
| 28> ! wB97X-D3 def2-TZVP TIGHTSCF CHELPG PMODEL
| 29>
| 30> %scf
| 31> MaxIter 1000
| 32> end
| 33>
| 34> * xyz 0 1
| 35>   C                      -7.284692            9.448034             8.888117
| 36>   O                      -8.112072            10.027242            9.933787
| 37>   H                      -7.642018            10.829037            10.204778
| 38>   H                      -6.230103            9.391925             9.178771
| 39>   H                      -7.543175            8.418381             8.673947
| 40>   H                      -7.374277            10.050018            7.969878
| 41>   C                    : -2.472019            6.718270             9.838577
| 42>   O                    : -3.128777            6.038836             10.865620
| 43>   H                    : -2.541078            5.623681             11.411225
| 44>   H                    : -2.944758            7.683144             9.612910
| 45>   H                    : -1.430267            6.842742             10.183854
| 46>   H                    : -2.344871            6.126323             8.908435
| 47> *
| 48>
| 49> #Run DFT-D3 single point of the particle with dimer basis set
| 50> $new_job
| 51> %base "19-64_DFT_B"
| 52> ! wB97X-D3 def2-TZVP TIGHTSCF CHELPG PMODEL
| 53>
| 54> %scf
| 55> MaxIter 1000
| 56> end
| 57>
| 58> * xyz 0 1
| 59>   C                    : -7.284692            9.448034             8.888117
| 60>   O                    : -8.112072            10.027242            9.933787
| 61>   H                    : -7.642018            10.829037            10.204778
| 62>   H                    : -6.230103            9.391925             9.178771
| 63>   H                    : -7.543175            8.418381             8.673947
| 64>   H                    : -7.374277            10.050018            7.969878
| 65>   C                      -2.472019            6.718270             9.838577
| 66>   O                      -3.128777            6.038836             10.865620
| 67>   H                      -2.541078            5.623681             11.411225
| 68>   H                      -2.944758            7.683144             9.612910
| 69>   H                      -1.430267            6.842742             10.183854
| 70>   H                      -2.344871            6.126323             8.908435
| 71> *
| 72>
| 73>                          ****END OF INPUT****
 Total Charge           Charge          ....    0
 Multiplicity           Mult            ....    1
 Number of Electrons    NEL             ....   36
Dispersion correction           -0.000663936
FINAL SINGLE POINT ENERGY      -231.464302961526
Dispersion correction           -0.000251047
FINAL SINGLE POINT ENERGY      -115.734654832602

CARTESIAN COORDINATES (ANGSTROEM)
---------------------------------
  C     -7.284692    9.448034    8.888117
  O     -8.112072   10.027242    9.933787
  H     -7.642018   10.829037   10.204778
  H     -6.230103    9.391925    9.178771
  H     -7.543175    8.418381    8.673947
  H     -7.374277   10.050018    7.969878
  C     -2.472019    6.718270    9.838577
  O     -3.128777    6.038836   10.865620
  H     -2.541078    5.623681   11.411225
  H     -2.944758    7.683144    9.612910
  H     -1.430267    6.842742   10.183854
  H     -2.344871    6.126323    8.908435

 Multiplicity           Mult            ....    1
 Number of Electrons    NEL             ....   18
 Basis Dimension        Dim             ....  172

ORBITAL ENERGIES
----------------

  NO   OCC          E(Eh)            E(eV)
   0   2.0000     -19.222642      -523.0747
   1   2.0000     -10.316269      -280.7199
   2   2.0000      -1.151911       -31.3451
   3   2.0000      -0.799319       -21.7506
   4   2.0000      -0.623145       -16.9566
   5   2.0000      -0.540722       -14.7138
   6   2.0000      -0.535461       -14.5706
   7   2.0000      -0.427867       -11.6429
   8   2.0000      -0.372476       -10.1356
   9   0.0000       0.088999         2.4218
  10   0.0000       0.116863         3.1800
  11   0.0000       0.152630         4.1533
  12   0.0000       0.168422         4.5830
  13   0.0000       0.183589         4.9957

MULLIKEN ATOMIC CHARGES
-----------------------
   0 C :   -0.000085
   1 O :    0.000001
   2 H :    0.000000
   3 H :    0.000114
   4 H :    0.000000
   5 H :    0.000007
   6 C :   -0.154421
   7 O :   -0.461818
   8 H :    0.305234
   9 H :    0.117456
  10 H :    0.096354
  11 H :    0.097158
Sum of atomic charges:    0.0000000

LOEWDIN ATOMIC CHARGES
----------------------
   0 C :   -0.000023
   1 O :   -0.000001
   2 H :   -0.000000
   3 H :   -0.000079
   4 H :   -0.000002
   5 H :   -0.000001
   6 C :   -0.392840
   7 O :   -0.037519
   8 H :    0.130348
   9 H :    0.105418
  10 H :    0.098333
  11 H :    0.096365

  Mayer bond orders larger than 0.1
B(  6-C ,  7-O ) :   1.0069 B(  6-C ,  9-H ) :   0.9716 B(  6-C , 10-H ) :   0.9956
B(  6-C , 11-H ) :   0.9678 B(  7-O ,  8-H ) :   0.9128

Dispersion correction           -0.000236076
FINAL SINGLE POINT ENERGY      -115.729572610888

DIPOLE MOMENT
-------------
                                X             Y             Z
Electronic contribution:     -1.06814      -0.78376       1.27102
Nuclear contribution   :      1.73976       0.77859      -1.29217
                        -----------------------------------------
Total Dipole Moment    :      0.67162      -0.00518      -0.02115
                        -----------------------------------------
Magnitude (a.u.)       :      0.67197
Magnitude (Debye)      :      1.70801

Rotational constants in cm-1:     4.369257     0.848929     0.817327
Rotational constants in MHz : 130987.025174 25450.249260 24502.861680

                             ****ORCA TERMINATED NORMALLY****
TOTAL RUN TIME: 0 days 0 hours 0 minutes 46 seconds 778 msec
