                         Program Version 4.1.2  - RELEASE  -
|  1> #Run DFT-D3 single point of the dimer
|  2> ! wB97X-D3 def2-TZVP TIGHTSCF CHELPG PMODEL PAL8
|  3>
|  4> %base "7-193_DFT_AB"
|  5>
|  6> %scf
|  7> MaxIter 1000
|  8> end
|  9>
| 10> * xyz 0 1
| 11>   C                      8.985296             -3.054821            8.696973
| 12>   O                      8.995016             -2.653601            7.377167
| 13>   H                      9.719916             -3.104390            6.964746
| 14>   H                      8.650019             -4.060848            8.822176
| 15>   H                      9.996094             -3.003890            9.103342
| 16>   H                      8.332179             -2.501358            9.316840
| 17>   C                      10.942558            -2.522075            4.385811
| 18>   O                      10.973613            -3.427735            5.412486
| 19>   H                      11.362989            -4.179425            5.037580
| 20>   H                      11.900698            -2.019428            4.321429
| 21>   H                      10.745459            -3.035837            3.524915
| 22>   H                      10.154383            -1.765396            4.563391
| 23> *
| 24>
| 25> #Run DFT-D3 single point of the molecule with dimer basis set
| 26> $new_job
| 27> %base "7-193_DFT_A"
| 28> ! wB97X-D3 def2-TZVP TIGHTSCF CHELPG PMODEL
| 29>
| 30> %scf
| 31> MaxIter 1000
| 32> end
| 33>
| 34> * xyz 0 1
| 35>   C                      8.985296             -3.054821            8.696973
| 36>   O                      8.995016             -2.653601            7.377167
| 37>   H                      9.719916             -3.104390            6.964746
| 38>   H                      8.650019             -4.060848            8.822176
| 39>   H                      9.996094             -3.003890            9.103342
| 40>   H                      8.332179             -2.501358            9.316840
| 41>   C                    : 10.942558            -2.522075            4.385811
| 42>   O                    : 10.973613            -3.427735            5.412486
| 43>   H                    : 11.362989            -4.179425            5.037580
| 44>   H                    : 11.900698            -2.019428            4.321429
| 45>   H                    : 10.745459            -3.035837            3.524915
| 46>   H                    : 10.154383            -1.765396            4.563391
| 47> *
| 48>
| 49> #Run DFT-D3 single point of the particle with dimer basis set
| 50> $new_job
| 51> %base "7-193_DFT_B"
| 52> ! wB97X-D3 def2-TZVP TIGHTSCF CHELPG PMODEL
| 53>
| 54> %scf
| 55> MaxIter 1000
| 56> end
| 57>
| 58> * xyz 0 1
| 59>   C                    : 8.985296             -3.054821            8.696973
| 60>   O                    : 8.995016             -2.653601            7.377167
| 61>   H                    : 9.719916             -3.104390            6.964746
| 62>   H                    : 8.650019             -4.060848            8.822176
| 63>   H                    : 9.996094             -3.003890            9.103342
| 64>   H                    : 8.332179             -2.501358            9.316840
| 65>   C                      10.942558            -2.522075            4.385811
| 66>   O                      10.973613            -3.427735            5.412486
| 67>   H                      11.362989            -4.179425            5.037580
| 68>   H                      11.900698            -2.019428            4.321429
| 69>   H                      10.745459            -3.035837            3.524915
| 70>   H                      10.154383            -1.765396            4.563391
| 71> *
| 72>
| 73>                          ****END OF INPUT****
 Total Charge           Charge          ....    0
 Multiplicity           Mult            ....    1
 Number of Electrons    NEL             ....   36
Dispersion correction           -0.001495451
FINAL SINGLE POINT ENERGY      -231.469803312012
Dispersion correction           -0.000211309
FINAL SINGLE POINT ENERGY      -115.733364894760

CARTESIAN COORDINATES (ANGSTROEM)
---------------------------------
  C      8.985296   -3.054821    8.696973
  O      8.995016   -2.653601    7.377167
  H      9.719916   -3.104390    6.964746
  H      8.650019   -4.060848    8.822176
  H      9.996094   -3.003890    9.103342
  H      8.332179   -2.501358    9.316840
  C     10.942558   -2.522075    4.385811
  O     10.973613   -3.427735    5.412486
  H     11.362989   -4.179425    5.037580
  H     11.900698   -2.019428    4.321429
  H     10.745459   -3.035837    3.524915
  H     10.154383   -1.765396    4.563391

 Multiplicity           Mult            ....    1
 Number of Electrons    NEL             ....   18
 Basis Dimension        Dim             ....  172

ORBITAL ENERGIES
----------------

  NO   OCC          E(Eh)            E(eV)
   0   2.0000     -19.224180      -523.1165
   1   2.0000     -10.300722      -280.2969
   2   2.0000      -1.160083       -31.5675
   3   2.0000      -0.798068       -21.7165
   4   2.0000      -0.626288       -17.0422
   5   2.0000      -0.555493       -15.1157
   6   2.0000      -0.534084       -14.5332
   7   2.0000      -0.436439       -11.8761
   8   2.0000      -0.371086       -10.0978
   9   0.0000       0.101386         2.7588
  10   0.0000       0.122125         3.3232
  11   0.0000       0.162286         4.4160
  12   0.0000       0.186995         5.0884
  13   0.0000       0.206030         5.6064

MULLIKEN ATOMIC CHARGES
-----------------------
   0 C :    0.000845
   1 O :   -0.000167
   2 H :   -0.009810
   3 H :   -0.000144
   4 H :   -0.000618
   5 H :   -0.000068
   6 C :   -0.150354
   7 O :   -0.446752
   8 H :    0.302831
   9 H :    0.092452
  10 H :    0.100786
  11 H :    0.111000
Sum of atomic charges:   -0.0000000

LOEWDIN ATOMIC CHARGES
----------------------
   0 C :   -0.000989
   1 O :   -0.004374
   2 H :   -0.034066
   3 H :   -0.000028
   4 H :   -0.000167
   5 H :   -0.000011
   6 C :   -0.400424
   7 O :    0.002870
   8 H :    0.152042
   9 H :    0.093506
  10 H :    0.080370
  11 H :    0.111270

  Mayer bond orders larger than 0.1
B(  6-C ,  7-O ) :   0.9889 B(  6-C ,  9-H ) :   0.9752 B(  6-C , 10-H ) :   0.9898
B(  6-C , 11-H ) :   0.9791 B(  7-O ,  8-H ) :   0.9087

Dispersion correction           -0.000189087
FINAL SINGLE POINT ENERGY      -115.728416943860

DIPOLE MOMENT
-------------
                                X             Y             Z
Electronic contribution:     -0.03657      -1.10534       1.34587
Nuclear contribution   :      0.26441       0.94295      -1.99479
                        -----------------------------------------
Total Dipole Moment    :      0.22784      -0.16239      -0.64891
                        -----------------------------------------
Magnitude (a.u.)       :      0.70666
Magnitude (Debye)      :      1.79619

Rotational constants in cm-1:     4.404680     0.896052     0.862525
Rotational constants in MHz : 132048.990011 26862.959925 25857.863804

                             ****ORCA TERMINATED NORMALLY****
TOTAL RUN TIME: 0 days 0 hours 1 minutes 13 seconds 341 msec
