                         Program Version 4.1.2  - RELEASE  -
|  1> #Run DFT-D3 single point of the dimer
|  2> ! wB97X-D3 def2-TZVP TIGHTSCF CHELPG PMODEL PAL8
|  3>
|  4> %base "21-213_DFT_AB"
|  5>
|  6> %scf
|  7> MaxIter 1000
|  8> end
|  9>
| 10> * xyz 0 1
| 11>   C                      4.543838             1.710995             10.666752
| 12>   O                      4.756098             2.325651             9.434166
| 13>   H                      4.504276             3.273992             9.505894
| 14>   H                      3.553929             1.349795             10.785077
| 15>   H                      5.116451             0.781854             10.582487
| 16>   H                      4.965932             2.259102             11.551566
| 17>   C                      3.235561             4.551749             5.934133
| 18>   O                      2.594535             4.358241             7.218356
| 19>   H                      3.030707             4.934264             7.863506
| 20>   H                      4.267933             4.089265             5.970276
| 21>   H                      2.610780             4.061850             5.130225
| 22>   H                      3.285283             5.611217             5.737462
| 23> *
| 24>
| 25> #Run DFT-D3 single point of the molecule with dimer basis set
| 26> $new_job
| 27> %base "21-213_DFT_A"
| 28> ! wB97X-D3 def2-TZVP TIGHTSCF CHELPG PMODEL
| 29>
| 30> %scf
| 31> MaxIter 1000
| 32> end
| 33>
| 34> * xyz 0 1
| 35>   C                      4.543838             1.710995             10.666752
| 36>   O                      4.756098             2.325651             9.434166
| 37>   H                      4.504276             3.273992             9.505894
| 38>   H                      3.553929             1.349795             10.785077
| 39>   H                      5.116451             0.781854             10.582487
| 40>   H                      4.965932             2.259102             11.551566
| 41>   C                    : 3.235561             4.551749             5.934133
| 42>   O                    : 2.594535             4.358241             7.218356
| 43>   H                    : 3.030707             4.934264             7.863506
| 44>   H                    : 4.267933             4.089265             5.970276
| 45>   H                    : 2.610780             4.061850             5.130225
| 46>   H                    : 3.285283             5.611217             5.737462
| 47> *
| 48>
| 49> #Run DFT-D3 single point of the particle with dimer basis set
| 50> $new_job
| 51> %base "21-213_DFT_B"
| 52> ! wB97X-D3 def2-TZVP TIGHTSCF CHELPG PMODEL
| 53>
| 54> %scf
| 55> MaxIter 1000
| 56> end
| 57>
| 58> * xyz 0 1
| 59>   C                    : 4.543838             1.710995             10.666752
| 60>   O                    : 4.756098             2.325651             9.434166
| 61>   H                    : 4.504276             3.273992             9.505894
| 62>   H                    : 3.553929             1.349795             10.785077
| 63>   H                    : 5.116451             0.781854             10.582487
| 64>   H                    : 4.965932             2.259102             11.551566
| 65>   C                      3.235561             4.551749             5.934133
| 66>   O                      2.594535             4.358241             7.218356
| 67>   H                      3.030707             4.934264             7.863506
| 68>   H                      4.267933             4.089265             5.970276
| 69>   H                      2.610780             4.061850             5.130225
| 70>   H                      3.285283             5.611217             5.737462
| 71> *
| 72>
| 73>                          ****END OF INPUT****
 Total Charge           Charge          ....    0
 Multiplicity           Mult            ....    1
 Number of Electrons    NEL             ....   36
Dispersion correction           -0.001171437
FINAL SINGLE POINT ENERGY      -231.465488493250
Dispersion correction           -0.000246918
FINAL SINGLE POINT ENERGY      -115.732234908313

CARTESIAN COORDINATES (ANGSTROEM)
---------------------------------
  C      4.543838    1.710995   10.666752
  O      4.756098    2.325651    9.434166
  H      4.504276    3.273992    9.505894
  H      3.553929    1.349795   10.785077
  H      5.116451    0.781854   10.582487
  H      4.965932    2.259102   11.551566
  C      3.235561    4.551749    5.934133
  O      2.594535    4.358241    7.218356
  H      3.030707    4.934264    7.863506
  H      4.267933    4.089265    5.970276
  H      2.610780    4.061850    5.130225
  H      3.285283    5.611217    5.737462

 Multiplicity           Mult            ....    1
 Number of Electrons    NEL             ....   18
 Basis Dimension        Dim             ....  172

ORBITAL ENERGIES
----------------

  NO   OCC          E(Eh)            E(eV)
   0   2.0000     -19.228736      -523.2405
   1   2.0000     -10.322529      -280.8903
   2   2.0000      -1.123700       -30.5774
   3   2.0000      -0.790240       -21.5035
   4   2.0000      -0.600801       -16.3486
   5   2.0000      -0.540176       -14.6989
   6   2.0000      -0.520970       -14.1763
   7   2.0000      -0.432383       -11.7657
   8   2.0000      -0.373219       -10.1558
   9   0.0000       0.087046         2.3686
  10   0.0000       0.115961         3.1555
  11   0.0000       0.151223         4.1150
  12   0.0000       0.176837         4.8120
  13   0.0000       0.196169         5.3380

MULLIKEN ATOMIC CHARGES
-----------------------
   0 C :    0.000581
   1 O :    0.000095
   2 H :   -0.005386
   3 H :   -0.000141
   4 H :    0.000019
   5 H :   -0.000012
   6 C :   -0.166226
   7 O :   -0.482059
   8 H :    0.314814
   9 H :    0.104903
  10 H :    0.122052
  11 H :    0.111359
Sum of atomic charges:   -0.0000000

LOEWDIN ATOMIC CHARGES
----------------------
   0 C :   -0.000140
   1 O :   -0.000987
   2 H :   -0.003733
   3 H :   -0.000024
   4 H :   -0.000002
   5 H :   -0.000002
   6 C :   -0.365165
   7 O :   -0.108961
   8 H :    0.169161
   9 H :    0.102272
  10 H :    0.115920
  11 H :    0.091660

  Mayer bond orders larger than 0.1
B(  6-C ,  7-O ) :   0.9922 B(  6-C ,  9-H ) :   0.9716 B(  6-C , 10-H ) :   0.9700
B(  6-C , 11-H ) :   0.9792 B(  7-O ,  8-H ) :   0.8977

Dispersion correction           -0.000248175
FINAL SINGLE POINT ENERGY      -115.734174414582

DIPOLE MOMENT
-------------
                                X             Y             Z
Electronic contribution:     -0.88152      -0.29823       1.46344
Nuclear contribution   :      1.40332       0.76246      -1.60592
                        -----------------------------------------
Total Dipole Moment    :      0.52180       0.46423      -0.14248
                        -----------------------------------------
Magnitude (a.u.)       :      0.71280
Magnitude (Debye)      :      1.81180

Rotational constants in cm-1:     4.077972     0.801430     0.774470
Rotational constants in MHz : 122254.522191 24026.260739 23218.036167

                             ****ORCA TERMINATED NORMALLY****
TOTAL RUN TIME: 0 days 0 hours 0 minutes 52 seconds 278 msec
