                         Program Version 4.1.2  - RELEASE  -
|  1> #Run DFT-D3 single point of the dimer
|  2> ! wB97X-D3 def2-TZVP TIGHTSCF CHELPG PMODEL PAL8
|  3>
|  4> %base "8-73_DFT_AB"
|  5>
|  6> %scf
|  7> MaxIter 1000
|  8> end
|  9>
| 10> * xyz 0 1
| 11>   C                      3.247449             0.489047             6.955197
| 12>   O                      3.339960             1.502602             5.982111
| 13>   H                      2.459960             1.640455             5.585835
| 14>   H                      2.534463             0.868375             7.717436
| 15>   H                      2.934831             -0.454493            6.529917
| 16>   H                      4.259433             0.461948             7.314150
| 17>   C                      -0.024007            2.080020             6.984736
| 18>   O                      0.299046             1.756115             5.654286
| 19>   H                      -0.364095            2.158002             5.124709
| 20>   H                      0.695163             2.885084             7.303017
| 21>   H                      -1.035840            2.500410             7.043832
| 22>   H                      -0.006311            1.375831             7.786543
| 23> *
| 24>
| 25> #Run DFT-D3 single point of the molecule with dimer basis set
| 26> $new_job
| 27> %base "8-73_DFT_A"
| 28> ! wB97X-D3 def2-TZVP TIGHTSCF CHELPG PMODEL
| 29>
| 30> %scf
| 31> MaxIter 1000
| 32> end
| 33>
| 34> * xyz 0 1
| 35>   C                      3.247449             0.489047             6.955197
| 36>   O                      3.339960             1.502602             5.982111
| 37>   H                      2.459960             1.640455             5.585835
| 38>   H                      2.534463             0.868375             7.717436
| 39>   H                      2.934831             -0.454493            6.529917
| 40>   H                      4.259433             0.461948             7.314150
| 41>   C                    : -0.024007            2.080020             6.984736
| 42>   O                    : 0.299046             1.756115             5.654286
| 43>   H                    : -0.364095            2.158002             5.124709
| 44>   H                    : 0.695163             2.885084             7.303017
| 45>   H                    : -1.035840            2.500410             7.043832
| 46>   H                    : -0.006311            1.375831             7.786543
| 47> *
| 48>
| 49> #Run DFT-D3 single point of the particle with dimer basis set
| 50> $new_job
| 51> %base "8-73_DFT_B"
| 52> ! wB97X-D3 def2-TZVP TIGHTSCF CHELPG PMODEL
| 53>
| 54> %scf
| 55> MaxIter 1000
| 56> end
| 57>
| 58> * xyz 0 1
| 59>   C                    : 3.247449             0.489047             6.955197
| 60>   O                    : 3.339960             1.502602             5.982111
| 61>   H                    : 2.459960             1.640455             5.585835
| 62>   H                    : 2.534463             0.868375             7.717436
| 63>   H                    : 2.934831             -0.454493            6.529917
| 64>   H                    : 4.259433             0.461948             7.314150
| 65>   C                      -0.024007            2.080020             6.984736
| 66>   O                      0.299046             1.756115             5.654286
| 67>   H                      -0.364095            2.158002             5.124709
| 68>   H                      0.695163             2.885084             7.303017
| 69>   H                      -1.035840            2.500410             7.043832
| 70>   H                      -0.006311            1.375831             7.786543
| 71> *
| 72>
| 73>                          ****END OF INPUT****
 Total Charge           Charge          ....    0
 Multiplicity           Mult            ....    1
 Number of Electrons    NEL             ....   36
Dispersion correction           -0.002206286
FINAL SINGLE POINT ENERGY      -231.469344024204
Dispersion correction           -0.000215506
FINAL SINGLE POINT ENERGY      -115.733931081291

CARTESIAN COORDINATES (ANGSTROEM)
---------------------------------
  C      3.247449    0.489047    6.955197
  O      3.339960    1.502602    5.982111
  H      2.459960    1.640455    5.585835
  H      2.534463    0.868375    7.717436
  H      2.934831   -0.454493    6.529917
  H      4.259433    0.461948    7.314150
  C     -0.024007    2.080020    6.984736
  O      0.299046    1.756115    5.654286
  H     -0.364095    2.158002    5.124709
  H      0.695163    2.885084    7.303017
  H     -1.035840    2.500410    7.043832
  H     -0.006311    1.375831    7.786543

 Multiplicity           Mult            ....    1
 Number of Electrons    NEL             ....   18
 Basis Dimension        Dim             ....  172

ORBITAL ENERGIES
----------------

  NO   OCC          E(Eh)            E(eV)
   0   2.0000     -19.232047      -523.3306
   1   2.0000     -10.314513      -280.6722
   2   2.0000      -1.146335       -31.1934
   3   2.0000      -0.798125       -21.7181
   4   2.0000      -0.619391       -16.8545
   5   2.0000      -0.541359       -14.7311
   6   2.0000      -0.531936       -14.4747
   7   2.0000      -0.433481       -11.7956
   8   2.0000      -0.373084       -10.1521
   9   0.0000       0.097355         2.6492
  10   0.0000       0.126443         3.4407
  11   0.0000       0.150953         4.1076
  12   0.0000       0.180771         4.9190
  13   0.0000       0.196802         5.3553

MULLIKEN ATOMIC CHARGES
-----------------------
   0 C :    0.001953
   1 O :   -0.000291
   2 H :   -0.007567
   3 H :    0.000023
   4 H :   -0.000929
   5 H :    0.000014
   6 C :   -0.185818
   7 O :   -0.454055
   8 H :    0.315201
   9 H :    0.103546
  10 H :    0.108394
  11 H :    0.119532
Sum of atomic charges:   -0.0000000

LOEWDIN ATOMIC CHARGES
----------------------
   0 C :   -0.004001
   1 O :   -0.002085
   2 H :   -0.024664
   3 H :   -0.003185
   4 H :   -0.000297
   5 H :   -0.000024
   6 C :   -0.391139
   7 O :   -0.036387
   8 H :    0.160157
   9 H :    0.105781
  10 H :    0.099199
  11 H :    0.096645

  Mayer bond orders larger than 0.1
B(  6-C ,  7-O ) :   1.0041 B(  6-C ,  9-H ) :   0.9856 B(  6-C , 10-H ) :   0.9810
B(  6-C , 11-H ) :   0.9677 B(  7-O ,  8-H ) :   0.9019

Dispersion correction           -0.000245004
FINAL SINGLE POINT ENERGY      -115.727816229615

DIPOLE MOMENT
-------------
                                X             Y             Z
Electronic contribution:      0.51872      -0.72025      -1.74974
Nuclear contribution   :     -1.10707       1.09570       1.92506
                        -----------------------------------------
Total Dipole Moment    :     -0.58835       0.37545       0.17531
                        -----------------------------------------
Magnitude (a.u.)       :      0.71962
Magnitude (Debye)      :      1.82912

Rotational constants in cm-1:     4.464090     0.830335     0.801926
Rotational constants in MHz : 133830.037649 24892.823146 24041.146571

                             ****ORCA TERMINATED NORMALLY****
TOTAL RUN TIME: 0 days 0 hours 0 minutes 49 seconds 85 msec
