                         Program Version 4.1.2  - RELEASE  -
|  1> #Run DFT-D3 single point of the dimer
|  2> ! wB97X-D3 def2-TZVP TIGHTSCF CHELPG PMODEL PAL8
|  3>
|  4> %base "22-25_DFT_AB"
|  5>
|  6> %scf
|  7> MaxIter 1000
|  8> end
|  9>
| 10> * xyz 0 1
| 11>   C                      -0.754698            -4.429643            3.939378
| 12>   O                      -1.196798            -4.428082            5.254249
| 13>   H                      -0.395699            -4.752719            5.779728
| 14>   H                      -0.383757            -5.340087            3.635676
| 15>   H                      -1.507620            -4.118996            3.190048
| 16>   H                      0.031200             -3.762485            3.769299
| 17>   C                      -1.039465            -5.980408            -0.633928
| 18>   O                      -0.525125            -4.704031            -0.958731
| 19>   H                      0.396405             -4.876705            -1.164711
| 20>   H                      -0.893255            -6.150147            0.412700
| 21>   H                      -2.104369            -6.036551            -0.840206
| 22>   H                      -0.600930            -6.805543            -1.238624
| 23> *
| 24>
| 25> #Run DFT-D3 single point of the molecule with dimer basis set
| 26> $new_job
| 27> %base "22-25_DFT_A"
| 28> ! wB97X-D3 def2-TZVP TIGHTSCF CHELPG PMODEL
| 29>
| 30> %scf
| 31> MaxIter 1000
| 32> end
| 33>
| 34> * xyz 0 1
| 35>   C                      -0.754698            -4.429643            3.939378
| 36>   O                      -1.196798            -4.428082            5.254249
| 37>   H                      -0.395699            -4.752719            5.779728
| 38>   H                      -0.383757            -5.340087            3.635676
| 39>   H                      -1.507620            -4.118996            3.190048
| 40>   H                      0.031200             -3.762485            3.769299
| 41>   C                    : -1.039465            -5.980408            -0.633928
| 42>   O                    : -0.525125            -4.704031            -0.958731
| 43>   H                    : 0.396405             -4.876705            -1.164711
| 44>   H                    : -0.893255            -6.150147            0.412700
| 45>   H                    : -2.104369            -6.036551            -0.840206
| 46>   H                    : -0.600930            -6.805543            -1.238624
| 47> *
| 48>
| 49> #Run DFT-D3 single point of the particle with dimer basis set
| 50> $new_job
| 51> %base "22-25_DFT_B"
| 52> ! wB97X-D3 def2-TZVP TIGHTSCF CHELPG PMODEL
| 53>
| 54> %scf
| 55> MaxIter 1000
| 56> end
| 57>
| 58> * xyz 0 1
| 59>   C                    : -0.754698            -4.429643            3.939378
| 60>   O                    : -1.196798            -4.428082            5.254249
| 61>   H                    : -0.395699            -4.752719            5.779728
| 62>   H                    : -0.383757            -5.340087            3.635676
| 63>   H                    : -1.507620            -4.118996            3.190048
| 64>   H                    : 0.031200             -3.762485            3.769299
| 65>   C                      -1.039465            -5.980408            -0.633928
| 66>   O                      -0.525125            -4.704031            -0.958731
| 67>   H                      0.396405             -4.876705            -1.164711
| 68>   H                      -0.893255            -6.150147            0.412700
| 69>   H                      -2.104369            -6.036551            -0.840206
| 70>   H                      -0.600930            -6.805543            -1.238624
| 71> *
| 72>
| 73>                          ****END OF INPUT****
 Total Charge           Charge          ....    0
 Multiplicity           Mult            ....    1
 Number of Electrons    NEL             ....   36
Dispersion correction           -0.000881036
FINAL SINGLE POINT ENERGY      -231.461574296180
Dispersion correction           -0.000214268
FINAL SINGLE POINT ENERGY      -115.726284555071

CARTESIAN COORDINATES (ANGSTROEM)
---------------------------------
  C     -0.754698   -4.429643    3.939378
  O     -1.196798   -4.428082    5.254249
  H     -0.395699   -4.752719    5.779728
  H     -0.383757   -5.340087    3.635676
  H     -1.507620   -4.118996    3.190048
  H      0.031200   -3.762485    3.769299
  C     -1.039465   -5.980408   -0.633928
  O     -0.525125   -4.704031   -0.958731
  H      0.396405   -4.876705   -1.164711
  H     -0.893255   -6.150147    0.412700
  H     -2.104369   -6.036551   -0.840206
  H     -0.600930   -6.805543   -1.238624

 Multiplicity           Mult            ....    1
 Number of Electrons    NEL             ....   18
 Basis Dimension        Dim             ....  172

ORBITAL ENERGIES
----------------

  NO   OCC          E(Eh)            E(eV)
   0   2.0000     -19.230858      -523.2982
   1   2.0000     -10.310673      -280.5677
   2   2.0000      -1.138963       -30.9928
   3   2.0000      -0.794599       -21.6221
   4   2.0000      -0.608438       -16.5564
   5   2.0000      -0.548561       -14.9271
   6   2.0000      -0.525218       -14.2919
   7   2.0000      -0.435863       -11.8604
   8   2.0000      -0.374949       -10.2029
   9   0.0000       0.086002         2.3402
  10   0.0000       0.116486         3.1697
  11   0.0000       0.152557         4.1513
  12   0.0000       0.167957         4.5703
  13   0.0000       0.190115         5.1733

MULLIKEN ATOMIC CHARGES
-----------------------
   0 C :    0.000240
   1 O :    0.000034
   2 H :    0.000006
   3 H :   -0.000297
   4 H :    0.000042
   5 H :   -0.000043
   6 C :   -0.175333
   7 O :   -0.468308
   8 H :    0.315791
   9 H :    0.109166
  10 H :    0.116898
  11 H :    0.101805
Sum of atomic charges:    0.0000000

LOEWDIN ATOMIC CHARGES
----------------------
   0 C :   -0.000311
   1 O :   -0.000007
   2 H :   -0.000001
   3 H :   -0.000299
   4 H :   -0.000090
   5 H :   -0.000011
   6 C :   -0.388318
   7 O :   -0.077178
   8 H :    0.171324
   9 H :    0.091034
  10 H :    0.104609
  11 H :    0.099249

  Mayer bond orders larger than 0.1
B(  6-C ,  7-O ) :   1.0055 B(  6-C ,  9-H ) :   0.9765 B(  6-C , 10-H ) :   0.9741
B(  6-C , 11-H ) :   0.9808 B(  7-O ,  8-H ) :   0.9016

Dispersion correction           -0.000230404
FINAL SINGLE POINT ENERGY      -115.734755145836

DIPOLE MOMENT
-------------
                                X             Y             Z
Electronic contribution:      0.54445       1.72840      -0.37822
Nuclear contribution   :     -0.17660      -2.33901       0.36430
                        -----------------------------------------
Total Dipole Moment    :      0.36785      -0.61061      -0.01392
                        -----------------------------------------
Magnitude (a.u.)       :      0.71299
Magnitude (Debye)      :      1.81227

Rotational constants in cm-1:     4.294608     0.835089     0.806555
Rotational constants in MHz : 128749.109296 25035.346273 24179.898901

                             ****ORCA TERMINATED NORMALLY****
TOTAL RUN TIME: 0 days 0 hours 0 minutes 58 seconds 337 msec
