                         Program Version 4.1.2  - RELEASE  -
|  1> #Run DFT-D3 single point of the dimer
|  2> ! wB97X-D3 def2-TZVP TIGHTSCF CHELPG PMODEL PAL8
|  3>
|  4> %base "10-107_DFT_AB"
|  5>
|  6> %scf
|  7> MaxIter 1000
|  8> end
|  9>
| 10> * xyz 0 1
| 11>   C                      5.369477             -6.342536            -0.441178
| 12>   O                      5.334754             -5.019816            0.209316
| 13>   H                      4.689948             -4.385982            -0.258636
| 14>   H                      5.435570             -7.157379            0.285672
| 15>   H                      4.490291             -6.557346            -0.960870
| 16>   H                      6.075459             -6.414477            -1.304671
| 17>   C                      5.976764             -2.944571            2.875113
| 18>   O                      5.492957             -1.661611            2.561883
| 19>   H                      5.915873             -1.521271            1.681005
| 20>   H                      7.009396             -2.873774            3.214714
| 21>   H                      5.431324             -3.376674            3.701166
| 22>   H                      5.992161             -3.649090            2.055239
| 23> *
| 24>
| 25> #Run DFT-D3 single point of the molecule with dimer basis set
| 26> $new_job
| 27> %base "10-107_DFT_A"
| 28> ! wB97X-D3 def2-TZVP TIGHTSCF CHELPG PMODEL
| 29>
| 30> %scf
| 31> MaxIter 1000
| 32> end
| 33>
| 34> * xyz 0 1
| 35>   C                      5.369477             -6.342536            -0.441178
| 36>   O                      5.334754             -5.019816            0.209316
| 37>   H                      4.689948             -4.385982            -0.258636
| 38>   H                      5.435570             -7.157379            0.285672
| 39>   H                      4.490291             -6.557346            -0.960870
| 40>   H                      6.075459             -6.414477            -1.304671
| 41>   C                    : 5.976764             -2.944571            2.875113
| 42>   O                    : 5.492957             -1.661611            2.561883
| 43>   H                    : 5.915873             -1.521271            1.681005
| 44>   H                    : 7.009396             -2.873774            3.214714
| 45>   H                    : 5.431324             -3.376674            3.701166
| 46>   H                    : 5.992161             -3.649090            2.055239
| 47> *
| 48>
| 49> #Run DFT-D3 single point of the particle with dimer basis set
| 50> $new_job
| 51> %base "10-107_DFT_B"
| 52> ! wB97X-D3 def2-TZVP TIGHTSCF CHELPG PMODEL
| 53>
| 54> %scf
| 55> MaxIter 1000
| 56> end
| 57>
| 58> * xyz 0 1
| 59>   C                    : 5.369477             -6.342536            -0.441178
| 60>   O                    : 5.334754             -5.019816            0.209316
| 61>   H                    : 4.689948             -4.385982            -0.258636
| 62>   H                    : 5.435570             -7.157379            0.285672
| 63>   H                    : 4.490291             -6.557346            -0.960870
| 64>   H                    : 6.075459             -6.414477            -1.304671
| 65>   C                      5.976764             -2.944571            2.875113
| 66>   O                      5.492957             -1.661611            2.561883
| 67>   H                      5.915873             -1.521271            1.681005
| 68>   H                      7.009396             -2.873774            3.214714
| 69>   H                      5.431324             -3.376674            3.701166
| 70>   H                      5.992161             -3.649090            2.055239
| 71> *
| 72>
| 73>                          ****END OF INPUT****
 Total Charge           Charge          ....    0
 Multiplicity           Mult            ....    1
 Number of Electrons    NEL             ....   36
Dispersion correction           -0.001365332
FINAL SINGLE POINT ENERGY      -231.458260385441
Dispersion correction           -0.000291350
FINAL SINGLE POINT ENERGY      -115.722866802561

CARTESIAN COORDINATES (ANGSTROEM)
---------------------------------
  C      5.369477   -6.342536   -0.441178
  O      5.334754   -5.019816    0.209316
  H      4.689948   -4.385982   -0.258636
  H      5.435570   -7.157379    0.285672
  H      4.490291   -6.557346   -0.960870
  H      6.075459   -6.414477   -1.304671
  C      5.976764   -2.944571    2.875113
  O      5.492957   -1.661611    2.561883
  H      5.915873   -1.521271    1.681005
  H      7.009396   -2.873774    3.214714
  H      5.431324   -3.376674    3.701166
  H      5.992161   -3.649090    2.055239

 Multiplicity           Mult            ....    1
 Number of Electrons    NEL             ....   18
 Basis Dimension        Dim             ....  172

ORBITAL ENERGIES
----------------

  NO   OCC          E(Eh)            E(eV)
   0   2.0000     -19.236050      -523.4395
   1   2.0000     -10.308081      -280.4971
   2   2.0000      -1.139322       -31.0025
   3   2.0000      -0.793095       -21.5812
   4   2.0000      -0.611746       -16.6465
   5   2.0000      -0.539695       -14.6859
   6   2.0000      -0.528403       -14.3786
   7   2.0000      -0.444754       -12.1024
   8   2.0000      -0.371960       -10.1216
   9   0.0000       0.078849         2.1456
  10   0.0000       0.112991         3.0747
  11   0.0000       0.152915         4.1610
  12   0.0000       0.169547         4.6136
  13   0.0000       0.187205         5.0941

MULLIKEN ATOMIC CHARGES
-----------------------
   0 C :   -0.000122
   1 O :    0.001822
   2 H :    0.000292
   3 H :   -0.000038
   4 H :    0.000003
   5 H :    0.000001
   6 C :   -0.165173
   7 O :   -0.460311
   8 H :    0.316661
   9 H :    0.100964
  10 H :    0.117230
  11 H :    0.088672
Sum of atomic charges:    0.0000000

LOEWDIN ATOMIC CHARGES
----------------------
   0 C :   -0.000786
   1 O :   -0.008577
   2 H :   -0.001047
   3 H :   -0.000047
   4 H :   -0.000021
   5 H :   -0.000018
   6 C :   -0.396518
   7 O :   -0.078630
   8 H :    0.190958
   9 H :    0.093861
  10 H :    0.105285
  11 H :    0.095543

  Mayer bond orders larger than 0.1
B(  6-C ,  7-O ) :   1.0030 B(  6-C ,  9-H ) :   0.9808 B(  6-C , 10-H ) :   0.9766
B(  6-C , 11-H ) :   0.9776 B(  7-O ,  8-H ) :   0.8984

Dispersion correction           -0.000219968
FINAL SINGLE POINT ENERGY      -115.733201065947

DIPOLE MOMENT
-------------
                                X             Y             Z
Electronic contribution:     -0.82975       1.69475      -0.30343
Nuclear contribution   :      1.26500      -2.10147      -0.11073
                        -----------------------------------------
Total Dipole Moment    :      0.43525      -0.40673      -0.41416
                        -----------------------------------------
Magnitude (a.u.)       :      0.72553
Magnitude (Debye)      :      1.84416

Rotational constants in cm-1:     4.299517     0.847213     0.808680
Rotational constants in MHz : 128896.273107 25398.804923 24243.618052

                             ****ORCA TERMINATED NORMALLY****
TOTAL RUN TIME: 0 days 0 hours 1 minutes 3 seconds 428 msec
