                         Program Version 4.1.2  - RELEASE  -
|  1> #Run DFT-D3 single point of the dimer
|  2> ! wB97X-D3 def2-TZVP TIGHTSCF CHELPG PMODEL PAL8
|  3>
|  4> %base "9-58_DFT_AB"
|  5>
|  6> %scf
|  7> MaxIter 1000
|  8> end
|  9>
| 10> * xyz 0 1
| 11>   C                      11.104101            1.379980             -2.789674
| 12>   O                      10.501086            1.573904             -4.084412
| 13>   H                      10.985737            2.266012             -4.552232
| 14>   H                      12.067943            1.871421             -2.666359
| 15>   H                      10.426387            1.644756             -2.008202
| 16>   H                      11.529797            0.348971             -2.652523
| 17>   C                      10.068561            -3.208010            -3.177799
| 18>   O                      9.310852             -4.300594            -3.592050
| 19>   H                      8.967328             -4.079463            -4.439330
| 20>   H                      10.890299            -3.065571            -3.831773
| 21>   H                      9.479196             -2.275013            -3.274973
| 22>   H                      10.390322            -3.248299            -2.115350
| 23> *
| 24>
| 25> #Run DFT-D3 single point of the molecule with dimer basis set
| 26> $new_job
| 27> %base "9-58_DFT_A"
| 28> ! wB97X-D3 def2-TZVP TIGHTSCF CHELPG PMODEL
| 29>
| 30> %scf
| 31> MaxIter 1000
| 32> end
| 33>
| 34> * xyz 0 1
| 35>   C                      11.104101            1.379980             -2.789674
| 36>   O                      10.501086            1.573904             -4.084412
| 37>   H                      10.985737            2.266012             -4.552232
| 38>   H                      12.067943            1.871421             -2.666359
| 39>   H                      10.426387            1.644756             -2.008202
| 40>   H                      11.529797            0.348971             -2.652523
| 41>   C                    : 10.068561            -3.208010            -3.177799
| 42>   O                    : 9.310852             -4.300594            -3.592050
| 43>   H                    : 8.967328             -4.079463            -4.439330
| 44>   H                    : 10.890299            -3.065571            -3.831773
| 45>   H                    : 9.479196             -2.275013            -3.274973
| 46>   H                    : 10.390322            -3.248299            -2.115350
| 47> *
| 48>
| 49> #Run DFT-D3 single point of the particle with dimer basis set
| 50> $new_job
| 51> %base "9-58_DFT_B"
| 52> ! wB97X-D3 def2-TZVP TIGHTSCF CHELPG PMODEL
| 53>
| 54> %scf
| 55> MaxIter 1000
| 56> end
| 57>
| 58> * xyz 0 1
| 59>   C                    : 11.104101            1.379980             -2.789674
| 60>   O                    : 10.501086            1.573904             -4.084412
| 61>   H                    : 10.985737            2.266012             -4.552232
| 62>   H                    : 12.067943            1.871421             -2.666359
| 63>   H                    : 10.426387            1.644756             -2.008202
| 64>   H                    : 11.529797            0.348971             -2.652523
| 65>   C                      10.068561            -3.208010            -3.177799
| 66>   O                      9.310852             -4.300594            -3.592050
| 67>   H                      8.967328             -4.079463            -4.439330
| 68>   H                      10.890299            -3.065571            -3.831773
| 69>   H                      9.479196             -2.275013            -3.274973
| 70>   H                      10.390322            -3.248299            -2.115350
| 71> *
| 72>
| 73>                          ****END OF INPUT****
 Total Charge           Charge          ....    0
 Multiplicity           Mult            ....    1
 Number of Electrons    NEL             ....   36
Dispersion correction           -0.000960556
FINAL SINGLE POINT ENERGY      -231.463170369299
Dispersion correction           -0.000272351
FINAL SINGLE POINT ENERGY      -115.729187188487

CARTESIAN COORDINATES (ANGSTROEM)
---------------------------------
  C     11.104101    1.379980   -2.789674
  O     10.501086    1.573904   -4.084412
  H     10.985737    2.266012   -4.552232
  H     12.067943    1.871421   -2.666359
  H     10.426387    1.644756   -2.008202
  H     11.529797    0.348971   -2.652523
  C     10.068561   -3.208010   -3.177799
  O      9.310852   -4.300594   -3.592050
  H      8.967328   -4.079463   -4.439330
  H     10.890299   -3.065571   -3.831773
  H      9.479196   -2.275013   -3.274973
  H     10.390322   -3.248299   -2.115350

 Multiplicity           Mult            ....    1
 Number of Electrons    NEL             ....   18
 Basis Dimension        Dim             ....  172

ORBITAL ENERGIES
----------------

  NO   OCC          E(Eh)            E(eV)
   0   2.0000     -19.228121      -523.2238
   1   2.0000     -10.311037      -280.5776
   2   2.0000      -1.148097       -31.2413
   3   2.0000      -0.795768       -21.6540
   4   2.0000      -0.618967       -16.8429
   5   2.0000      -0.546157       -14.8617
   6   2.0000      -0.530592       -14.4382
   7   2.0000      -0.434593       -11.8259
   8   2.0000      -0.371114       -10.0985
   9   0.0000       0.080756         2.1975
  10   0.0000       0.117038         3.1848
  11   0.0000       0.144051         3.9198
  12   0.0000       0.167892         4.5686
  13   0.0000       0.182523         4.9667

MULLIKEN ATOMIC CHARGES
-----------------------
   0 C :   -0.000404
   1 O :    0.000056
   2 H :    0.000003
   3 H :   -0.000013
   4 H :    0.000034
   5 H :    0.000080
   6 C :   -0.162196
   7 O :   -0.468280
   8 H :    0.314044
   9 H :    0.102328
  10 H :    0.094167
  11 H :    0.120184
Sum of atomic charges:    0.0000000

LOEWDIN ATOMIC CHARGES
----------------------
   0 C :   -0.000493
   1 O :   -0.000025
   2 H :   -0.000002
   3 H :   -0.000008
   4 H :   -0.000016
   5 H :   -0.000267
   6 C :   -0.400542
   7 O :   -0.053764
   8 H :    0.160469
   9 H :    0.086146
  10 H :    0.095499
  11 H :    0.113002

  Mayer bond orders larger than 0.1
B(  6-C ,  7-O ) :   0.9955 B(  6-C ,  9-H ) :   0.9787 B(  6-C , 10-H ) :   0.9847
B(  6-C , 11-H ) :   0.9693 B(  7-O ,  8-H ) :   0.9015

Dispersion correction           -0.000215799
FINAL SINGLE POINT ENERGY      -115.733020249735

DIPOLE MOMENT
-------------
                                X             Y             Z
Electronic contribution:     -0.88982      -1.60511      -0.37818
Nuclear contribution   :      0.96573       2.17334      -0.00572
                        -----------------------------------------
Total Dipole Moment    :      0.07591       0.56823      -0.38389
                        -----------------------------------------
Magnitude (a.u.)       :      0.68994
Magnitude (Debye)      :      1.75370

Rotational constants in cm-1:     4.364540     0.856077     0.818987
Rotational constants in MHz : 130845.620266 25664.536591 24552.603245

                             ****ORCA TERMINATED NORMALLY****
TOTAL RUN TIME: 0 days 0 hours 0 minutes 43 seconds 923 msec
