                         Program Version 4.1.2  - RELEASE  -
|  1> #Run DFT-D3 single point of the dimer
|  2> ! wB97X-D3 def2-TZVP TIGHTSCF CHELPG PMODEL PAL8
|  3>
|  4> %base "20-191_DFT_AB"
|  5>
|  6> %scf
|  7> MaxIter 1000
|  8> end
|  9>
| 10> * xyz 0 1
| 11>   C                      -4.759656            -6.190270            -7.004272
| 12>   O                      -5.347243            -5.966209            -5.743579
| 13>   H                      -5.784533            -5.115459            -5.833715
| 14>   H                      -3.736183            -6.582372            -6.809249
| 15>   H                      -5.362966            -6.858422            -7.595193
| 16>   H                      -4.840306            -5.280096            -7.597706
| 17>   C                      -7.345479            -7.913174            -3.648446
| 18>   O                      -7.537338            -7.522742            -4.989362
| 19>   H                      -6.741590            -7.192778            -5.369914
| 20>   H                      -6.759192            -8.841699            -3.530227
| 21>   H                      -6.912197            -7.116349            -3.021945
| 22>   H                      -8.278591            -8.214600            -3.203922
| 23> *
| 24>
| 25> #Run DFT-D3 single point of the molecule with dimer basis set
| 26> $new_job
| 27> %base "20-191_DFT_A"
| 28> ! wB97X-D3 def2-TZVP TIGHTSCF CHELPG PMODEL
| 29>
| 30> %scf
| 31> MaxIter 1000
| 32> end
| 33>
| 34> * xyz 0 1
| 35>   C                      -4.759656            -6.190270            -7.004272
| 36>   O                      -5.347243            -5.966209            -5.743579
| 37>   H                      -5.784533            -5.115459            -5.833715
| 38>   H                      -3.736183            -6.582372            -6.809249
| 39>   H                      -5.362966            -6.858422            -7.595193
| 40>   H                      -4.840306            -5.280096            -7.597706
| 41>   C                    : -7.345479            -7.913174            -3.648446
| 42>   O                    : -7.537338            -7.522742            -4.989362
| 43>   H                    : -6.741590            -7.192778            -5.369914
| 44>   H                    : -6.759192            -8.841699            -3.530227
| 45>   H                    : -6.912197            -7.116349            -3.021945
| 46>   H                    : -8.278591            -8.214600            -3.203922
| 47> *
| 48>
| 49> #Run DFT-D3 single point of the particle with dimer basis set
| 50> $new_job
| 51> %base "20-191_DFT_B"
| 52> ! wB97X-D3 def2-TZVP TIGHTSCF CHELPG PMODEL
| 53>
| 54> %scf
| 55> MaxIter 1000
| 56> end
| 57>
| 58> * xyz 0 1
| 59>   C                    : -4.759656            -6.190270            -7.004272
| 60>   O                    : -5.347243            -5.966209            -5.743579
| 61>   H                    : -5.784533            -5.115459            -5.833715
| 62>   H                    : -3.736183            -6.582372            -6.809249
| 63>   H                    : -5.362966            -6.858422            -7.595193
| 64>   H                    : -4.840306            -5.280096            -7.597706
| 65>   C                      -7.345479            -7.913174            -3.648446
| 66>   O                      -7.537338            -7.522742            -4.989362
| 67>   H                      -6.741590            -7.192778            -5.369914
| 68>   H                      -6.759192            -8.841699            -3.530227
| 69>   H                      -6.912197            -7.116349            -3.021945
| 70>   H                      -8.278591            -8.214600            -3.203922
| 71> *
| 72>
| 73>                          ****END OF INPUT****
 Total Charge           Charge          ....    0
 Multiplicity           Mult            ....    1
 Number of Electrons    NEL             ....   36
Dispersion correction           -0.001710910
FINAL SINGLE POINT ENERGY      -231.474610730841
Dispersion correction           -0.000221862
FINAL SINGLE POINT ENERGY      -115.731271239651

CARTESIAN COORDINATES (ANGSTROEM)
---------------------------------
  C     -4.759656   -6.190270   -7.004272
  O     -5.347243   -5.966209   -5.743579
  H     -5.784533   -5.115459   -5.833715
  H     -3.736183   -6.582372   -6.809249
  H     -5.362966   -6.858422   -7.595193
  H     -4.840306   -5.280096   -7.597706
  C     -7.345479   -7.913174   -3.648446
  O     -7.537338   -7.522742   -4.989362
  H     -6.741590   -7.192778   -5.369914
  H     -6.759192   -8.841699   -3.530227
  H     -6.912197   -7.116349   -3.021945
  H     -8.278591   -8.214600   -3.203922

 Multiplicity           Mult            ....    1
 Number of Electrons    NEL             ....   18
 Basis Dimension        Dim             ....  172

ORBITAL ENERGIES
----------------

  NO   OCC          E(Eh)            E(eV)
   0   2.0000     -19.230493      -523.2883
   1   2.0000     -10.313408      -280.6421
   2   2.0000      -1.139902       -31.0183
   3   2.0000      -0.800936       -21.7946
   4   2.0000      -0.614695       -16.7267
   5   2.0000      -0.543902       -14.8003
   6   2.0000      -0.527838       -14.3632
   7   2.0000      -0.429638       -11.6911
   8   2.0000      -0.375889       -10.2285
   9   0.0000       0.072777         1.9804
  10   0.0000       0.133763         3.6399
  11   0.0000       0.155999         4.2450
  12   0.0000       0.169401         4.6096
  13   0.0000       0.188938         5.1413

MULLIKEN ATOMIC CHARGES
-----------------------
   0 C :   -0.002191
   1 O :   -0.005104
   2 H :   -0.001616
   3 H :    0.000238
   4 H :   -0.000243
   5 H :    0.000057
   6 C :   -0.159191
   7 O :   -0.471166
   8 H :    0.315729
   9 H :    0.099259
  10 H :    0.105077
  11 H :    0.119150
Sum of atomic charges:   -0.0000000

LOEWDIN ATOMIC CHARGES
----------------------
   0 C :   -0.004979
   1 O :   -0.022034
   2 H :   -0.002921
   3 H :   -0.000078
   4 H :   -0.000876
   5 H :   -0.000091
   6 C :   -0.388044
   7 O :   -0.047528
   8 H :    0.166749
   9 H :    0.096550
  10 H :    0.097753
  11 H :    0.105500

  Mayer bond orders larger than 0.1
B(  6-C ,  7-O ) :   0.9968 B(  6-C ,  9-H ) :   0.9761 B(  6-C , 10-H ) :   0.9735
B(  6-C , 11-H ) :   0.9750 B(  7-O ,  8-H ) :   0.9047

Dispersion correction           -0.000258878
FINAL SINGLE POINT ENERGY      -115.735679711672

DIPOLE MOMENT
-------------
                                X             Y             Z
Electronic contribution:     -0.36100       0.53795      -1.76568
Nuclear contribution   :      0.92393      -0.49323       2.06641
                        -----------------------------------------
Total Dipole Moment    :      0.56292       0.04472       0.30073
                        -----------------------------------------
Magnitude (a.u.)       :      0.63978
Magnitude (Debye)      :      1.62620

Rotational constants in cm-1:     4.457613     0.821940     0.798960
Rotational constants in MHz : 133635.881033 24641.145154 23952.233204

                             ****ORCA TERMINATED NORMALLY****
TOTAL RUN TIME: 0 days 0 hours 1 minutes 9 seconds 387 msec
