                         Program Version 4.1.2  - RELEASE  -
|  1> #Run DFT-D3 single point of the dimer
|  2> ! wB97X-D3 def2-TZVP TIGHTSCF CHELPG PMODEL PAL8
|  3>
|  4> %base "9-74_DFT_AB"
|  5>
|  6> %scf
|  7> MaxIter 1000
|  8> end
|  9>
| 10> * xyz 0 1
| 11>   C                      -6.988085            5.917320             -1.756806
| 12>   O                      -5.841079            5.346315             -1.198149
| 13>   H                      -6.238028            4.725105             -0.596400
| 14>   H                      -7.469596            5.138823             -2.402609
| 15>   H                      -7.670168            6.304700             -1.043612
| 16>   H                      -6.732474            6.712058             -2.340388
| 17>   C                      -5.056834            8.556647             -5.709782
| 18>   O                      -4.640371            9.264415             -4.651773
| 19>   H                      -4.099275            9.889459             -5.076227
| 20>   H                      -5.362481            7.502575             -5.460635
| 21>   H                      -5.837952            9.045678             -6.321058
| 22>   H                      -4.262423            8.393037             -6.352012
| 23> *
| 24>
| 25> #Run DFT-D3 single point of the molecule with dimer basis set
| 26> $new_job
| 27> %base "9-74_DFT_A"
| 28> ! wB97X-D3 def2-TZVP TIGHTSCF CHELPG PMODEL
| 29>
| 30> %scf
| 31> MaxIter 1000
| 32> end
| 33>
| 34> * xyz 0 1
| 35>   C                      -6.988085            5.917320             -1.756806
| 36>   O                      -5.841079            5.346315             -1.198149
| 37>   H                      -6.238028            4.725105             -0.596400
| 38>   H                      -7.469596            5.138823             -2.402609
| 39>   H                      -7.670168            6.304700             -1.043612
| 40>   H                      -6.732474            6.712058             -2.340388
| 41>   C                    : -5.056834            8.556647             -5.709782
| 42>   O                    : -4.640371            9.264415             -4.651773
| 43>   H                    : -4.099275            9.889459             -5.076227
| 44>   H                    : -5.362481            7.502575             -5.460635
| 45>   H                    : -5.837952            9.045678             -6.321058
| 46>   H                    : -4.262423            8.393037             -6.352012
| 47> *
| 48>
| 49> #Run DFT-D3 single point of the particle with dimer basis set
| 50> $new_job
| 51> %base "9-74_DFT_B"
| 52> ! wB97X-D3 def2-TZVP TIGHTSCF CHELPG PMODEL
| 53>
| 54> %scf
| 55> MaxIter 1000
| 56> end
| 57>
| 58> * xyz 0 1
| 59>   C                    : -6.988085            5.917320             -1.756806
| 60>   O                    : -5.841079            5.346315             -1.198149
| 61>   H                    : -6.238028            4.725105             -0.596400
| 62>   H                    : -7.469596            5.138823             -2.402609
| 63>   H                    : -7.670168            6.304700             -1.043612
| 64>   H                    : -6.732474            6.712058             -2.340388
| 65>   C                      -5.056834            8.556647             -5.709782
| 66>   O                      -4.640371            9.264415             -4.651773
| 67>   H                      -4.099275            9.889459             -5.076227
| 68>   H                      -5.362481            7.502575             -5.460635
| 69>   H                      -5.837952            9.045678             -6.321058
| 70>   H                      -4.262423            8.393037             -6.352012
| 71> *
| 72>
| 73>                          ****END OF INPUT****
 Total Charge           Charge          ....    0
 Multiplicity           Mult            ....    1
 Number of Electrons    NEL             ....   36
Dispersion correction           -0.000709950
FINAL SINGLE POINT ENERGY      -231.452841407214
Dispersion correction           -0.000197776
FINAL SINGLE POINT ENERGY      -115.729156742799

CARTESIAN COORDINATES (ANGSTROEM)
---------------------------------
  C     -6.988085    5.917320   -1.756806
  O     -5.841079    5.346315   -1.198149
  H     -6.238028    4.725105   -0.596400
  H     -7.469596    5.138823   -2.402609
  H     -7.670168    6.304700   -1.043612
  H     -6.732474    6.712058   -2.340388
  C     -5.056834    8.556647   -5.709782
  O     -4.640371    9.264415   -4.651773
  H     -4.099275    9.889459   -5.076227
  H     -5.362481    7.502575   -5.460635
  H     -5.837952    9.045678   -6.321058
  H     -4.262423    8.393037   -6.352012

 Multiplicity           Mult            ....    1
 Number of Electrons    NEL             ....   18
 Basis Dimension        Dim             ....  172

ORBITAL ENERGIES
----------------

  NO   OCC          E(Eh)            E(eV)
   0   2.0000     -19.230835      -523.2976
   1   2.0000     -10.305191      -280.4185
   2   2.0000      -1.175901       -31.9979
   3   2.0000      -0.793590       -21.5947
   4   2.0000      -0.634723       -17.2717
   5   2.0000      -0.555656       -15.1202
   6   2.0000      -0.536982       -14.6120
   7   2.0000      -0.432311       -11.7638
   8   2.0000      -0.373354       -10.1595
   9   0.0000       0.091545         2.4911
  10   0.0000       0.116546         3.1714
  11   0.0000       0.156767         4.2658
  12   0.0000       0.172324         4.6892
  13   0.0000       0.189836         5.1657

MULLIKEN ATOMIC CHARGES
-----------------------
   0 C :   -0.000385
   1 O :    0.000001
   2 H :   -0.000001
   3 H :    0.000017
   4 H :    0.000005
   5 H :    0.000296
   6 C :   -0.164934
   7 O :   -0.437388
   8 H :    0.312765
   9 H :    0.103317
  10 H :    0.085147
  11 H :    0.101161
Sum of atomic charges:    0.0000000

LOEWDIN ATOMIC CHARGES
----------------------
   0 C :   -0.000134
   1 O :   -0.000003
   2 H :   -0.000000
   3 H :   -0.000011
   4 H :   -0.000001
   5 H :   -0.000114
   6 C :   -0.449346
   7 O :   -0.000504
   8 H :    0.163893
   9 H :    0.112132
  10 H :    0.092828
  11 H :    0.081260

  Mayer bond orders larger than 0.1
B(  6-C ,  7-O ) :   1.0102 B(  6-C ,  9-H ) :   0.9727 B(  6-C , 10-H ) :   0.9724
B(  6-C , 11-H ) :   0.9932 B(  7-O ,  8-H ) :   0.9064

Dispersion correction           -0.000193041
FINAL SINGLE POINT ENERGY      -115.723413283439

DIPOLE MOMENT
-------------
                                X             Y             Z
Electronic contribution:      0.48584       0.96945       1.64026
Nuclear contribution   :     -0.23204      -0.82575      -2.27857
                        -----------------------------------------
Total Dipole Moment    :      0.25380       0.14370      -0.63831
                        -----------------------------------------
Magnitude (a.u.)       :      0.70178
Magnitude (Debye)      :      1.78379

Rotational constants in cm-1:     4.426759     0.912996     0.878351
Rotational constants in MHz : 132710.902650 27370.922494 26332.308718

                             ****ORCA TERMINATED NORMALLY****
TOTAL RUN TIME: 0 days 0 hours 0 minutes 41 seconds 642 msec
