                         Program Version 4.1.2  - RELEASE  -
|  1> #Run DFT-D3 single point of the dimer
|  2> ! wB97X-D3 def2-TZVP TIGHTSCF CHELPG PMODEL PAL8
|  3>
|  4> %base "9-206_DFT_AB"
|  5>
|  6> %scf
|  7> MaxIter 1000
|  8> end
|  9>
| 10> * xyz 0 1
| 11>   C                      1.711450             -2.320812            7.646247
| 12>   O                      2.272455             -2.607682            6.372565
| 13>   H                      2.541367             -3.494958            6.384661
| 14>   H                      1.660441             -3.176239            8.294267
| 15>   H                      2.251824             -1.474142            8.110296
| 16>   H                      0.626260             -1.930606            7.640705
| 17>   C                      5.169951             -2.392256            4.426165
| 18>   O                      5.050276             -1.626652            5.567194
| 19>   H                      5.002982             -2.195026            6.310976
| 20>   H                      4.576403             -3.364558            4.442787
| 21>   H                      4.923934             -1.717072            3.609020
| 22>   H                      6.212556             -2.725092            4.253027
| 23> *
| 24>
| 25> #Run DFT-D3 single point of the molecule with dimer basis set
| 26> $new_job
| 27> %base "9-206_DFT_A"
| 28> ! wB97X-D3 def2-TZVP TIGHTSCF CHELPG PMODEL
| 29>
| 30> %scf
| 31> MaxIter 1000
| 32> end
| 33>
| 34> * xyz 0 1
| 35>   C                      1.711450             -2.320812            7.646247
| 36>   O                      2.272455             -2.607682            6.372565
| 37>   H                      2.541367             -3.494958            6.384661
| 38>   H                      1.660441             -3.176239            8.294267
| 39>   H                      2.251824             -1.474142            8.110296
| 40>   H                      0.626260             -1.930606            7.640705
| 41>   C                    : 5.169951             -2.392256            4.426165
| 42>   O                    : 5.050276             -1.626652            5.567194
| 43>   H                    : 5.002982             -2.195026            6.310976
| 44>   H                    : 4.576403             -3.364558            4.442787
| 45>   H                    : 4.923934             -1.717072            3.609020
| 46>   H                    : 6.212556             -2.725092            4.253027
| 47> *
| 48>
| 49> #Run DFT-D3 single point of the particle with dimer basis set
| 50> $new_job
| 51> %base "9-206_DFT_B"
| 52> ! wB97X-D3 def2-TZVP TIGHTSCF CHELPG PMODEL
| 53>
| 54> %scf
| 55> MaxIter 1000
| 56> end
| 57>
| 58> * xyz 0 1
| 59>   C                    : 1.711450             -2.320812            7.646247
| 60>   O                    : 2.272455             -2.607682            6.372565
| 61>   H                    : 2.541367             -3.494958            6.384661
| 62>   H                    : 1.660441             -3.176239            8.294267
| 63>   H                    : 2.251824             -1.474142            8.110296
| 64>   H                    : 0.626260             -1.930606            7.640705
| 65>   C                      5.169951             -2.392256            4.426165
| 66>   O                      5.050276             -1.626652            5.567194
| 67>   H                      5.002982             -2.195026            6.310976
| 68>   H                      4.576403             -3.364558            4.442787
| 69>   H                      4.923934             -1.717072            3.609020
| 70>   H                      6.212556             -2.725092            4.253027
| 71> *
| 72>
| 73>                          ****END OF INPUT****
 Total Charge           Charge          ....    0
 Multiplicity           Mult            ....    1
 Number of Electrons    NEL             ....   36
Dispersion correction           -0.001822775
FINAL SINGLE POINT ENERGY      -231.462453852647
Dispersion correction           -0.000266744
FINAL SINGLE POINT ENERGY      -115.730725896067

CARTESIAN COORDINATES (ANGSTROEM)
---------------------------------
  C      1.711450   -2.320812    7.646247
  O      2.272455   -2.607682    6.372565
  H      2.541367   -3.494958    6.384661
  H      1.660441   -3.176239    8.294267
  H      2.251824   -1.474142    8.110296
  H      0.626260   -1.930606    7.640705
  C      5.169951   -2.392256    4.426165
  O      5.050276   -1.626652    5.567194
  H      5.002982   -2.195026    6.310976
  H      4.576403   -3.364558    4.442787
  H      4.923934   -1.717072    3.609020
  H      6.212556   -2.725092    4.253027

 Multiplicity           Mult            ....    1
 Number of Electrons    NEL             ....   18
 Basis Dimension        Dim             ....  172

ORBITAL ENERGIES
----------------

  NO   OCC          E(Eh)            E(eV)
   0   2.0000     -19.230199      -523.2803
   1   2.0000     -10.315804      -280.7073
   2   2.0000      -1.153172       -31.3794
   3   2.0000      -0.794066       -21.6076
   4   2.0000      -0.622734       -16.9455
   5   2.0000      -0.536180       -14.5902
   6   2.0000      -0.532323       -14.4852
   7   2.0000      -0.438141       -11.9224
   8   2.0000      -0.369601       -10.0574
   9   0.0000       0.080019         2.1774
  10   0.0000       0.125638         3.4188
  11   0.0000       0.155041         4.2189
  12   0.0000       0.173533         4.7221
  13   0.0000       0.196663         5.3515

MULLIKEN ATOMIC CHARGES
-----------------------
   0 C :   -0.002360
   1 O :   -0.002756
   2 H :   -0.000471
   3 H :    0.000062
   4 H :   -0.000329
   5 H :    0.000001
   6 C :   -0.157330
   7 O :   -0.458380
   8 H :    0.311757
   9 H :    0.096036
  10 H :    0.119774
  11 H :    0.093994
Sum of atomic charges:   -0.0000000

LOEWDIN ATOMIC CHARGES
----------------------
   0 C :   -0.002104
   1 O :   -0.006550
   2 H :   -0.001770
   3 H :   -0.000030
   4 H :   -0.000430
   5 H :   -0.000032
   6 C :   -0.415983
   7 O :   -0.031724
   8 H :    0.156000
   9 H :    0.100885
  10 H :    0.108765
  11 H :    0.092973

  Mayer bond orders larger than 0.1
B(  6-C ,  7-O ) :   1.0029 B(  6-C ,  9-H ) :   0.9734 B(  6-C , 10-H ) :   0.9769
B(  6-C , 11-H ) :   0.9744 B(  7-O ,  8-H ) :   0.9038

Dispersion correction           -0.000236864
FINAL SINGLE POINT ENERGY      -115.733547782574

DIPOLE MOMENT
-------------
                                X             Y             Z
Electronic contribution:     -0.22697       1.14732       1.44064
Nuclear contribution   :      0.25292      -1.78359      -1.38275
                        -----------------------------------------
Total Dipole Moment    :      0.02595      -0.63627       0.05789
                        -----------------------------------------
Magnitude (a.u.)       :      0.63942
Magnitude (Debye)      :      1.62529

Rotational constants in cm-1:     4.223145     0.868996     0.827108
Rotational constants in MHz : 126606.706400 26051.850895 24796.070069

                             ****ORCA TERMINATED NORMALLY****
TOTAL RUN TIME: 0 days 0 hours 0 minutes 43 seconds 901 msec
