                         Program Version 4.1.2  - RELEASE  -
|  1> #Run DFT-D3 single point of the dimer
|  2> ! wB97X-D3 def2-TZVP TIGHTSCF CHELPG PMODEL PAL8
|  3>
|  4> %base "14-107_DFT_AB"
|  5>
|  6> %scf
|  7> MaxIter 1000
|  8> end
|  9>
| 10> * xyz 0 1
| 11>   C                      -7.605909            2.443021             -5.622041
| 12>   O                      -8.394434            3.474753             -5.066151
| 13>   H                      -8.746984            3.268596             -4.163043
| 14>   H                      -6.908455            2.024404             -4.832031
| 15>   H                      -8.242513            1.688588             -6.000919
| 16>   H                      -7.027775            2.828739             -6.512241
| 17>   C                      -10.153095           2.654705             -1.361434
| 18>   O                      -9.305407            2.119193             -2.346991
| 19>   H                      -9.041517            1.209079             -2.149409
| 20>   H                      -9.846451            2.527660             -0.345899
| 21>   H                      -10.374274           3.691955             -1.601794
| 22>   H                      -11.080361           2.100532             -1.473576
| 23> *
| 24>
| 25> #Run DFT-D3 single point of the molecule with dimer basis set
| 26> $new_job
| 27> %base "14-107_DFT_A"
| 28> ! wB97X-D3 def2-TZVP TIGHTSCF CHELPG PMODEL
| 29>
| 30> %scf
| 31> MaxIter 1000
| 32> end
| 33>
| 34> * xyz 0 1
| 35>   C                      -7.605909            2.443021             -5.622041
| 36>   O                      -8.394434            3.474753             -5.066151
| 37>   H                      -8.746984            3.268596             -4.163043
| 38>   H                      -6.908455            2.024404             -4.832031
| 39>   H                      -8.242513            1.688588             -6.000919
| 40>   H                      -7.027775            2.828739             -6.512241
| 41>   C                    : -10.153095           2.654705             -1.361434
| 42>   O                    : -9.305407            2.119193             -2.346991
| 43>   H                    : -9.041517            1.209079             -2.149409
| 44>   H                    : -9.846451            2.527660             -0.345899
| 45>   H                    : -10.374274           3.691955             -1.601794
| 46>   H                    : -11.080361           2.100532             -1.473576
| 47> *
| 48>
| 49> #Run DFT-D3 single point of the particle with dimer basis set
| 50> $new_job
| 51> %base "14-107_DFT_B"
| 52> ! wB97X-D3 def2-TZVP TIGHTSCF CHELPG PMODEL
| 53>
| 54> %scf
| 55> MaxIter 1000
| 56> end
| 57>
| 58> * xyz 0 1
| 59>   C                    : -7.605909            2.443021             -5.622041
| 60>   O                    : -8.394434            3.474753             -5.066151
| 61>   H                    : -8.746984            3.268596             -4.163043
| 62>   H                    : -6.908455            2.024404             -4.832031
| 63>   H                    : -8.242513            1.688588             -6.000919
| 64>   H                    : -7.027775            2.828739             -6.512241
| 65>   C                      -10.153095           2.654705             -1.361434
| 66>   O                      -9.305407            2.119193             -2.346991
| 67>   H                      -9.041517            1.209079             -2.149409
| 68>   H                      -9.846451            2.527660             -0.345899
| 69>   H                      -10.374274           3.691955             -1.601794
| 70>   H                      -11.080361           2.100532             -1.473576
| 71> *
| 72>
| 73>                          ****END OF INPUT****
 Total Charge           Charge          ....    0
 Multiplicity           Mult            ....    1
 Number of Electrons    NEL             ....   36
Dispersion correction           -0.001549965
FINAL SINGLE POINT ENERGY      -231.472549852280
Dispersion correction           -0.000251405
FINAL SINGLE POINT ENERGY      -115.731616991574

CARTESIAN COORDINATES (ANGSTROEM)
---------------------------------
  C     -7.605909    2.443021   -5.622041
  O     -8.394434    3.474753   -5.066151
  H     -8.746984    3.268596   -4.163043
  H     -6.908455    2.024404   -4.832031
  H     -8.242513    1.688588   -6.000919
  H     -7.027775    2.828739   -6.512241
  C    -10.153095    2.654705   -1.361434
  O     -9.305407    2.119193   -2.346991
  H     -9.041517    1.209079   -2.149409
  H     -9.846451    2.527660   -0.345899
  H    -10.374274    3.691955   -1.601794
  H    -11.080361    2.100532   -1.473576

 Multiplicity           Mult            ....    1
 Number of Electrons    NEL             ....   18
 Basis Dimension        Dim             ....  172

ORBITAL ENERGIES
----------------

  NO   OCC          E(Eh)            E(eV)
   0   2.0000     -19.227340      -523.2025
   1   2.0000     -10.308090      -280.4974
   2   2.0000      -1.133882       -30.8545
   3   2.0000      -0.798832       -21.7373
   4   2.0000      -0.614411       -16.7190
   5   2.0000      -0.541104       -14.7242
   6   2.0000      -0.531724       -14.4689
   7   2.0000      -0.431971       -11.7545
   8   2.0000      -0.368286       -10.0216
   9   0.0000       0.097913         2.6643
  10   0.0000       0.124272         3.3816
  11   0.0000       0.154692         4.2094
  12   0.0000       0.182573         4.9681
  13   0.0000       0.204559         5.5663

MULLIKEN ATOMIC CHARGES
-----------------------
   0 C :    0.001922
   1 O :    0.000250
   2 H :   -0.008479
   3 H :   -0.001953
   4 H :   -0.000688
   5 H :   -0.000142
   6 C :   -0.149606
   7 O :   -0.478372
   8 H :    0.313996
   9 H :    0.103477
  10 H :    0.120877
  11 H :    0.098718
Sum of atomic charges:   -0.0000000

LOEWDIN ATOMIC CHARGES
----------------------
   0 C :   -0.002715
   1 O :   -0.001996
   2 H :   -0.022334
   3 H :   -0.000770
   4 H :   -0.000201
   5 H :   -0.000036
   6 C :   -0.381536
   7 O :   -0.056725
   8 H :    0.171893
   9 H :    0.089071
  10 H :    0.109734
  11 H :    0.095614

  Mayer bond orders larger than 0.1
B(  6-C ,  7-O ) :   0.9867 B(  6-C ,  9-H ) :   0.9674 B(  6-C , 10-H ) :   0.9739
B(  6-C , 11-H ) :   0.9881 B(  7-O ,  8-H ) :   0.8928

Dispersion correction           -0.000232588
FINAL SINGLE POINT ENERGY      -115.733473718143

DIPOLE MOMENT
-------------
                                X             Y             Z
Electronic contribution:      1.17535      -0.48017      -1.19972
Nuclear contribution   :     -1.36098       0.10637       1.73701
                        -----------------------------------------
Total Dipole Moment    :     -0.18563      -0.37380       0.53728
                        -----------------------------------------
Magnitude (a.u.)       :      0.68034
Magnitude (Debye)      :      1.72928

Rotational constants in cm-1:     4.405134     0.842215     0.807334
Rotational constants in MHz : 132062.581724 25248.955844 24203.272023

                             ****ORCA TERMINATED NORMALLY****
TOTAL RUN TIME: 0 days 0 hours 0 minutes 58 seconds 943 msec
