                         Program Version 4.1.2  - RELEASE  -
|  1> #Run DFT-D3 single point of the dimer
|  2> ! wB97X-D3 def2-TZVP TIGHTSCF CHELPG PMODEL PAL8
|  3>
|  4> %base "18-76_DFT_AB"
|  5>
|  6> %scf
|  7> MaxIter 1000
|  8> end
|  9>
| 10> * xyz 0 1
| 11>   C                      1.357016             -4.144993            -10.981236
| 12>   O                      0.027472             -4.230226            -11.449429
| 13>   H                      -0.609732            -4.116617            -10.744449
| 14>   H                      1.503885             -3.179850            -10.444601
| 15>   H                      1.556631             -4.875398            -10.229939
| 16>   H                      2.132881             -4.103547            -11.830028
| 17>   C                      0.154368             -7.498168            -11.338098
| 18>   O                      -0.734079            -8.589698            -11.555321
| 19>   H                      -1.201636            -8.865290            -10.766367
| 20>   H                      0.382907             -6.985772            -12.319750
| 21>   H                      -0.275208            -6.693742            -10.720403
| 22>   H                      1.032038             -7.859700            -10.800352
| 23> *
| 24>
| 25> #Run DFT-D3 single point of the molecule with dimer basis set
| 26> $new_job
| 27> %base "18-76_DFT_A"
| 28> ! wB97X-D3 def2-TZVP TIGHTSCF CHELPG PMODEL
| 29>
| 30> %scf
| 31> MaxIter 1000
| 32> end
| 33>
| 34> * xyz 0 1
| 35>   C                      1.357016             -4.144993            -10.981236
| 36>   O                      0.027472             -4.230226            -11.449429
| 37>   H                      -0.609732            -4.116617            -10.744449
| 38>   H                      1.503885             -3.179850            -10.444601
| 39>   H                      1.556631             -4.875398            -10.229939
| 40>   H                      2.132881             -4.103547            -11.830028
| 41>   C                    : 0.154368             -7.498168            -11.338098
| 42>   O                    : -0.734079            -8.589698            -11.555321
| 43>   H                    : -1.201636            -8.865290            -10.766367
| 44>   H                    : 0.382907             -6.985772            -12.319750
| 45>   H                    : -0.275208            -6.693742            -10.720403
| 46>   H                    : 1.032038             -7.859700            -10.800352
| 47> *
| 48>
| 49> #Run DFT-D3 single point of the particle with dimer basis set
| 50> $new_job
| 51> %base "18-76_DFT_B"
| 52> ! wB97X-D3 def2-TZVP TIGHTSCF CHELPG PMODEL
| 53>
| 54> %scf
| 55> MaxIter 1000
| 56> end
| 57>
| 58> * xyz 0 1
| 59>   C                    : 1.357016             -4.144993            -10.981236
| 60>   O                    : 0.027472             -4.230226            -11.449429
| 61>   H                    : -0.609732            -4.116617            -10.744449
| 62>   H                    : 1.503885             -3.179850            -10.444601
| 63>   H                    : 1.556631             -4.875398            -10.229939
| 64>   H                    : 2.132881             -4.103547            -11.830028
| 65>   C                      0.154368             -7.498168            -11.338098
| 66>   O                      -0.734079            -8.589698            -11.555321
| 67>   H                      -1.201636            -8.865290            -10.766367
| 68>   H                      0.382907             -6.985772            -12.319750
| 69>   H                      -0.275208            -6.693742            -10.720403
| 70>   H                      1.032038             -7.859700            -10.800352
| 71> *
| 72>
| 73>                          ****END OF INPUT****
 Total Charge           Charge          ....    0
 Multiplicity           Mult            ....    1
 Number of Electrons    NEL             ....   36
Dispersion correction           -0.002030516
FINAL SINGLE POINT ENERGY      -231.465745766297
Dispersion correction           -0.000247279
FINAL SINGLE POINT ENERGY      -115.731404311440

CARTESIAN COORDINATES (ANGSTROEM)
---------------------------------
  C      1.357016   -4.144993  -10.981236
  O      0.027472   -4.230226  -11.449429
  H     -0.609732   -4.116617  -10.744449
  H      1.503885   -3.179850  -10.444601
  H      1.556631   -4.875398  -10.229939
  H      2.132881   -4.103547  -11.830028
  C      0.154368   -7.498168  -11.338098
  O     -0.734079   -8.589698  -11.555321
  H     -1.201636   -8.865290  -10.766367
  H      0.382907   -6.985772  -12.319750
  H     -0.275208   -6.693742  -10.720403
  H      1.032038   -7.859700  -10.800352

 Multiplicity           Mult            ....    1
 Number of Electrons    NEL             ....   18
 Basis Dimension        Dim             ....  172

ORBITAL ENERGIES
----------------

  NO   OCC          E(Eh)            E(eV)
   0   2.0000     -19.227310      -523.2017
   1   2.0000     -10.318724      -280.7867
   2   2.0000      -1.129642       -30.7391
   3   2.0000      -0.794995       -21.6329
   4   2.0000      -0.610750       -16.6194
   5   2.0000      -0.544083       -14.8053
   6   2.0000      -0.517874       -14.0921
   7   2.0000      -0.426322       -11.6008
   8   2.0000      -0.373039       -10.1509
   9   0.0000       0.081842         2.2270
  10   0.0000       0.117030         3.1846
  11   0.0000       0.157971         4.2986
  12   0.0000       0.159520         4.3408
  13   0.0000       0.179206         4.8764

MULLIKEN ATOMIC CHARGES
-----------------------
   0 C :    0.000271
   1 O :   -0.001639
   2 H :   -0.000444
   3 H :   -0.000029
   4 H :   -0.001357
   5 H :   -0.000025
   6 C :   -0.157351
   7 O :   -0.486206
   8 H :    0.316781
   9 H :    0.120140
  10 H :    0.105433
  11 H :    0.104427
Sum of atomic charges:    0.0000000

LOEWDIN ATOMIC CHARGES
----------------------
   0 C :   -0.006408
   1 O :   -0.005123
   2 H :   -0.002338
   3 H :   -0.000044
   4 H :   -0.001970
   5 H :   -0.000146
   6 C :   -0.377355
   7 O :   -0.085092
   8 H :    0.163982
   9 H :    0.119327
  10 H :    0.099710
  11 H :    0.095453

  Mayer bond orders larger than 0.1
B(  6-C ,  7-O ) :   0.9979 B(  6-C ,  9-H ) :   0.9692 B(  6-C , 10-H ) :   0.9751
B(  6-C , 11-H ) :   0.9706 B(  7-O ,  8-H ) :   0.8947

Dispersion correction           -0.000260775
FINAL SINGLE POINT ENERGY      -115.733728716224

DIPOLE MOMENT
-------------
                                X             Y             Z
Electronic contribution:     -1.05879      -1.42229      -0.40616
Nuclear contribution   :      1.10132       1.69964       1.01649
                        -----------------------------------------
Total Dipole Moment    :      0.04253       0.27735       0.61033
                        -----------------------------------------
Magnitude (a.u.)       :      0.67174
Magnitude (Debye)      :      1.70743

Rotational constants in cm-1:     4.279303     0.812451     0.784501
Rotational constants in MHz : 128290.263651 24356.657557 23518.758947

                             ****ORCA TERMINATED NORMALLY****
TOTAL RUN TIME: 0 days 0 hours 1 minutes 5 seconds 160 msec
