                         Program Version 4.1.2  - RELEASE  -
|  1> #Run DFT-D3 single point of the dimer
|  2> ! wB97X-D3 def2-TZVP TIGHTSCF CHELPG PMODEL PAL8
|  3>
|  4> %base "22-63_DFT_AB"
|  5>
|  6> %scf
|  7> MaxIter 1000
|  8> end
|  9>
| 10> * xyz 0 1
| 11>   C                      7.094991             -5.874388            4.295036
| 12>   O                      6.607568             -5.115187            5.413430
| 13>   H                      6.014298             -4.411971            5.145993
| 14>   H                      6.600203             -5.667700            3.315345
| 15>   H                      8.165961             -5.827261            4.147364
| 16>   H                      6.868536             -6.907309            4.499651
| 17>   C                      7.695051             -7.276950            0.412980
| 18>   O                      8.970194             -6.688546            0.221901
| 19>   H                      8.750554             -5.892536            -0.340025
| 20>   H                      7.752044             -8.187793            1.079230
| 21>   H                      6.997280             -6.546783            0.831304
| 22>   H                      7.280716             -7.647085            -0.589028
| 23> *
| 24>
| 25> #Run DFT-D3 single point of the molecule with dimer basis set
| 26> $new_job
| 27> %base "22-63_DFT_A"
| 28> ! wB97X-D3 def2-TZVP TIGHTSCF CHELPG PMODEL
| 29>
| 30> %scf
| 31> MaxIter 1000
| 32> end
| 33>
| 34> * xyz 0 1
| 35>   C                      7.094991             -5.874388            4.295036
| 36>   O                      6.607568             -5.115187            5.413430
| 37>   H                      6.014298             -4.411971            5.145993
| 38>   H                      6.600203             -5.667700            3.315345
| 39>   H                      8.165961             -5.827261            4.147364
| 40>   H                      6.868536             -6.907309            4.499651
| 41>   C                    : 7.695051             -7.276950            0.412980
| 42>   O                    : 8.970194             -6.688546            0.221901
| 43>   H                    : 8.750554             -5.892536            -0.340025
| 44>   H                    : 7.752044             -8.187793            1.079230
| 45>   H                    : 6.997280             -6.546783            0.831304
| 46>   H                    : 7.280716             -7.647085            -0.589028
| 47> *
| 48>
| 49> #Run DFT-D3 single point of the particle with dimer basis set
| 50> $new_job
| 51> %base "22-63_DFT_B"
| 52> ! wB97X-D3 def2-TZVP TIGHTSCF CHELPG PMODEL
| 53>
| 54> %scf
| 55> MaxIter 1000
| 56> end
| 57>
| 58> * xyz 0 1
| 59>   C                    : 7.094991             -5.874388            4.295036
| 60>   O                    : 6.607568             -5.115187            5.413430
| 61>   H                    : 6.014298             -4.411971            5.145993
| 62>   H                    : 6.600203             -5.667700            3.315345
| 63>   H                    : 8.165961             -5.827261            4.147364
| 64>   H                    : 6.868536             -6.907309            4.499651
| 65>   C                      7.695051             -7.276950            0.412980
| 66>   O                      8.970194             -6.688546            0.221901
| 67>   H                      8.750554             -5.892536            -0.340025
| 68>   H                      7.752044             -8.187793            1.079230
| 69>   H                      6.997280             -6.546783            0.831304
| 70>   H                      7.280716             -7.647085            -0.589028
| 71> *
| 72>
| 73>                          ****END OF INPUT****
 Total Charge           Charge          ....    0
 Multiplicity           Mult            ....    1
 Number of Electrons    NEL             ....   36
Dispersion correction           -0.001310800
FINAL SINGLE POINT ENERGY      -231.465732639646
Dispersion correction           -0.000278292
FINAL SINGLE POINT ENERGY      -115.733023931246

CARTESIAN COORDINATES (ANGSTROEM)
---------------------------------
  C      7.094991   -5.874388    4.295036
  O      6.607568   -5.115187    5.413430
  H      6.014298   -4.411971    5.145993
  H      6.600203   -5.667700    3.315345
  H      8.165961   -5.827261    4.147364
  H      6.868536   -6.907309    4.499651
  C      7.695051   -7.276950    0.412980
  O      8.970194   -6.688546    0.221901
  H      8.750554   -5.892536   -0.340025
  H      7.752044   -8.187793    1.079230
  H      6.997280   -6.546783    0.831304
  H      7.280716   -7.647085   -0.589028

 Multiplicity           Mult            ....    1
 Number of Electrons    NEL             ....   18
 Basis Dimension        Dim             ....  172

ORBITAL ENERGIES
----------------

  NO   OCC          E(Eh)            E(eV)
   0   2.0000     -19.236077      -523.4403
   1   2.0000     -10.322832      -280.8985
   2   2.0000      -1.133001       -30.8305
   3   2.0000      -0.782764       -21.3001
   4   2.0000      -0.604059       -16.4373
   5   2.0000      -0.539046       -14.6682
   6   2.0000      -0.523376       -14.2418
   7   2.0000      -0.436613       -11.8808
   8   2.0000      -0.371683       -10.1140
   9   0.0000       0.084724         2.3055
  10   0.0000       0.112550         3.0626
  11   0.0000       0.147734         4.0200
  12   0.0000       0.171149         4.6572
  13   0.0000       0.184552         5.0219

MULLIKEN ATOMIC CHARGES
-----------------------
   0 C :    0.000640
   1 O :    0.000030
   2 H :    0.000008
   3 H :    0.000222
   4 H :   -0.000422
   5 H :   -0.000203
   6 C :   -0.180321
   7 O :   -0.463564
   8 H :    0.316959
   9 H :    0.119257
  10 H :    0.109416
  11 H :    0.097979
Sum of atomic charges:   -0.0000000

LOEWDIN ATOMIC CHARGES
----------------------
   0 C :   -0.001063
   1 O :   -0.000009
   2 H :   -0.000000
   3 H :   -0.002107
   4 H :   -0.000218
   5 H :   -0.000114
   6 C :   -0.401692
   7 O :   -0.096952
   8 H :    0.194612
   9 H :    0.114216
  10 H :    0.093381
  11 H :    0.099945

  Mayer bond orders larger than 0.1
B(  6-C ,  7-O ) :   0.9957 B(  6-C ,  9-H ) :   0.9712 B(  6-C , 10-H ) :   0.9748
B(  6-C , 11-H ) :   0.9745 B(  7-O ,  8-H ) :   0.8955

Dispersion correction           -0.000234731
FINAL SINGLE POINT ENERGY      -115.732071140798

DIPOLE MOMENT
-------------
                                X             Y             Z
Electronic contribution:      1.76651       0.67588      -0.05810
Nuclear contribution   :     -2.37957      -0.41491      -0.19290
                        -----------------------------------------
Total Dipole Moment    :     -0.61306       0.26097      -0.25100
                        -----------------------------------------
Magnitude (a.u.)       :      0.71201
Magnitude (Debye)      :      1.80978

Rotational constants in cm-1:     3.998583     0.829405     0.795011
Rotational constants in MHz : 119874.495559 24864.945019 23833.825273

                             ****ORCA TERMINATED NORMALLY****
TOTAL RUN TIME: 0 days 0 hours 0 minutes 56 seconds 711 msec
