                         Program Version 4.1.2  - RELEASE  -
|  1> #Run DFT-D3 single point of the dimer
|  2> ! wB97X-D3 def2-TZVP TIGHTSCF CHELPG PMODEL PAL8
|  3>
|  4> %base "21-118_DFT_AB"
|  5>
|  6> %scf
|  7> MaxIter 1000
|  8> end
|  9>
| 10> * xyz 0 1
| 11>   C                      -8.129989            -1.571884            -2.225522
| 12>   O                      -8.222759            -0.794738            -3.392782
| 13>   H                      -9.121631            -0.441350            -3.413433
| 14>   H                      -9.139452            -1.760697            -1.839982
| 15>   H                      -7.694498            -2.543217            -2.506022
| 16>   H                      -7.554481            -1.152967            -1.411598
| 17>   C                      -6.785721            -2.843812            -5.782350
| 18>   O                      -7.433503            -2.616658            -7.021264
| 19>   H                      -8.352926            -2.300453            -6.878506
| 20>   H                      -6.414651            -1.937600            -5.388781
| 21>   H                      -7.427972            -3.295129            -4.999299
| 22>   H                      -5.988792            -3.495680            -5.886320
| 23> *
| 24>
| 25> #Run DFT-D3 single point of the molecule with dimer basis set
| 26> $new_job
| 27> %base "21-118_DFT_A"
| 28> ! wB97X-D3 def2-TZVP TIGHTSCF CHELPG PMODEL
| 29>
| 30> %scf
| 31> MaxIter 1000
| 32> end
| 33>
| 34> * xyz 0 1
| 35>   C                      -8.129989            -1.571884            -2.225522
| 36>   O                      -8.222759            -0.794738            -3.392782
| 37>   H                      -9.121631            -0.441350            -3.413433
| 38>   H                      -9.139452            -1.760697            -1.839982
| 39>   H                      -7.694498            -2.543217            -2.506022
| 40>   H                      -7.554481            -1.152967            -1.411598
| 41>   C                    : -6.785721            -2.843812            -5.782350
| 42>   O                    : -7.433503            -2.616658            -7.021264
| 43>   H                    : -8.352926            -2.300453            -6.878506
| 44>   H                    : -6.414651            -1.937600            -5.388781
| 45>   H                    : -7.427972            -3.295129            -4.999299
| 46>   H                    : -5.988792            -3.495680            -5.886320
| 47> *
| 48>
| 49> #Run DFT-D3 single point of the particle with dimer basis set
| 50> $new_job
| 51> %base "21-118_DFT_B"
| 52> ! wB97X-D3 def2-TZVP TIGHTSCF CHELPG PMODEL
| 53>
| 54> %scf
| 55> MaxIter 1000
| 56> end
| 57>
| 58> * xyz 0 1
| 59>   C                    : -8.129989            -1.571884            -2.225522
| 60>   O                    : -8.222759            -0.794738            -3.392782
| 61>   H                    : -9.121631            -0.441350            -3.413433
| 62>   H                    : -9.139452            -1.760697            -1.839982
| 63>   H                    : -7.694498            -2.543217            -2.506022
| 64>   H                    : -7.554481            -1.152967            -1.411598
| 65>   C                      -6.785721            -2.843812            -5.782350
| 66>   O                      -7.433503            -2.616658            -7.021264
| 67>   H                      -8.352926            -2.300453            -6.878506
| 68>   H                      -6.414651            -1.937600            -5.388781
| 69>   H                      -7.427972            -3.295129            -4.999299
| 70>   H                      -5.988792            -3.495680            -5.886320
| 71> *
| 72>
| 73>                          ****END OF INPUT****
 Total Charge           Charge          ....    0
 Multiplicity           Mult            ....    1
 Number of Electrons    NEL             ....   36
Dispersion correction           -0.001764214
FINAL SINGLE POINT ENERGY      -231.468477245342
Dispersion correction           -0.000239609
FINAL SINGLE POINT ENERGY      -115.734522019505

CARTESIAN COORDINATES (ANGSTROEM)
---------------------------------
  C     -8.129989   -1.571884   -2.225522
  O     -8.222759   -0.794738   -3.392782
  H     -9.121631   -0.441350   -3.413433
  H     -9.139452   -1.760697   -1.839982
  H     -7.694498   -2.543217   -2.506022
  H     -7.554481   -1.152967   -1.411598
  C     -6.785721   -2.843812   -5.782350
  O     -7.433503   -2.616658   -7.021264
  H     -8.352926   -2.300453   -6.878506
  H     -6.414651   -1.937600   -5.388781
  H     -7.427972   -3.295129   -4.999299
  H     -5.988792   -3.495680   -5.886320

 Multiplicity           Mult            ....    1
 Number of Electrons    NEL             ....   18
 Basis Dimension        Dim             ....  172

ORBITAL ENERGIES
----------------

  NO   OCC          E(Eh)            E(eV)
   0   2.0000     -19.230557      -523.2901
   1   2.0000     -10.303813      -280.3810
   2   2.0000      -1.128614       -30.7112
   3   2.0000      -0.803000       -21.8508
   4   2.0000      -0.608603       -16.5609
   5   2.0000      -0.545541       -14.8449
   6   2.0000      -0.529600       -14.4112
   7   2.0000      -0.431519       -11.7422
   8   2.0000      -0.373240       -10.1564
   9   0.0000       0.078825         2.1449
  10   0.0000       0.116259         3.1636
  11   0.0000       0.153336         4.1725
  12   0.0000       0.166896         4.5415
  13   0.0000       0.184387         5.0174

MULLIKEN ATOMIC CHARGES
-----------------------
   0 C :    0.000008
   1 O :   -0.000051
   2 H :   -0.000041
   3 H :   -0.000086
   4 H :   -0.001785
   5 H :   -0.000051
   6 C :   -0.150490
   7 O :   -0.487052
   8 H :    0.319447
   9 H :    0.099277
  10 H :    0.099549
  11 H :    0.121274
Sum of atomic charges:   -0.0000000

LOEWDIN ATOMIC CHARGES
----------------------
   0 C :   -0.002984
   1 O :   -0.001962
   2 H :   -0.000110
   3 H :   -0.000034
   4 H :   -0.002716
   5 H :   -0.000022
   6 C :   -0.371174
   7 O :   -0.087863
   8 H :    0.181893
   9 H :    0.088631
  10 H :    0.101928
  11 H :    0.094413

  Mayer bond orders larger than 0.1
B(  6-C ,  7-O ) :   1.0038 B(  6-C ,  9-H ) :   0.9816 B(  6-C , 10-H ) :   0.9809
B(  6-C , 11-H ) :   0.9711 B(  7-O ,  8-H ) :   0.8933

Dispersion correction           -0.000247594
FINAL SINGLE POINT ENERGY      -115.732318139002

DIPOLE MOMENT
-------------
                                X             Y             Z
Electronic contribution:     -0.66222       0.23719      -1.69866
Nuclear contribution   :      0.35537      -0.14004       2.29301
                        -----------------------------------------
Total Dipole Moment    :     -0.30686       0.09716       0.59435
                        -----------------------------------------
Magnitude (a.u.)       :      0.67591
Magnitude (Debye)      :      1.71803

Rotational constants in cm-1:     4.528570     0.824593     0.796146
Rotational constants in MHz : 135763.116331 24720.682069 23867.859451

                             ****ORCA TERMINATED NORMALLY****
TOTAL RUN TIME: 0 days 0 hours 0 minutes 58 seconds 606 msec
