                         Program Version 4.1.2  - RELEASE  -
|  1> #Run DFT-D3 single point of the dimer
|  2> ! wB97X-D3 def2-TZVP TIGHTSCF CHELPG PMODEL PAL8
|  3>
|  4> %base "15-155_DFT_AB"
|  5>
|  6> %scf
|  7> MaxIter 1000
|  8> end
|  9>
| 10> * xyz 0 1
| 11>   C                      3.301948             -9.057515            10.758930
| 12>   O                      3.190514             -8.202666            9.652621
| 13>   H                      3.903634             -7.597619            9.670895
| 14>   H                      2.823542             -10.106211           10.576544
| 15>   H                      4.415125             -9.195970            11.000954
| 16>   H                      2.842183             -8.686226            11.681437
| 17>   C                      4.050579             -9.957986            6.519790
| 18>   O                      4.490923             -9.991779            7.838713
| 19>   H                      3.840532             -9.643587            8.401036
| 20>   H                      4.908238             -9.875983            5.866447
| 21>   H                      3.403700             -10.816818           6.179375
| 22>   H                      3.432775             -9.059907            6.345172
| 23> *
| 24>
| 25> #Run DFT-D3 single point of the molecule with dimer basis set
| 26> $new_job
| 27> %base "15-155_DFT_A"
| 28> ! wB97X-D3 def2-TZVP TIGHTSCF CHELPG PMODEL
| 29>
| 30> %scf
| 31> MaxIter 1000
| 32> end
| 33>
| 34> * xyz 0 1
| 35>   C                      3.301948             -9.057515            10.758930
| 36>   O                      3.190514             -8.202666            9.652621
| 37>   H                      3.903634             -7.597619            9.670895
| 38>   H                      2.823542             -10.106211           10.576544
| 39>   H                      4.415125             -9.195970            11.000954
| 40>   H                      2.842183             -8.686226            11.681437
| 41>   C                    : 4.050579             -9.957986            6.519790
| 42>   O                    : 4.490923             -9.991779            7.838713
| 43>   H                    : 3.840532             -9.643587            8.401036
| 44>   H                    : 4.908238             -9.875983            5.866447
| 45>   H                    : 3.403700             -10.816818           6.179375
| 46>   H                    : 3.432775             -9.059907            6.345172
| 47> *
| 48>
| 49> #Run DFT-D3 single point of the particle with dimer basis set
| 50> $new_job
| 51> %base "15-155_DFT_B"
| 52> ! wB97X-D3 def2-TZVP TIGHTSCF CHELPG PMODEL
| 53>
| 54> %scf
| 55> MaxIter 1000
| 56> end
| 57>
| 58> * xyz 0 1
| 59>   C                    : 3.301948             -9.057515            10.758930
| 60>   O                    : 3.190514             -8.202666            9.652621
| 61>   H                    : 3.903634             -7.597619            9.670895
| 62>   H                    : 2.823542             -10.106211           10.576544
| 63>   H                    : 4.415125             -9.195970            11.000954
| 64>   H                    : 2.842183             -8.686226            11.681437
| 65>   C                      4.050579             -9.957986            6.519790
| 66>   O                      4.490923             -9.991779            7.838713
| 67>   H                      3.840532             -9.643587            8.401036
| 68>   H                      4.908238             -9.875983            5.866447
| 69>   H                      3.403700             -10.816818           6.179375
| 70>   H                      3.432775             -9.059907            6.345172
| 71> *
| 72>
| 73>                          ****END OF INPUT****
 Total Charge           Charge          ....    0
 Multiplicity           Mult            ....    1
 Number of Electrons    NEL             ....   36
Dispersion correction           -0.001852413
FINAL SINGLE POINT ENERGY      -231.471683984676
Dispersion correction           -0.000257782
FINAL SINGLE POINT ENERGY      -115.730446749935

CARTESIAN COORDINATES (ANGSTROEM)
---------------------------------
  C      3.301948   -9.057515   10.758930
  O      3.190514   -8.202666    9.652621
  H      3.903634   -7.597619    9.670895
  H      2.823542  -10.106211   10.576544
  H      4.415125   -9.195970   11.000954
  H      2.842183   -8.686226   11.681437
  C      4.050579   -9.957986    6.519790
  O      4.490923   -9.991779    7.838713
  H      3.840532   -9.643587    8.401036
  H      4.908238   -9.875983    5.866447
  H      3.403700  -10.816818    6.179375
  H      3.432775   -9.059907    6.345172

 Multiplicity           Mult            ....    1
 Number of Electrons    NEL             ....   18
 Basis Dimension        Dim             ....  172

ORBITAL ENERGIES
----------------

  NO   OCC          E(Eh)            E(eV)
   0   2.0000     -19.229579      -523.2635
   1   2.0000     -10.315440      -280.6974
   2   2.0000      -1.150531       -31.3075
   3   2.0000      -0.797928       -21.7127
   4   2.0000      -0.622469       -16.9382
   5   2.0000      -0.538707       -14.6590
   6   2.0000      -0.533486       -14.5169
   7   2.0000      -0.432369       -11.7654
   8   2.0000      -0.374468       -10.1898
   9   0.0000       0.075306         2.0492
  10   0.0000       0.131903         3.5893
  11   0.0000       0.159905         4.3512
  12   0.0000       0.165314         4.4984
  13   0.0000       0.193291         5.2597

MULLIKEN ATOMIC CHARGES
-----------------------
   0 C :    0.003142
   1 O :   -0.005078
   2 H :   -0.001949
   3 H :   -0.002072
   4 H :   -0.000608
   5 H :    0.000179
   6 C :   -0.167348
   7 O :   -0.453022
   8 H :    0.307574
   9 H :    0.119370
  10 H :    0.098252
  11 H :    0.101560
Sum of atomic charges:    0.0000000

LOEWDIN ATOMIC CHARGES
----------------------
   0 C :   -0.010232
   1 O :   -0.014739
   2 H :   -0.002855
   3 H :   -0.001976
   4 H :   -0.000757
   5 H :   -0.000094
   6 C :   -0.402182
   7 O :   -0.025395
   8 H :    0.158038
   9 H :    0.104485
  10 H :    0.098727
  11 H :    0.096979

  Mayer bond orders larger than 0.1
B(  6-C ,  7-O ) :   1.0043 B(  6-C ,  9-H ) :   0.9746 B(  6-C , 10-H ) :   0.9688
B(  6-C , 11-H ) :   0.9842 B(  7-O ,  8-H ) :   0.9086

Dispersion correction           -0.000246161
FINAL SINGLE POINT ENERGY      -115.734670488908

DIPOLE MOMENT
-------------
                                X             Y             Z
Electronic contribution:      0.75220      -0.15342       1.72834
Nuclear contribution   :     -1.32763       0.42015      -1.87729
                        -----------------------------------------
Total Dipole Moment    :     -0.57543       0.26674      -0.14895
                        -----------------------------------------
Magnitude (a.u.)       :      0.65150
Magnitude (Debye)      :      1.65599

Rotational constants in cm-1:     4.368764     0.845076     0.818172
Rotational constants in MHz : 130972.250141 25334.755754 24528.175833

                             ****ORCA TERMINATED NORMALLY****
TOTAL RUN TIME: 0 days 0 hours 1 minutes 7 seconds 362 msec
