                         Program Version 4.1.2  - RELEASE  -
|  1> #Run DFT-D3 single point of the dimer
|  2> ! wB97X-D3 def2-TZVP TIGHTSCF CHELPG PMODEL PAL8
|  3>
|  4> %base "18-136_DFT_AB"
|  5>
|  6> %scf
|  7> MaxIter 1000
|  8> end
|  9>
| 10> * xyz 0 1
| 11>   C                      -9.153282            -8.477792            6.924629
| 12>   O                      -7.769319            -8.220859            7.312762
| 13>   H                      -7.444320            -7.572881            6.635456
| 14>   H                      -9.273223            -9.351089            6.351012
| 15>   H                      -9.805501            -8.522427            7.775496
| 16>   H                      -9.528106            -7.587786            6.403392
| 17>   C                      -5.489523            -3.813304            8.215315
| 18>   O                      -6.739284            -4.407885            8.109298
| 19>   H                      -7.413917            -3.714608            8.024810
| 20>   H                      -4.976029            -3.686453            7.194270
| 21>   H                      -5.521442            -2.886207            8.754006
| 22>   H                      -4.844538            -4.540704            8.737894
| 23> *
| 24>
| 25> #Run DFT-D3 single point of the molecule with dimer basis set
| 26> $new_job
| 27> %base "18-136_DFT_A"
| 28> ! wB97X-D3 def2-TZVP TIGHTSCF CHELPG PMODEL
| 29>
| 30> %scf
| 31> MaxIter 1000
| 32> end
| 33>
| 34> * xyz 0 1
| 35>   C                      -9.153282            -8.477792            6.924629
| 36>   O                      -7.769319            -8.220859            7.312762
| 37>   H                      -7.444320            -7.572881            6.635456
| 38>   H                      -9.273223            -9.351089            6.351012
| 39>   H                      -9.805501            -8.522427            7.775496
| 40>   H                      -9.528106            -7.587786            6.403392
| 41>   C                    : -5.489523            -3.813304            8.215315
| 42>   O                    : -6.739284            -4.407885            8.109298
| 43>   H                    : -7.413917            -3.714608            8.024810
| 44>   H                    : -4.976029            -3.686453            7.194270
| 45>   H                    : -5.521442            -2.886207            8.754006
| 46>   H                    : -4.844538            -4.540704            8.737894
| 47> *
| 48>
| 49> #Run DFT-D3 single point of the particle with dimer basis set
| 50> $new_job
| 51> %base "18-136_DFT_B"
| 52> ! wB97X-D3 def2-TZVP TIGHTSCF CHELPG PMODEL
| 53>
| 54> %scf
| 55> MaxIter 1000
| 56> end
| 57>
| 58> * xyz 0 1
| 59>   C                    : -9.153282            -8.477792            6.924629
| 60>   O                    : -7.769319            -8.220859            7.312762
| 61>   H                    : -7.444320            -7.572881            6.635456
| 62>   H                    : -9.273223            -9.351089            6.351012
| 63>   H                    : -9.805501            -8.522427            7.775496
| 64>   H                    : -9.528106            -7.587786            6.403392
| 65>   C                      -5.489523            -3.813304            8.215315
| 66>   O                      -6.739284            -4.407885            8.109298
| 67>   H                      -7.413917            -3.714608            8.024810
| 68>   H                      -4.976029            -3.686453            7.194270
| 69>   H                      -5.521442            -2.886207            8.754006
| 70>   H                      -4.844538            -4.540704            8.737894
| 71> *
| 72>
| 73>                          ****END OF INPUT****
 Total Charge           Charge          ....    0
 Multiplicity           Mult            ....    1
 Number of Electrons    NEL             ....   36
Dispersion correction           -0.000854382
FINAL SINGLE POINT ENERGY      -231.464778492604
Dispersion correction           -0.000249975
FINAL SINGLE POINT ENERGY      -115.730561724008

CARTESIAN COORDINATES (ANGSTROEM)
---------------------------------
  C     -9.153282   -8.477792    6.924629
  O     -7.769319   -8.220859    7.312762
  H     -7.444320   -7.572881    6.635456
  H     -9.273223   -9.351089    6.351012
  H     -9.805501   -8.522427    7.775496
  H     -9.528106   -7.587786    6.403392
  C     -5.489523   -3.813304    8.215315
  O     -6.739284   -4.407885    8.109298
  H     -7.413917   -3.714608    8.024810
  H     -4.976029   -3.686453    7.194270
  H     -5.521442   -2.886207    8.754006
  H     -4.844538   -4.540704    8.737894

 Multiplicity           Mult            ....    1
 Number of Electrons    NEL             ....   18
 Basis Dimension        Dim             ....  172

ORBITAL ENERGIES
----------------

  NO   OCC          E(Eh)            E(eV)
   0   2.0000     -19.231495      -523.3156
   1   2.0000     -10.314912      -280.6830
   2   2.0000      -1.142727       -31.0952
   3   2.0000      -0.790665       -21.5151
   4   2.0000      -0.616521       -16.7764
   5   2.0000      -0.539739       -14.6870
   6   2.0000      -0.528015       -14.3680
   7   2.0000      -0.433482       -11.7956
   8   2.0000      -0.369297       -10.0491
   9   0.0000       0.095339         2.5943
  10   0.0000       0.115275         3.1368
  11   0.0000       0.154361         4.2004
  12   0.0000       0.177190         4.8216
  13   0.0000       0.201509         5.4833

MULLIKEN ATOMIC CHARGES
-----------------------
   0 C :    0.000097
   1 O :   -0.000064
   2 H :   -0.001652
   3 H :   -0.000024
   4 H :    0.000036
   5 H :   -0.000160
   6 C :   -0.158648
   7 O :   -0.464795
   8 H :    0.315049
   9 H :    0.089036
  10 H :    0.106465
  11 H :    0.114661
Sum of atomic charges:    0.0000000

LOEWDIN ATOMIC CHARGES
----------------------
   0 C :   -0.000110
   1 O :   -0.000244
   2 H :   -0.001456
   3 H :   -0.000004
   4 H :   -0.000001
   5 H :   -0.000036
   6 C :   -0.411504
   7 O :   -0.062516
   8 H :    0.176413
   9 H :    0.100887
  10 H :    0.089979
  11 H :    0.108592

  Mayer bond orders larger than 0.1
B(  6-C ,  7-O ) :   1.0081 B(  6-C ,  9-H ) :   0.9715 B(  6-C , 10-H ) :   0.9768
B(  6-C , 11-H ) :   0.9768 B(  7-O ,  8-H ) :   0.8970

Dispersion correction           -0.000244476
FINAL SINGLE POINT ENERGY      -115.733883426617

DIPOLE MOMENT
-------------
                                X             Y             Z
Electronic contribution:     -1.64991      -0.78608      -0.04810
Nuclear contribution   :      1.67857       1.45826       0.07469
                        -----------------------------------------
Total Dipole Moment    :      0.02866       0.67219       0.02658
                        -----------------------------------------
Magnitude (a.u.)       :      0.67332
Magnitude (Debye)      :      1.71145

Rotational constants in cm-1:     4.189186     0.853071     0.822391
Rotational constants in MHz : 125588.635049 25574.432128 24654.676472

                             ****ORCA TERMINATED NORMALLY****
TOTAL RUN TIME: 0 days 0 hours 0 minutes 51 seconds 481 msec
