                         Program Version 4.1.2  - RELEASE  -
|  1> #Run DFT-D3 single point of the dimer
|  2> ! wB97X-D3 def2-TZVP TIGHTSCF CHELPG PMODEL PAL8
|  3>
|  4> %base "7-197_DFT_AB"
|  5>
|  6> %scf
|  7> MaxIter 1000
|  8> end
|  9>
| 10> * xyz 0 1
| 11>   C                      -1.185284            8.504288             0.055179
| 12>   O                      -1.646545            7.176408             -0.137054
| 13>   H                      -2.101523            7.023190             0.712655
| 14>   H                      -2.006524            9.225347             0.002332
| 15>   H                      -0.682141            8.622074             0.980656
| 16>   H                      -0.504858            8.844147             -0.684740
| 17>   C                      -2.506066            5.774475             4.374404
| 18>   O                      -1.795232            6.409334             3.349870
| 19>   H                      -1.717533            7.281400             3.695143
| 20>   H                      -1.797365            5.646557             5.250925
| 21>   H                      -3.437806            6.248494             4.651501
| 22>   H                      -2.836232            4.790620             4.104061
| 23> *
| 24>
| 25> #Run DFT-D3 single point of the molecule with dimer basis set
| 26> $new_job
| 27> %base "7-197_DFT_A"
| 28> ! wB97X-D3 def2-TZVP TIGHTSCF CHELPG PMODEL
| 29>
| 30> %scf
| 31> MaxIter 1000
| 32> end
| 33>
| 34> * xyz 0 1
| 35>   C                      -1.185284            8.504288             0.055179
| 36>   O                      -1.646545            7.176408             -0.137054
| 37>   H                      -2.101523            7.023190             0.712655
| 38>   H                      -2.006524            9.225347             0.002332
| 39>   H                      -0.682141            8.622074             0.980656
| 40>   H                      -0.504858            8.844147             -0.684740
| 41>   C                    : -2.506066            5.774475             4.374404
| 42>   O                    : -1.795232            6.409334             3.349870
| 43>   H                    : -1.717533            7.281400             3.695143
| 44>   H                    : -1.797365            5.646557             5.250925
| 45>   H                    : -3.437806            6.248494             4.651501
| 46>   H                    : -2.836232            4.790620             4.104061
| 47> *
| 48>
| 49> #Run DFT-D3 single point of the particle with dimer basis set
| 50> $new_job
| 51> %base "7-197_DFT_B"
| 52> ! wB97X-D3 def2-TZVP TIGHTSCF CHELPG PMODEL
| 53>
| 54> %scf
| 55> MaxIter 1000
| 56> end
| 57>
| 58> * xyz 0 1
| 59>   C                    : -1.185284            8.504288             0.055179
| 60>   O                    : -1.646545            7.176408             -0.137054
| 61>   H                    : -2.101523            7.023190             0.712655
| 62>   H                    : -2.006524            9.225347             0.002332
| 63>   H                    : -0.682141            8.622074             0.980656
| 64>   H                    : -0.504858            8.844147             -0.684740
| 65>   C                      -2.506066            5.774475             4.374404
| 66>   O                      -1.795232            6.409334             3.349870
| 67>   H                      -1.717533            7.281400             3.695143
| 68>   H                      -1.797365            5.646557             5.250925
| 69>   H                      -3.437806            6.248494             4.651501
| 70>   H                      -2.836232            4.790620             4.104061
| 71> *
| 72>
| 73>                          ****END OF INPUT****
 Total Charge           Charge          ....    0
 Multiplicity           Mult            ....    1
 Number of Electrons    NEL             ....   36
Dispersion correction           -0.001323945
FINAL SINGLE POINT ENERGY      -231.467815724903
Dispersion correction           -0.000220989
FINAL SINGLE POINT ENERGY      -115.732519949381

CARTESIAN COORDINATES (ANGSTROEM)
---------------------------------
  C     -1.185284    8.504288    0.055179
  O     -1.646545    7.176408   -0.137054
  H     -2.101523    7.023190    0.712655
  H     -2.006524    9.225347    0.002332
  H     -0.682141    8.622074    0.980656
  H     -0.504858    8.844147   -0.684740
  C     -2.506066    5.774475    4.374404
  O     -1.795232    6.409334    3.349870
  H     -1.717533    7.281400    3.695143
  H     -1.797365    5.646557    5.250925
  H     -3.437806    6.248494    4.651501
  H     -2.836232    4.790620    4.104061

 Multiplicity           Mult            ....    1
 Number of Electrons    NEL             ....   18
 Basis Dimension        Dim             ....  172

ORBITAL ENERGIES
----------------

  NO   OCC          E(Eh)            E(eV)
   0   2.0000     -19.232288      -523.3372
   1   2.0000     -10.313031      -280.6318
   2   2.0000      -1.150745       -31.3134
   3   2.0000      -0.795204       -21.6386
   4   2.0000      -0.612762       -16.6741
   5   2.0000      -0.549646       -14.9566
   6   2.0000      -0.530784       -14.4434
   7   2.0000      -0.436509       -11.8780
   8   2.0000      -0.375579       -10.2200
   9   0.0000       0.093476         2.5436
  10   0.0000       0.123542         3.3617
  11   0.0000       0.156142         4.2488
  12   0.0000       0.182534         4.9670
  13   0.0000       0.198548         5.4028

MULLIKEN ATOMIC CHARGES
-----------------------
   0 C :    0.000476
   1 O :    0.000725
   2 H :   -0.006957
   3 H :    0.000050
   4 H :   -0.001155
   5 H :   -0.000085
   6 C :   -0.166265
   7 O :   -0.451375
   8 H :    0.314956
   9 H :    0.095001
  10 H :    0.102139
  11 H :    0.112490
Sum of atomic charges:   -0.0000000

LOEWDIN ATOMIC CHARGES
----------------------
   0 C :   -0.001225
   1 O :   -0.000541
   2 H :   -0.009577
   3 H :   -0.000011
   4 H :   -0.000552
   5 H :   -0.000013
   6 C :   -0.401658
   7 O :   -0.047029
   8 H :    0.163635
   9 H :    0.103250
  10 H :    0.092030
  11 H :    0.101691

  Mayer bond orders larger than 0.1
B(  6-C ,  7-O ) :   1.0014 B(  6-C ,  9-H ) :   0.9800 B(  6-C , 10-H ) :   0.9721
B(  6-C , 11-H ) :   0.9766 B(  7-O ,  8-H ) :   0.9028

Dispersion correction           -0.000219790
FINAL SINGLE POINT ENERGY      -115.731815094919

DIPOLE MOMENT
-------------
                                X             Y             Z
Electronic contribution:      0.88824       0.75594      -1.48986
Nuclear contribution   :     -1.13379      -0.47246       2.07938
                        -----------------------------------------
Total Dipole Moment    :     -0.24555       0.28348       0.58953
                        -----------------------------------------
Magnitude (a.u.)       :      0.69871
Magnitude (Debye)      :      1.77598

Rotational constants in cm-1:     4.304827     0.843837     0.825249
Rotational constants in MHz : 129055.455152 25297.591081 24740.356275

                             ****ORCA TERMINATED NORMALLY****
TOTAL RUN TIME: 0 days 0 hours 1 minutes 11 seconds 17 msec
