                         Program Version 4.1.2  - RELEASE  -
|  1> #Run DFT-D3 single point of the dimer
|  2> ! wB97X-D3 def2-TZVP TIGHTSCF CHELPG PMODEL PAL8
|  3>
|  4> %base "13-219_DFT_AB"
|  5>
|  6> %scf
|  7> MaxIter 1000
|  8> end
|  9>
| 10> * xyz 0 1
| 11>   C                      -6.945636            3.312507             -8.402463
| 12>   O                      -6.953330            2.354367             -7.433523
| 13>   H                      -6.634259            1.523126             -7.842062
| 14>   H                      -7.547421            3.051407             -9.268377
| 15>   H                      -7.182945            4.348131             -8.049637
| 16>   H                      -5.994893            3.351768             -8.844000
| 17>   C                      -5.486069            3.512021             -4.913859
| 18>   O                      -6.167169            2.307264             -4.603572
| 19>   H                      -6.701712            2.041697             -5.373229
| 20>   H                      -5.168104            4.102406             -4.051643
| 21>   H                      -4.604469            3.379648             -5.458457
| 22>   H                      -6.112285            4.173370             -5.467415
| 23> *
| 24>
| 25> #Run DFT-D3 single point of the molecule with dimer basis set
| 26> $new_job
| 27> %base "13-219_DFT_A"
| 28> ! wB97X-D3 def2-TZVP TIGHTSCF CHELPG PMODEL
| 29>
| 30> %scf
| 31> MaxIter 1000
| 32> end
| 33>
| 34> * xyz 0 1
| 35>   C                      -6.945636            3.312507             -8.402463
| 36>   O                      -6.953330            2.354367             -7.433523
| 37>   H                      -6.634259            1.523126             -7.842062
| 38>   H                      -7.547421            3.051407             -9.268377
| 39>   H                      -7.182945            4.348131             -8.049637
| 40>   H                      -5.994893            3.351768             -8.844000
| 41>   C                    : -5.486069            3.512021             -4.913859
| 42>   O                    : -6.167169            2.307264             -4.603572
| 43>   H                    : -6.701712            2.041697             -5.373229
| 44>   H                    : -5.168104            4.102406             -4.051643
| 45>   H                    : -4.604469            3.379648             -5.458457
| 46>   H                    : -6.112285            4.173370             -5.467415
| 47> *
| 48>
| 49> #Run DFT-D3 single point of the particle with dimer basis set
| 50> $new_job
| 51> %base "13-219_DFT_B"
| 52> ! wB97X-D3 def2-TZVP TIGHTSCF CHELPG PMODEL
| 53>
| 54> %scf
| 55> MaxIter 1000
| 56> end
| 57>
| 58> * xyz 0 1
| 59>   C                    : -6.945636            3.312507             -8.402463
| 60>   O                    : -6.953330            2.354367             -7.433523
| 61>   H                    : -6.634259            1.523126             -7.842062
| 62>   H                    : -7.547421            3.051407             -9.268377
| 63>   H                    : -7.182945            4.348131             -8.049637
| 64>   H                    : -5.994893            3.351768             -8.844000
| 65>   C                      -5.486069            3.512021             -4.913859
| 66>   O                      -6.167169            2.307264             -4.603572
| 67>   H                      -6.701712            2.041697             -5.373229
| 68>   H                      -5.168104            4.102406             -4.051643
| 69>   H                      -4.604469            3.379648             -5.458457
| 70>   H                      -6.112285            4.173370             -5.467415
| 71> *
| 72>
| 73>                          ****END OF INPUT****
 Total Charge           Charge          ....    0
 Multiplicity           Mult            ....    1
 Number of Electrons    NEL             ....   36
Dispersion correction           -0.002132954
FINAL SINGLE POINT ENERGY      -231.468070834464
Dispersion correction           -0.000208708
FINAL SINGLE POINT ENERGY      -115.729268615949

CARTESIAN COORDINATES (ANGSTROEM)
---------------------------------
  C     -6.945636    3.312507   -8.402463
  O     -6.953330    2.354367   -7.433523
  H     -6.634259    1.523126   -7.842062
  H     -7.547421    3.051407   -9.268377
  H     -7.182945    4.348131   -8.049637
  H     -5.994893    3.351768   -8.844000
  C     -5.486069    3.512021   -4.913859
  O     -6.167169    2.307264   -4.603572
  H     -6.701712    2.041697   -5.373229
  H     -5.168104    4.102406   -4.051643
  H     -4.604469    3.379648   -5.458457
  H     -6.112285    4.173370   -5.467415

 Multiplicity           Mult            ....    1
 Number of Electrons    NEL             ....   18
 Basis Dimension        Dim             ....  172

ORBITAL ENERGIES
----------------

  NO   OCC          E(Eh)            E(eV)
   0   2.0000     -19.232241      -523.3359
   1   2.0000     -10.304717      -280.4056
   2   2.0000      -1.131620       -30.7930
   3   2.0000      -0.803291       -21.8587
   4   2.0000      -0.611276       -16.6337
   5   2.0000      -0.545849       -14.8533
   6   2.0000      -0.529397       -14.4056
   7   2.0000      -0.430398       -11.7117
   8   2.0000      -0.375772       -10.2253
   9   0.0000       0.069873         1.9014
  10   0.0000       0.128176         3.4879
  11   0.0000       0.147078         4.0022
  12   0.0000       0.166476         4.5300
  13   0.0000       0.198943         5.4135

MULLIKEN ATOMIC CHARGES
-----------------------
   0 C :    0.000945
   1 O :   -0.005062
   2 H :   -0.001073
   3 H :    0.000013
   4 H :   -0.000649
   5 H :   -0.000300
   6 C :   -0.167689
   7 O :   -0.479050
   8 H :    0.321302
   9 H :    0.118935
  10 H :    0.107462
  11 H :    0.105166
Sum of atomic charges:    0.0000000

LOEWDIN ATOMIC CHARGES
----------------------
   0 C :   -0.004406
   1 O :   -0.015672
   2 H :   -0.001803
   3 H :   -0.000038
   4 H :   -0.001219
   5 H :   -0.000156
   6 C :   -0.372468
   7 O :   -0.076244
   8 H :    0.182977
   9 H :    0.109340
  10 H :    0.086371
  11 H :    0.093319

  Mayer bond orders larger than 0.1
B(  6-C ,  7-O ) :   0.9961 B(  6-C ,  9-H ) :   0.9728 B(  6-C , 10-H ) :   0.9779
B(  6-C , 11-H ) :   0.9883 B(  7-O ,  8-H ) :   0.8993

Dispersion correction           -0.000244430
FINAL SINGLE POINT ENERGY      -115.732154630137

DIPOLE MOMENT
-------------
                                X             Y             Z
Electronic contribution:     -0.80399      -1.62249       0.53658
Nuclear contribution   :      0.74473       1.96086      -1.14902
                        -----------------------------------------
Total Dipole Moment    :     -0.05927       0.33837      -0.61245
                        -----------------------------------------
Magnitude (a.u.)       :      0.70221
Magnitude (Debye)      :      1.78487

Rotational constants in cm-1:     4.602268     0.820630     0.790737
Rotational constants in MHz : 137972.532921 24601.876661 23705.686702

                             ****ORCA TERMINATED NORMALLY****
TOTAL RUN TIME: 0 days 0 hours 1 minutes 10 seconds 889 msec
