                         Program Version 4.1.2  - RELEASE  -
|  1> #Run DFT-D3 single point of the dimer
|  2> ! wB97X-D3 def2-TZVP TIGHTSCF CHELPG PMODEL PAL8
|  3>
|  4> %base "9-52_DFT_AB"
|  5>
|  6> %scf
|  7> MaxIter 1000
|  8> end
|  9>
| 10> * xyz 0 1
| 11>   C                      -2.321207            -5.271564            -0.117392
| 12>   O                      -1.699948            -4.236620            -0.812064
| 13>   H                      -1.067507            -3.804357            -0.260356
| 14>   H                      -3.067091            -5.682834            -0.736439
| 15>   H                      -1.643910            -6.077927            0.202816
| 16>   H                      -2.851049            -4.806668            0.717258
| 17>   C                      -4.903874            -9.442278            -0.677737
| 18>   O                      -3.989815            -9.223129            0.357628
| 19>   H                      -4.262222            -9.680427            1.180958
| 20>   H                      -5.967884            -9.465559            -0.415941
| 21>   H                      -4.794855            -8.731898            -1.421318
| 22>   H                      -4.878456            -10.406002           -1.126017
| 23> *
| 24>
| 25> #Run DFT-D3 single point of the molecule with dimer basis set
| 26> $new_job
| 27> %base "9-52_DFT_A"
| 28> ! wB97X-D3 def2-TZVP TIGHTSCF CHELPG PMODEL
| 29>
| 30> %scf
| 31> MaxIter 1000
| 32> end
| 33>
| 34> * xyz 0 1
| 35>   C                      -2.321207            -5.271564            -0.117392
| 36>   O                      -1.699948            -4.236620            -0.812064
| 37>   H                      -1.067507            -3.804357            -0.260356
| 38>   H                      -3.067091            -5.682834            -0.736439
| 39>   H                      -1.643910            -6.077927            0.202816
| 40>   H                      -2.851049            -4.806668            0.717258
| 41>   C                    : -4.903874            -9.442278            -0.677737
| 42>   O                    : -3.989815            -9.223129            0.357628
| 43>   H                    : -4.262222            -9.680427            1.180958
| 44>   H                    : -5.967884            -9.465559            -0.415941
| 45>   H                    : -4.794855            -8.731898            -1.421318
| 46>   H                    : -4.878456            -10.406002           -1.126017
| 47> *
| 48>
| 49> #Run DFT-D3 single point of the particle with dimer basis set
| 50> $new_job
| 51> %base "9-52_DFT_B"
| 52> ! wB97X-D3 def2-TZVP TIGHTSCF CHELPG PMODEL
| 53>
| 54> %scf
| 55> MaxIter 1000
| 56> end
| 57>
| 58> * xyz 0 1
| 59>   C                    : -2.321207            -5.271564            -0.117392
| 60>   O                    : -1.699948            -4.236620            -0.812064
| 61>   H                    : -1.067507            -3.804357            -0.260356
| 62>   H                    : -3.067091            -5.682834            -0.736439
| 63>   H                    : -1.643910            -6.077927            0.202816
| 64>   H                    : -2.851049            -4.806668            0.717258
| 65>   C                      -4.903874            -9.442278            -0.677737
| 66>   O                      -3.989815            -9.223129            0.357628
| 67>   H                      -4.262222            -9.680427            1.180958
| 68>   H                      -5.967884            -9.465559            -0.415941
| 69>   H                      -4.794855            -8.731898            -1.421318
| 70>   H                      -4.878456            -10.406002           -1.126017
| 71> *
| 72>
| 73>                          ****END OF INPUT****
 Total Charge           Charge          ....    0
 Multiplicity           Mult            ....    1
 Number of Electrons    NEL             ....   36
Dispersion correction           -0.000912379
FINAL SINGLE POINT ENERGY      -231.464482782753
Dispersion correction           -0.000224301
FINAL SINGLE POINT ENERGY      -115.734472295199

CARTESIAN COORDINATES (ANGSTROEM)
---------------------------------
  C     -2.321207   -5.271564   -0.117392
  O     -1.699948   -4.236620   -0.812064
  H     -1.067507   -3.804357   -0.260356
  H     -3.067091   -5.682834   -0.736439
  H     -1.643910   -6.077927    0.202816
  H     -2.851049   -4.806668    0.717258
  C     -4.903874   -9.442278   -0.677737
  O     -3.989815   -9.223129    0.357628
  H     -4.262222   -9.680427    1.180958
  H     -5.967884   -9.465559   -0.415941
  H     -4.794855   -8.731898   -1.421318
  H     -4.878456  -10.406002   -1.126017

 Multiplicity           Mult            ....    1
 Number of Electrons    NEL             ....   18
 Basis Dimension        Dim             ....  172

ORBITAL ENERGIES
----------------

  NO   OCC          E(Eh)            E(eV)
   0   2.0000     -19.234694      -523.4026
   1   2.0000     -10.301741      -280.3246
   2   2.0000      -1.136171       -30.9168
   3   2.0000      -0.805798       -21.9269
   4   2.0000      -0.622600       -16.9418
   5   2.0000      -0.540749       -14.7145
   6   2.0000      -0.526066       -14.3150
   7   2.0000      -0.437687       -11.9101
   8   2.0000      -0.370824       -10.0906
   9   0.0000       0.094248         2.5646
  10   0.0000       0.115097         3.1319
  11   0.0000       0.151120         4.1122
  12   0.0000       0.168306         4.5798
  13   0.0000       0.201262         5.4766

MULLIKEN ATOMIC CHARGES
-----------------------
   0 C :   -0.000440
   1 O :   -0.000030
   2 H :   -0.000007
   3 H :   -0.000446
   4 H :   -0.000623
   5 H :   -0.000050
   6 C :   -0.160261
   7 O :   -0.476388
   8 H :    0.319149
   9 H :    0.094798
  10 H :    0.125914
  11 H :    0.098384
Sum of atomic charges:   -0.0000000

LOEWDIN ATOMIC CHARGES
----------------------
   0 C :   -0.001015
   1 O :   -0.000011
   2 H :   -0.000006
   3 H :   -0.000210
   4 H :   -0.000347
   5 H :   -0.000025
   6 C :   -0.394638
   7 O :   -0.067703
   8 H :    0.183036
   9 H :    0.096488
  10 H :    0.095363
  11 H :    0.089068

  Mayer bond orders larger than 0.1
B(  6-C ,  7-O ) :   1.0067 B(  6-C ,  9-H ) :   0.9774 B(  6-C , 10-H ) :   0.9775
B(  6-C , 11-H ) :   0.9740 B(  7-O ,  8-H ) :   0.8916

Dispersion correction           -0.000255442
FINAL SINGLE POINT ENERGY      -115.729093487864

DIPOLE MOMENT
-------------
                                X             Y             Z
Electronic contribution:      1.39358       0.44261       1.28908
Nuclear contribution   :     -1.94197      -0.83095      -1.17122
                        -----------------------------------------
Total Dipole Moment    :     -0.54839      -0.38834       0.11787
                        -----------------------------------------
Magnitude (a.u.)       :      0.68222
Magnitude (Debye)      :      1.73408

Rotational constants in cm-1:     4.696232     0.836950     0.798641
Rotational constants in MHz : 140789.488047 25091.144375 23942.669767

                             ****ORCA TERMINATED NORMALLY****
TOTAL RUN TIME: 0 days 0 hours 0 minutes 45 seconds 209 msec
