                         Program Version 4.1.2  - RELEASE  -
|  1> #Run DFT-D3 single point of the dimer
|  2> ! wB97X-D3 def2-TZVP TIGHTSCF CHELPG PMODEL PAL8
|  3>
|  4> %base "17-141_DFT_AB"
|  5>
|  6> %scf
|  7> MaxIter 1000
|  8> end
|  9>
| 10> * xyz 0 1
| 11>   C                      2.761676             -6.208087            3.528277
| 12>   O                      3.031626             -7.417651            2.918432
| 13>   H                      2.459564             -7.478778            2.192738
| 14>   H                      3.046349             -6.231249            4.572474
| 15>   H                      3.447008             -5.440362            3.205289
| 16>   H                      1.725867             -5.883107            3.328720
| 17>   C                      -1.686690            -6.880099            0.001016
| 18>   O                      -0.515030            -7.702419            0.231291
| 19>   H                      0.195622             -7.628837            -0.433345
| 20>   H                      -1.448333            -5.827464            -0.095840
| 21>   H                      -2.181151            -7.114668            -0.914702
| 22>   H                      -2.365929            -7.077965            0.815531
| 23> *
| 24>
| 25> #Run DFT-D3 single point of the molecule with dimer basis set
| 26> $new_job
| 27> %base "17-141_DFT_A"
| 28> ! wB97X-D3 def2-TZVP TIGHTSCF CHELPG PMODEL
| 29>
| 30> %scf
| 31> MaxIter 1000
| 32> end
| 33>
| 34> * xyz 0 1
| 35>   C                      2.761676             -6.208087            3.528277
| 36>   O                      3.031626             -7.417651            2.918432
| 37>   H                      2.459564             -7.478778            2.192738
| 38>   H                      3.046349             -6.231249            4.572474
| 39>   H                      3.447008             -5.440362            3.205289
| 40>   H                      1.725867             -5.883107            3.328720
| 41>   C                    : -1.686690            -6.880099            0.001016
| 42>   O                    : -0.515030            -7.702419            0.231291
| 43>   H                    : 0.195622             -7.628837            -0.433345
| 44>   H                    : -1.448333            -5.827464            -0.095840
| 45>   H                    : -2.181151            -7.114668            -0.914702
| 46>   H                    : -2.365929            -7.077965            0.815531
| 47> *
| 48>
| 49> #Run DFT-D3 single point of the particle with dimer basis set
| 50> $new_job
| 51> %base "17-141_DFT_B"
| 52> ! wB97X-D3 def2-TZVP TIGHTSCF CHELPG PMODEL
| 53>
| 54> %scf
| 55> MaxIter 1000
| 56> end
| 57>
| 58> * xyz 0 1
| 59>   C                    : 2.761676             -6.208087            3.528277
| 60>   O                    : 3.031626             -7.417651            2.918432
| 61>   H                    : 2.459564             -7.478778            2.192738
| 62>   H                    : 3.046349             -6.231249            4.572474
| 63>   H                    : 3.447008             -5.440362            3.205289
| 64>   H                    : 1.725867             -5.883107            3.328720
| 65>   C                      -1.686690            -6.880099            0.001016
| 66>   O                      -0.515030            -7.702419            0.231291
| 67>   H                      0.195622             -7.628837            -0.433345
| 68>   H                      -1.448333            -5.827464            -0.095840
| 69>   H                      -2.181151            -7.114668            -0.914702
| 70>   H                      -2.365929            -7.077965            0.815531
| 71> *
| 72>
| 73>                          ****END OF INPUT****
 Total Charge           Charge          ....    0
 Multiplicity           Mult            ....    1
 Number of Electrons    NEL             ....   36
Dispersion correction           -0.000869956
FINAL SINGLE POINT ENERGY      -231.465450939712
Dispersion correction           -0.000222216
FINAL SINGLE POINT ENERGY      -115.730623437537

CARTESIAN COORDINATES (ANGSTROEM)
---------------------------------
  C      2.761676   -6.208087    3.528277
  O      3.031626   -7.417651    2.918432
  H      2.459564   -7.478778    2.192738
  H      3.046349   -6.231249    4.572474
  H      3.447008   -5.440362    3.205289
  H      1.725867   -5.883107    3.328720
  C     -1.686690   -6.880099    0.001016
  O     -0.515030   -7.702419    0.231291
  H      0.195622   -7.628837   -0.433345
  H     -1.448333   -5.827464   -0.095840
  H     -2.181151   -7.114668   -0.914702
  H     -2.365929   -7.077965    0.815531

 Multiplicity           Mult            ....    1
 Number of Electrons    NEL             ....   18
 Basis Dimension        Dim             ....  172

ORBITAL ENERGIES
----------------

  NO   OCC          E(Eh)            E(eV)
   0   2.0000     -19.227280      -523.2009
   1   2.0000     -10.311489      -280.5899
   2   2.0000      -1.116541       -30.3826
   3   2.0000      -0.803034       -21.8517
   4   2.0000      -0.608538       -16.5592
   5   2.0000      -0.534086       -14.5332
   6   2.0000      -0.525590       -14.3020
   7   2.0000      -0.430598       -11.7172
   8   2.0000      -0.372343       -10.1320
   9   0.0000       0.092076         2.5055
  10   0.0000       0.117864         3.2072
  11   0.0000       0.149818         4.0768
  12   0.0000       0.181873         4.9490
  13   0.0000       0.198945         5.4136

MULLIKEN ATOMIC CHARGES
-----------------------
   0 C :    0.001016
   1 O :    0.000337
   2 H :   -0.003196
   3 H :   -0.000047
   4 H :   -0.000061
   5 H :   -0.001037
   6 C :   -0.151275
   7 O :   -0.503331
   8 H :    0.317153
   9 H :    0.105582
  10 H :    0.105851
  11 H :    0.129008
Sum of atomic charges:   -0.0000000

LOEWDIN ATOMIC CHARGES
----------------------
   0 C :   -0.000164
   1 O :   -0.000052
   2 H :   -0.001807
   3 H :   -0.000003
   4 H :   -0.000001
   5 H :   -0.000289
   6 C :   -0.348757
   7 O :   -0.113148
   8 H :    0.171077
   9 H :    0.094032
  10 H :    0.089705
  11 H :    0.109406

  Mayer bond orders larger than 0.1
B(  6-C ,  7-O ) :   0.9838 B(  6-C ,  9-H ) :   0.9748 B(  6-C , 10-H ) :   0.9742
B(  6-C , 11-H ) :   0.9740 B(  7-O ,  8-H ) :   0.8914

Dispersion correction           -0.000271137
FINAL SINGLE POINT ENERGY      -115.733397579547

DIPOLE MOMENT
-------------
                                X             Y             Z
Electronic contribution:      1.34237      -1.02330       0.39842
Nuclear contribution   :     -1.41056       1.42940      -0.94815
                        -----------------------------------------
Total Dipole Moment    :     -0.06820       0.40610      -0.54973
                        -----------------------------------------
Magnitude (a.u.)       :      0.68685
Magnitude (Debye)      :      1.74584

Rotational constants in cm-1:     4.475696     0.794368     0.762326
Rotational constants in MHz : 134177.983409 23814.555033 22853.965091

                             ****ORCA TERMINATED NORMALLY****
TOTAL RUN TIME: 0 days 0 hours 1 minutes 12 seconds 29 msec
