                         Program Version 4.1.2  - RELEASE  -
|  1> #Run DFT-D3 single point of the dimer
|  2> ! wB97X-D3 def2-TZVP TIGHTSCF CHELPG PMODEL PAL8
|  3>
|  4> %base "15-163_DFT_AB"
|  5>
|  6> %scf
|  7> MaxIter 1000
|  8> end
|  9>
| 10> * xyz 0 1
| 11>   C                      -5.946883            -9.520934            1.759639
| 12>   O                      -6.152325            -8.209981            1.137781
| 13>   H                      -5.894557            -8.237036            0.209221
| 14>   H                      -6.016455            -9.419049            2.892615
| 15>   H                      -6.762526            -10.186639           1.465938
| 16>   H                      -4.976280            -9.949934            1.473576
| 17>   C                      -5.165863            -9.581708            -2.485840
| 18>   O                      -6.423885            -9.223285            -1.799085
| 19>   H                      -6.573787            -8.283563            -1.949006
| 20>   H                      -4.823366            -10.519670           -2.077877
| 21>   H                      -5.296363            -9.580533            -3.532243
| 22>   H                      -4.360786            -8.853469            -2.328686
| 23> *
| 24>
| 25> #Run DFT-D3 single point of the molecule with dimer basis set
| 26> $new_job
| 27> %base "15-163_DFT_A"
| 28> ! wB97X-D3 def2-TZVP TIGHTSCF CHELPG PMODEL
| 29>
| 30> %scf
| 31> MaxIter 1000
| 32> end
| 33>
| 34> * xyz 0 1
| 35>   C                      -5.946883            -9.520934            1.759639
| 36>   O                      -6.152325            -8.209981            1.137781
| 37>   H                      -5.894557            -8.237036            0.209221
| 38>   H                      -6.016455            -9.419049            2.892615
| 39>   H                      -6.762526            -10.186639           1.465938
| 40>   H                      -4.976280            -9.949934            1.473576
| 41>   C                    : -5.165863            -9.581708            -2.485840
| 42>   O                    : -6.423885            -9.223285            -1.799085
| 43>   H                    : -6.573787            -8.283563            -1.949006
| 44>   H                    : -4.823366            -10.519670           -2.077877
| 45>   H                    : -5.296363            -9.580533            -3.532243
| 46>   H                    : -4.360786            -8.853469            -2.328686
| 47> *
| 48>
| 49> #Run DFT-D3 single point of the particle with dimer basis set
| 50> $new_job
| 51> %base "15-163_DFT_B"
| 52> ! wB97X-D3 def2-TZVP TIGHTSCF CHELPG PMODEL
| 53>
| 54> %scf
| 55> MaxIter 1000
| 56> end
| 57>
| 58> * xyz 0 1
| 59>   C                    : -5.946883            -9.520934            1.759639
| 60>   O                    : -6.152325            -8.209981            1.137781
| 61>   H                    : -5.894557            -8.237036            0.209221
| 62>   H                    : -6.016455            -9.419049            2.892615
| 63>   H                    : -6.762526            -10.186639           1.465938
| 64>   H                    : -4.976280            -9.949934            1.473576
| 65>   C                      -5.165863            -9.581708            -2.485840
| 66>   O                      -6.423885            -9.223285            -1.799085
| 67>   H                      -6.573787            -8.283563            -1.949006
| 68>   H                      -4.823366            -10.519670           -2.077877
| 69>   H                      -5.296363            -9.580533            -3.532243
| 70>   H                      -4.360786            -8.853469            -2.328686
| 71> *
| 72>
| 73>                          ****END OF INPUT****
 Total Charge           Charge          ....    0
 Multiplicity           Mult            ....    1
 Number of Electrons    NEL             ....   36
Dispersion correction           -0.001896307
FINAL SINGLE POINT ENERGY      -231.470689864911
Dispersion correction           -0.000269972
FINAL SINGLE POINT ENERGY      -115.733872373389

CARTESIAN COORDINATES (ANGSTROEM)
---------------------------------
  C     -5.946883   -9.520934    1.759639
  O     -6.152325   -8.209981    1.137781
  H     -5.894557   -8.237036    0.209221
  H     -6.016455   -9.419049    2.892615
  H     -6.762526  -10.186639    1.465938
  H     -4.976280   -9.949934    1.473576
  C     -5.165863   -9.581708   -2.485840
  O     -6.423885   -9.223285   -1.799085
  H     -6.573787   -8.283563   -1.949006
  H     -4.823366  -10.519670   -2.077877
  H     -5.296363   -9.580533   -3.532243
  H     -4.360786   -8.853469   -2.328686

 Multiplicity           Mult            ....    1
 Number of Electrons    NEL             ....   18
 Basis Dimension        Dim             ....  172

ORBITAL ENERGIES
----------------

  NO   OCC          E(Eh)            E(eV)
   0   2.0000     -19.231457      -523.3146
   1   2.0000     -10.314086      -280.6606
   2   2.0000      -1.118062       -30.4240
   3   2.0000      -0.802979       -21.8502
   4   2.0000      -0.603760       -16.4291
   5   2.0000      -0.540871       -14.7179
   6   2.0000      -0.515941       -14.0395
   7   2.0000      -0.443071       -12.0566
   8   2.0000      -0.376659       -10.2494
   9   0.0000       0.093740         2.5508
  10   0.0000       0.126393         3.4393
  11   0.0000       0.148035         4.0282
  12   0.0000       0.179713         4.8903
  13   0.0000       0.195956         5.3322

MULLIKEN ATOMIC CHARGES
-----------------------
   0 C :    0.006157
   1 O :    0.004634
   2 H :   -0.024025
   3 H :   -0.000179
   4 H :   -0.002766
   5 H :   -0.001204
   6 C :   -0.177518
   7 O :   -0.473615
   8 H :    0.311775
   9 H :    0.125921
  10 H :    0.121329
  11 H :    0.109490
Sum of atomic charges:    0.0000000

LOEWDIN ATOMIC CHARGES
----------------------
   0 C :   -0.004322
   1 O :   -0.003281
   2 H :   -0.021735
   3 H :   -0.000067
   4 H :   -0.001109
   5 H :   -0.000281
   6 C :   -0.333230
   7 O :   -0.097488
   8 H :    0.165822
   9 H :    0.107379
  10 H :    0.090137
  11 H :    0.098176

  Mayer bond orders larger than 0.1
B(  6-C ,  7-O ) :   0.9811 B(  6-C ,  9-H ) :   0.9772 B(  6-C , 10-H ) :   0.9715
B(  6-C , 11-H ) :   0.9752 B(  7-O ,  8-H ) :   0.9016

Dispersion correction           -0.000259032
FINAL SINGLE POINT ENERGY      -115.733189967661

DIPOLE MOMENT
-------------
                                X             Y             Z
Electronic contribution:     -1.56631       0.20815       0.82171
Nuclear contribution   :      2.02757       0.22414      -1.23621
                        -----------------------------------------
Total Dipole Moment    :      0.46127       0.43230      -0.41450
                        -----------------------------------------
Magnitude (a.u.)       :      0.75595
Magnitude (Debye)      :      1.92147

Rotational constants in cm-1:     4.377102     0.779532     0.747831
Rotational constants in MHz : 131222.219904 23369.794712 22419.412420

                             ****ORCA TERMINATED NORMALLY****
TOTAL RUN TIME: 0 days 0 hours 1 minutes 6 seconds 216 msec
