                         Program Version 4.1.2  - RELEASE  -
|  1> #Run DFT-D3 single point of the dimer
|  2> ! wB97X-D3 def2-TZVP TIGHTSCF CHELPG PMODEL PAL8
|  3>
|  4> %base "20-210_DFT_AB"
|  5>
|  6> %scf
|  7> MaxIter 1000
|  8> end
|  9>
| 10> * xyz 0 1
| 11>   C                      1.531525             0.033829             -4.259971
| 12>   O                      2.307821             0.669970             -3.214208
| 13>   H                      1.640530             1.240165             -2.764406
| 14>   H                      1.314484             0.738078             -5.066417
| 15>   H                      2.103369             -0.772283            -4.715026
| 16>   H                      0.554897             -0.284237            -3.949074
| 17>   C                      1.020687             2.972538             -0.782984
| 18>   O                      0.345693             2.531546             -1.988019
| 19>   H                      -0.473600            3.038289             -2.076340
| 20>   H                      1.187707             2.209235             -0.070315
| 21>   H                      2.030811             3.457052             -0.969221
| 22>   H                      0.326062             3.697414             -0.317371
| 23> *
| 24>
| 25> #Run DFT-D3 single point of the molecule with dimer basis set
| 26> $new_job
| 27> %base "20-210_DFT_A"
| 28> ! wB97X-D3 def2-TZVP TIGHTSCF CHELPG PMODEL
| 29>
| 30> %scf
| 31> MaxIter 1000
| 32> end
| 33>
| 34> * xyz 0 1
| 35>   C                      1.531525             0.033829             -4.259971
| 36>   O                      2.307821             0.669970             -3.214208
| 37>   H                      1.640530             1.240165             -2.764406
| 38>   H                      1.314484             0.738078             -5.066417
| 39>   H                      2.103369             -0.772283            -4.715026
| 40>   H                      0.554897             -0.284237            -3.949074
| 41>   C                    : 1.020687             2.972538             -0.782984
| 42>   O                    : 0.345693             2.531546             -1.988019
| 43>   H                    : -0.473600            3.038289             -2.076340
| 44>   H                    : 1.187707             2.209235             -0.070315
| 45>   H                    : 2.030811             3.457052             -0.969221
| 46>   H                    : 0.326062             3.697414             -0.317371
| 47> *
| 48>
| 49> #Run DFT-D3 single point of the particle with dimer basis set
| 50> $new_job
| 51> %base "20-210_DFT_B"
| 52> ! wB97X-D3 def2-TZVP TIGHTSCF CHELPG PMODEL
| 53>
| 54> %scf
| 55> MaxIter 1000
| 56> end
| 57>
| 58> * xyz 0 1
| 59>   C                    : 1.531525             0.033829             -4.259971
| 60>   O                    : 2.307821             0.669970             -3.214208
| 61>   H                    : 1.640530             1.240165             -2.764406
| 62>   H                    : 1.314484             0.738078             -5.066417
| 63>   H                    : 2.103369             -0.772283            -4.715026
| 64>   H                    : 0.554897             -0.284237            -3.949074
| 65>   C                      1.020687             2.972538             -0.782984
| 66>   O                      0.345693             2.531546             -1.988019
| 67>   H                      -0.473600            3.038289             -2.076340
| 68>   H                      1.187707             2.209235             -0.070315
| 69>   H                      2.030811             3.457052             -0.969221
| 70>   H                      0.326062             3.697414             -0.317371
| 71> *
| 72>
| 73>                          ****END OF INPUT****
 Total Charge           Charge          ....    0
 Multiplicity           Mult            ....    1
 Number of Electrons    NEL             ....   36
Dispersion correction           -0.001720851
FINAL SINGLE POINT ENERGY      -231.472110397195
Dispersion correction           -0.000243082
FINAL SINGLE POINT ENERGY      -115.733435045095

CARTESIAN COORDINATES (ANGSTROEM)
---------------------------------
  C      1.531525    0.033829   -4.259971
  O      2.307821    0.669970   -3.214208
  H      1.640530    1.240165   -2.764406
  H      1.314484    0.738078   -5.066417
  H      2.103369   -0.772283   -4.715026
  H      0.554897   -0.284237   -3.949074
  C      1.020687    2.972538   -0.782984
  O      0.345693    2.531546   -1.988019
  H     -0.473600    3.038289   -2.076340
  H      1.187707    2.209235   -0.070315
  H      2.030811    3.457052   -0.969221
  H      0.326062    3.697414   -0.317371

 Multiplicity           Mult            ....    1
 Number of Electrons    NEL             ....   18
 Basis Dimension        Dim             ....  172

ORBITAL ENERGIES
----------------

  NO   OCC          E(Eh)            E(eV)
   0   2.0000     -19.231038      -523.3031
   1   2.0000     -10.319532      -280.8087
   2   2.0000      -1.124801       -30.6074
   3   2.0000      -0.795947       -21.6588
   4   2.0000      -0.603664       -16.4265
   5   2.0000      -0.537069       -14.6144
   6   2.0000      -0.530166       -14.4266
   7   2.0000      -0.428790       -11.6680
   8   2.0000      -0.376089       -10.2339
   9   0.0000       0.098452         2.6790
  10   0.0000       0.120609         3.2819
  11   0.0000       0.145741         3.9658
  12   0.0000       0.188280         5.1234
  13   0.0000       0.203062         5.5256

MULLIKEN ATOMIC CHARGES
-----------------------
   0 C :    0.002976
   1 O :   -0.000993
   2 H :   -0.002612
   3 H :   -0.001271
   4 H :   -0.000203
   5 H :   -0.002580
   6 C :   -0.175681
   7 O :   -0.476279
   8 H :    0.314880
   9 H :    0.123803
  10 H :    0.112262
  11 H :    0.105699
Sum of atomic charges:    0.0000000

LOEWDIN ATOMIC CHARGES
----------------------
   0 C :   -0.003764
   1 O :   -0.002768
   2 H :   -0.032167
   3 H :   -0.000326
   4 H :   -0.000044
   5 H :   -0.000870
   6 C :   -0.356828
   7 O :   -0.077733
   8 H :    0.170813
   9 H :    0.092029
  10 H :    0.108794
  11 H :    0.102863

  Mayer bond orders larger than 0.1
B(  6-C ,  7-O ) :   1.0038 B(  6-C ,  9-H ) :   0.9730 B(  6-C , 10-H ) :   0.9723
B(  6-C , 11-H ) :   0.9851 B(  7-O ,  8-H ) :   0.9003

Dispersion correction           -0.000263145
FINAL SINGLE POINT ENERGY      -115.730345350705

DIPOLE MOMENT
-------------
                                X             Y             Z
Electronic contribution:     -0.69770      -0.73502      -1.53093
Nuclear contribution   :      0.43049       1.24259       2.00207
                        -----------------------------------------
Total Dipole Moment    :     -0.26721       0.50756       0.47114
                        -----------------------------------------
Magnitude (a.u.)       :      0.74229
Magnitude (Debye)      :      1.88676

Rotational constants in cm-1:     4.285485     0.795643     0.765353
Rotational constants in MHz : 128475.600388 23852.768008 22944.707253

                             ****ORCA TERMINATED NORMALLY****
TOTAL RUN TIME: 0 days 0 hours 1 minutes 0 seconds 187 msec
