                         Program Version 4.1.2  - RELEASE  -
|  1> #Run DFT-D3 single point of the dimer
|  2> ! wB97X-D3 def2-TZVP TIGHTSCF CHELPG PMODEL PAL8
|  3>
|  4> %base "17-18_DFT_AB"
|  5>
|  6> %scf
|  7> MaxIter 1000
|  8> end
|  9>
| 10> * xyz 0 1
| 11>   C                      -4.021581            2.799748             -3.951247
| 12>   O                      -3.968984            3.408857             -2.693875
| 13>   H                      -3.428997            4.133400             -2.976944
| 14>   H                      -4.837682            2.116741             -4.115847
| 15>   H                      -4.388551            3.544017             -4.698766
| 16>   H                      -3.031499            2.512948             -4.232440
| 17>   C                      -5.029409            7.140307             0.230645
| 18>   O                      -4.528668            6.399500             -0.843343
| 19>   H                      -5.133241            6.355944             -1.571770
| 20>   H                      -4.607579            8.125163             0.355896
| 21>   H                      -6.080625            7.279738             -0.019512
| 22>   H                      -5.097532            6.494888             1.135845
| 23> *
| 24>
| 25> #Run DFT-D3 single point of the molecule with dimer basis set
| 26> $new_job
| 27> %base "17-18_DFT_A"
| 28> ! wB97X-D3 def2-TZVP TIGHTSCF CHELPG PMODEL
| 29>
| 30> %scf
| 31> MaxIter 1000
| 32> end
| 33>
| 34> * xyz 0 1
| 35>   C                      -4.021581            2.799748             -3.951247
| 36>   O                      -3.968984            3.408857             -2.693875
| 37>   H                      -3.428997            4.133400             -2.976944
| 38>   H                      -4.837682            2.116741             -4.115847
| 39>   H                      -4.388551            3.544017             -4.698766
| 40>   H                      -3.031499            2.512948             -4.232440
| 41>   C                    : -5.029409            7.140307             0.230645
| 42>   O                    : -4.528668            6.399500             -0.843343
| 43>   H                    : -5.133241            6.355944             -1.571770
| 44>   H                    : -4.607579            8.125163             0.355896
| 45>   H                    : -6.080625            7.279738             -0.019512
| 46>   H                    : -5.097532            6.494888             1.135845
| 47> *
| 48>
| 49> #Run DFT-D3 single point of the particle with dimer basis set
| 50> $new_job
| 51> %base "17-18_DFT_B"
| 52> ! wB97X-D3 def2-TZVP TIGHTSCF CHELPG PMODEL
| 53>
| 54> %scf
| 55> MaxIter 1000
| 56> end
| 57>
| 58> * xyz 0 1
| 59>   C                    : -4.021581            2.799748             -3.951247
| 60>   O                    : -3.968984            3.408857             -2.693875
| 61>   H                    : -3.428997            4.133400             -2.976944
| 62>   H                    : -4.837682            2.116741             -4.115847
| 63>   H                    : -4.388551            3.544017             -4.698766
| 64>   H                    : -3.031499            2.512948             -4.232440
| 65>   C                      -5.029409            7.140307             0.230645
| 66>   O                      -4.528668            6.399500             -0.843343
| 67>   H                      -5.133241            6.355944             -1.571770
| 68>   H                      -4.607579            8.125163             0.355896
| 69>   H                      -6.080625            7.279738             -0.019512
| 70>   H                      -5.097532            6.494888             1.135845
| 71> *
| 72>
| 73>                          ****END OF INPUT****
 Total Charge           Charge          ....    0
 Multiplicity           Mult            ....    1
 Number of Electrons    NEL             ....   36
Dispersion correction           -0.000976897
FINAL SINGLE POINT ENERGY      -231.451175852386
Dispersion correction           -0.000191094
FINAL SINGLE POINT ENERGY      -115.721748717750

CARTESIAN COORDINATES (ANGSTROEM)
---------------------------------
  C     -4.021581    2.799748   -3.951247
  O     -3.968984    3.408857   -2.693875
  H     -3.428997    4.133400   -2.976944
  H     -4.837682    2.116741   -4.115847
  H     -4.388551    3.544017   -4.698766
  H     -3.031499    2.512948   -4.232440
  C     -5.029409    7.140307    0.230645
  O     -4.528668    6.399500   -0.843343
  H     -5.133241    6.355944   -1.571770
  H     -4.607579    8.125163    0.355896
  H     -6.080625    7.279738   -0.019512
  H     -5.097532    6.494888    1.135845

 Multiplicity           Mult            ....    1
 Number of Electrons    NEL             ....   18
 Basis Dimension        Dim             ....  172

ORBITAL ENERGIES
----------------

  NO   OCC          E(Eh)            E(eV)
   0   2.0000     -19.224651      -523.1294
   1   2.0000     -10.312586      -280.6197
   2   2.0000      -1.140425       -31.0325
   3   2.0000      -0.797056       -21.6890
   4   2.0000      -0.617072       -16.7914
   5   2.0000      -0.553960       -15.0740
   6   2.0000      -0.526632       -14.3304
   7   2.0000      -0.414318       -11.2742
   8   2.0000      -0.376732       -10.2514
   9   0.0000       0.088107         2.3975
  10   0.0000       0.115746         3.1496
  11   0.0000       0.152433         4.1479
  12   0.0000       0.182890         4.9767
  13   0.0000       0.197304         5.3689

MULLIKEN ATOMIC CHARGES
-----------------------
   0 C :   -0.000120
   1 O :   -0.000597
   2 H :   -0.001863
   3 H :    0.000016
   4 H :    0.000005
   5 H :   -0.000007
   6 C :   -0.153259
   7 O :   -0.483605
   8 H :    0.321218
   9 H :    0.111173
  10 H :    0.096507
  11 H :    0.110534
Sum of atomic charges:   -0.0000000

LOEWDIN ATOMIC CHARGES
----------------------
   0 C :   -0.000110
   1 O :   -0.001216
   2 H :   -0.001590
   3 H :   -0.000002
   4 H :   -0.000004
   5 H :   -0.000002
   6 C :   -0.392995
   7 O :   -0.065893
   8 H :    0.161536
   9 H :    0.095390
  10 H :    0.097115
  11 H :    0.107774

  Mayer bond orders larger than 0.1
B(  6-C ,  7-O ) :   1.0043 B(  6-C ,  9-H ) :   0.9647 B(  6-C , 10-H ) :   0.9992
B(  6-C , 11-H ) :   0.9726 B(  7-O ,  8-H ) :   0.8962

Dispersion correction           -0.000235888
FINAL SINGLE POINT ENERGY      -115.728866772647

DIPOLE MOMENT
-------------
                                X             Y             Z
Electronic contribution:      0.94102      -0.85695      -1.23529
Nuclear contribution   :     -1.59139       1.13222       1.16667
                        -----------------------------------------
Total Dipole Moment    :     -0.65038       0.27527      -0.06862
                        -----------------------------------------
Magnitude (a.u.)       :      0.70955
Magnitude (Debye)      :      1.80354

Rotational constants in cm-1:     4.345943     0.839692     0.825770
Rotational constants in MHz : 130288.098870 25173.338235 24755.950354

                             ****ORCA TERMINATED NORMALLY****
TOTAL RUN TIME: 0 days 0 hours 0 minutes 58 seconds 701 msec
