                         Program Version 4.1.2  - RELEASE  -
|  1> #Run DFT-D3 single point of the dimer
|  2> ! wB97X-D3 def2-TZVP TIGHTSCF CHELPG PMODEL PAL8
|  3>
|  4> %base "7-214_DFT_AB"
|  5>
|  6> %scf
|  7> MaxIter 1000
|  8> end
|  9>
| 10> * xyz 0 1
| 11>   C                      0.090577             -8.911313            5.724493
| 12>   O                      1.384767             -9.518821            5.789049
| 13>   H                      1.330785             -10.387467           6.226583
| 14>   H                      -0.151958            -8.289754            6.611243
| 15>   H                      0.043024             -8.282204            4.827034
| 16>   H                      -0.627127            -9.663993            5.696281
| 17>   C                      3.589931             -8.780427            2.342140
| 18>   O                      2.650353             -9.661598            2.915198
| 19>   H                      2.204613             -9.230959            3.598600
| 20>   H                      4.248525             -9.402743            1.656322
| 21>   H                      3.164319             -8.022571            1.708616
| 22>   H                      4.228216             -8.361015            3.141949
| 23> *
| 24>
| 25> #Run DFT-D3 single point of the molecule with dimer basis set
| 26> $new_job
| 27> %base "7-214_DFT_A"
| 28> ! wB97X-D3 def2-TZVP TIGHTSCF CHELPG PMODEL
| 29>
| 30> %scf
| 31> MaxIter 1000
| 32> end
| 33>
| 34> * xyz 0 1
| 35>   C                      0.090577             -8.911313            5.724493
| 36>   O                      1.384767             -9.518821            5.789049
| 37>   H                      1.330785             -10.387467           6.226583
| 38>   H                      -0.151958            -8.289754            6.611243
| 39>   H                      0.043024             -8.282204            4.827034
| 40>   H                      -0.627127            -9.663993            5.696281
| 41>   C                    : 3.589931             -8.780427            2.342140
| 42>   O                    : 2.650353             -9.661598            2.915198
| 43>   H                    : 2.204613             -9.230959            3.598600
| 44>   H                    : 4.248525             -9.402743            1.656322
| 45>   H                    : 3.164319             -8.022571            1.708616
| 46>   H                    : 4.228216             -8.361015            3.141949
| 47> *
| 48>
| 49> #Run DFT-D3 single point of the particle with dimer basis set
| 50> $new_job
| 51> %base "7-214_DFT_B"
| 52> ! wB97X-D3 def2-TZVP TIGHTSCF CHELPG PMODEL
| 53>
| 54> %scf
| 55> MaxIter 1000
| 56> end
| 57>
| 58> * xyz 0 1
| 59>   C                    : 0.090577             -8.911313            5.724493
| 60>   O                    : 1.384767             -9.518821            5.789049
| 61>   H                    : 1.330785             -10.387467           6.226583
| 62>   H                    : -0.151958            -8.289754            6.611243
| 63>   H                    : 0.043024             -8.282204            4.827034
| 64>   H                    : -0.627127            -9.663993            5.696281
| 65>   C                      3.589931             -8.780427            2.342140
| 66>   O                      2.650353             -9.661598            2.915198
| 67>   H                      2.204613             -9.230959            3.598600
| 68>   H                      4.248525             -9.402743            1.656322
| 69>   H                      3.164319             -8.022571            1.708616
| 70>   H                      4.228216             -8.361015            3.141949
| 71> *
| 72>
| 73>                          ****END OF INPUT****
 Total Charge           Charge          ....    0
 Multiplicity           Mult            ....    1
 Number of Electrons    NEL             ....   36
Dispersion correction           -0.001503006
FINAL SINGLE POINT ENERGY      -231.472585411906
Dispersion correction           -0.000247892
FINAL SINGLE POINT ENERGY      -115.733579635288

CARTESIAN COORDINATES (ANGSTROEM)
---------------------------------
  C      0.090577   -8.911313    5.724493
  O      1.384767   -9.518821    5.789049
  H      1.330785  -10.387467    6.226583
  H     -0.151958   -8.289754    6.611243
  H      0.043024   -8.282204    4.827034
  H     -0.627127   -9.663993    5.696281
  C      3.589931   -8.780427    2.342140
  O      2.650353   -9.661598    2.915198
  H      2.204613   -9.230959    3.598600
  H      4.248525   -9.402743    1.656322
  H      3.164319   -8.022571    1.708616
  H      4.228216   -8.361015    3.141949

 Multiplicity           Mult            ....    1
 Number of Electrons    NEL             ....   18
 Basis Dimension        Dim             ....  172

ORBITAL ENERGIES
----------------

  NO   OCC          E(Eh)            E(eV)
   0   2.0000     -19.226300      -523.1742
   1   2.0000     -10.317072      -280.7418
   2   2.0000      -1.144555       -31.1449
   3   2.0000      -0.796823       -21.6827
   4   2.0000      -0.614484       -16.7210
   5   2.0000      -0.549725       -14.9588
   6   2.0000      -0.522285       -14.2121
   7   2.0000      -0.428877       -11.6703
   8   2.0000      -0.376878       -10.2554
   9   0.0000       0.075095         2.0434
  10   0.0000       0.130825         3.5599
  11   0.0000       0.155729         4.2376
  12   0.0000       0.163943         4.4611
  13   0.0000       0.196641         5.3509

MULLIKEN ATOMIC CHARGES
-----------------------
   0 C :    0.000017
   1 O :   -0.000734
   2 H :   -0.000356
   3 H :    0.000012
   4 H :   -0.001384
   5 H :   -0.000096
   6 C :   -0.161071
   7 O :   -0.464856
   8 H :    0.304516
   9 H :    0.112505
  10 H :    0.107661
  11 H :    0.103785
Sum of atomic charges:   -0.0000000

LOEWDIN ATOMIC CHARGES
----------------------
   0 C :   -0.002829
   1 O :   -0.006052
   2 H :   -0.000575
   3 H :   -0.000026
   4 H :   -0.001314
   5 H :   -0.000044
   6 C :   -0.386644
   7 O :   -0.050745
   8 H :    0.143598
   9 H :    0.116801
  10 H :    0.089549
  11 H :    0.098282

  Mayer bond orders larger than 0.1
B(  6-C ,  7-O ) :   0.9964 B(  6-C ,  9-H ) :   0.9746 B(  6-C , 10-H ) :   0.9698
B(  6-C , 11-H ) :   0.9818 B(  7-O ,  8-H ) :   0.9122

Dispersion correction           -0.000240564
FINAL SINGLE POINT ENERGY      -115.734116907591

DIPOLE MOMENT
-------------
                                X             Y             Z
Electronic contribution:     -1.24472      -1.10286       0.67485
Nuclear contribution   :      1.33226       1.73018      -0.46551
                        -----------------------------------------
Total Dipole Moment    :      0.08754       0.62732       0.20933
                        -----------------------------------------
Magnitude (a.u.)       :      0.66710
Magnitude (Debye)      :      1.69562

Rotational constants in cm-1:     4.275572     0.834771     0.807361
Rotational constants in MHz : 128178.416859 25025.819127 24204.061588

                             ****ORCA TERMINATED NORMALLY****
TOTAL RUN TIME: 0 days 0 hours 1 minutes 0 seconds 45 msec
