                         Program Version 4.1.2  - RELEASE  -
|  1> #Run DFT-D3 single point of the dimer
|  2> ! wB97X-D3 def2-TZVP TIGHTSCF CHELPG PMODEL PAL8
|  3>
|  4> %base "20-106_DFT_AB"
|  5>
|  6> %scf
|  7> MaxIter 1000
|  8> end
|  9>
| 10> * xyz 0 1
| 11>   C                      9.120961             -6.849547            -2.911448
| 12>   O                      8.104281             -5.987390            -3.377930
| 13>   H                      7.520534             -6.399815            -3.979803
| 14>   H                      9.537305             -6.457883            -1.999201
| 15>   H                      8.666208             -7.838895            -2.838411
| 16>   H                      9.986982             -7.033741            -3.580794
| 17>   C                      5.541731             -4.886957            -5.406933
| 18>   O                      4.165482             -5.073330            -5.385723
| 19>   H                      3.821081             -4.420379            -4.785705
| 20>   H                      5.878551             -3.987001            -5.917667
| 21>   H                      5.869458             -4.938224            -4.330917
| 22>   H                      6.037423             -5.674924            -5.972519
| 23> *
| 24>
| 25> #Run DFT-D3 single point of the molecule with dimer basis set
| 26> $new_job
| 27> %base "20-106_DFT_A"
| 28> ! wB97X-D3 def2-TZVP TIGHTSCF CHELPG PMODEL
| 29>
| 30> %scf
| 31> MaxIter 1000
| 32> end
| 33>
| 34> * xyz 0 1
| 35>   C                      9.120961             -6.849547            -2.911448
| 36>   O                      8.104281             -5.987390            -3.377930
| 37>   H                      7.520534             -6.399815            -3.979803
| 38>   H                      9.537305             -6.457883            -1.999201
| 39>   H                      8.666208             -7.838895            -2.838411
| 40>   H                      9.986982             -7.033741            -3.580794
| 41>   C                    : 5.541731             -4.886957            -5.406933
| 42>   O                    : 4.165482             -5.073330            -5.385723
| 43>   H                    : 3.821081             -4.420379            -4.785705
| 44>   H                    : 5.878551             -3.987001            -5.917667
| 45>   H                    : 5.869458             -4.938224            -4.330917
| 46>   H                    : 6.037423             -5.674924            -5.972519
| 47> *
| 48>
| 49> #Run DFT-D3 single point of the particle with dimer basis set
| 50> $new_job
| 51> %base "20-106_DFT_B"
| 52> ! wB97X-D3 def2-TZVP TIGHTSCF CHELPG PMODEL
| 53>
| 54> %scf
| 55> MaxIter 1000
| 56> end
| 57>
| 58> * xyz 0 1
| 59>   C                    : 9.120961             -6.849547            -2.911448
| 60>   O                    : 8.104281             -5.987390            -3.377930
| 61>   H                    : 7.520534             -6.399815            -3.979803
| 62>   H                    : 9.537305             -6.457883            -1.999201
| 63>   H                    : 8.666208             -7.838895            -2.838411
| 64>   H                    : 9.986982             -7.033741            -3.580794
| 65>   C                      5.541731             -4.886957            -5.406933
| 66>   O                      4.165482             -5.073330            -5.385723
| 67>   H                      3.821081             -4.420379            -4.785705
| 68>   H                      5.878551             -3.987001            -5.917667
| 69>   H                      5.869458             -4.938224            -4.330917
| 70>   H                      6.037423             -5.674924            -5.972519
| 71> *
| 72>
| 73>                          ****END OF INPUT****
 Total Charge           Charge          ....    0
 Multiplicity           Mult            ....    1
 Number of Electrons    NEL             ....   36
Dispersion correction           -0.001375407
FINAL SINGLE POINT ENERGY      -231.466534600216
Dispersion correction           -0.000248629
FINAL SINGLE POINT ENERGY      -115.731953473982

CARTESIAN COORDINATES (ANGSTROEM)
---------------------------------
  C      9.120961   -6.849547   -2.911448
  O      8.104281   -5.987390   -3.377930
  H      7.520534   -6.399815   -3.979803
  H      9.537305   -6.457883   -1.999201
  H      8.666208   -7.838895   -2.838411
  H      9.986982   -7.033741   -3.580794
  C      5.541731   -4.886957   -5.406933
  O      4.165482   -5.073330   -5.385723
  H      3.821081   -4.420379   -4.785705
  H      5.878551   -3.987001   -5.917667
  H      5.869458   -4.938224   -4.330917
  H      6.037423   -5.674924   -5.972519

 Multiplicity           Mult            ....    1
 Number of Electrons    NEL             ....   18
 Basis Dimension        Dim             ....  172

ORBITAL ENERGIES
----------------

  NO   OCC          E(Eh)            E(eV)
   0   2.0000     -19.229390      -523.2583
   1   2.0000     -10.312982      -280.6305
   2   2.0000      -1.147549       -31.2264
   3   2.0000      -0.792976       -21.5780
   4   2.0000      -0.612061       -16.6550
   5   2.0000      -0.552173       -15.0254
   6   2.0000      -0.530021       -14.4226
   7   2.0000      -0.428973       -11.6730
   8   2.0000      -0.372774       -10.1437
   9   0.0000       0.087632         2.3846
  10   0.0000       0.116346         3.1659
  11   0.0000       0.147997         4.0272
  12   0.0000       0.184192         5.0121
  13   0.0000       0.193318         5.2605

MULLIKEN ATOMIC CHARGES
-----------------------
   0 C :   -0.000375
   1 O :    0.000005
   2 H :   -0.003258
   3 H :    0.000028
   4 H :    0.000000
   5 H :   -0.000016
   6 C :   -0.158666
   7 O :   -0.459639
   8 H :    0.314524
   9 H :    0.095788
  10 H :    0.096082
  11 H :    0.115527
Sum of atomic charges:   -0.0000000

LOEWDIN ATOMIC CHARGES
----------------------
   0 C :   -0.000239
   1 O :   -0.004529
   2 H :   -0.008807
   3 H :   -0.000007
   4 H :   -0.000006
   5 H :   -0.000006
   6 C :   -0.404840
   7 O :   -0.053869
   8 H :    0.166650
   9 H :    0.091007
  10 H :    0.106579
  11 H :    0.108067

  Mayer bond orders larger than 0.1
B(  6-C ,  7-O ) :   1.0049 B(  6-C ,  9-H ) :   0.9643 B(  6-C , 10-H ) :   0.9910
B(  6-C , 11-H ) :   0.9727 B(  7-O ,  8-H ) :   0.9011

Dispersion correction           -0.000222989
FINAL SINGLE POINT ENERGY      -115.733338127432

DIPOLE MOMENT
-------------
                                X             Y             Z
Electronic contribution:     -1.81482      -0.30993      -0.12024
Nuclear contribution   :      2.10925       0.78005       0.46936
                        -----------------------------------------
Total Dipole Moment    :      0.29443       0.47011       0.34911
                        -----------------------------------------
Magnitude (a.u.)       :      0.65542
Magnitude (Debye)      :      1.66595

Rotational constants in cm-1:     4.254128     0.856526     0.828720
Rotational constants in MHz : 127535.543000 25678.012952 24844.403098

                             ****ORCA TERMINATED NORMALLY****
TOTAL RUN TIME: 0 days 0 hours 0 minutes 57 seconds 658 msec
