                         Program Version 4.1.2  - RELEASE  -
|  1> #Run DFT-D3 single point of the dimer
|  2> ! wB97X-D3 def2-TZVP TIGHTSCF CHELPG PMODEL PAL8
|  3>
|  4> %base "11-81_DFT_AB"
|  5>
|  6> %scf
|  7> MaxIter 1000
|  8> end
|  9>
| 10> * xyz 0 1
| 11>   C                      8.208089             3.975349             -1.861267
| 12>   O                      7.813825             2.619600             -2.292651
| 13>   H                      7.000944             2.319256             -1.900115
| 14>   H                      8.304451             4.108650             -0.728916
| 15>   H                      9.262322             4.143959             -2.354098
| 16>   H                      7.514508             4.812777             -2.164203
| 17>   C                      7.977411             4.604225             -6.683643
| 18>   O                      7.874482             5.747170             -5.875177
| 19>   H                      8.627188             6.287161             -6.094258
| 20>   H                      7.105510             4.039760             -6.817862
| 21>   H                      8.320748             4.846511             -7.712900
| 22>   H                      8.779991             3.915354             -6.304353
| 23> *
| 24>
| 25> #Run DFT-D3 single point of the molecule with dimer basis set
| 26> $new_job
| 27> %base "11-81_DFT_A"
| 28> ! wB97X-D3 def2-TZVP TIGHTSCF CHELPG PMODEL
| 29>
| 30> %scf
| 31> MaxIter 1000
| 32> end
| 33>
| 34> * xyz 0 1
| 35>   C                      8.208089             3.975349             -1.861267
| 36>   O                      7.813825             2.619600             -2.292651
| 37>   H                      7.000944             2.319256             -1.900115
| 38>   H                      8.304451             4.108650             -0.728916
| 39>   H                      9.262322             4.143959             -2.354098
| 40>   H                      7.514508             4.812777             -2.164203
| 41>   C                    : 7.977411             4.604225             -6.683643
| 42>   O                    : 7.874482             5.747170             -5.875177
| 43>   H                    : 8.627188             6.287161             -6.094258
| 44>   H                    : 7.105510             4.039760             -6.817862
| 45>   H                    : 8.320748             4.846511             -7.712900
| 46>   H                    : 8.779991             3.915354             -6.304353
| 47> *
| 48>
| 49> #Run DFT-D3 single point of the particle with dimer basis set
| 50> $new_job
| 51> %base "11-81_DFT_B"
| 52> ! wB97X-D3 def2-TZVP TIGHTSCF CHELPG PMODEL
| 53>
| 54> %scf
| 55> MaxIter 1000
| 56> end
| 57>
| 58> * xyz 0 1
| 59>   C                    : 8.208089             3.975349             -1.861267
| 60>   O                    : 7.813825             2.619600             -2.292651
| 61>   H                    : 7.000944             2.319256             -1.900115
| 62>   H                    : 8.304451             4.108650             -0.728916
| 63>   H                    : 9.262322             4.143959             -2.354098
| 64>   H                    : 7.514508             4.812777             -2.164203
| 65>   C                      7.977411             4.604225             -6.683643
| 66>   O                      7.874482             5.747170             -5.875177
| 67>   H                      8.627188             6.287161             -6.094258
| 68>   H                      7.105510             4.039760             -6.817862
| 69>   H                      8.320748             4.846511             -7.712900
| 70>   H                      8.779991             3.915354             -6.304353
| 71> *
| 72>
| 73>                          ****END OF INPUT****
 Total Charge           Charge          ....    0
 Multiplicity           Mult            ....    1
 Number of Electrons    NEL             ....   36
Dispersion correction           -0.001037733
FINAL SINGLE POINT ENERGY      -231.459518661945
Dispersion correction           -0.000325897
FINAL SINGLE POINT ENERGY      -115.726426889225

CARTESIAN COORDINATES (ANGSTROEM)
---------------------------------
  C      8.208089    3.975349   -1.861267
  O      7.813825    2.619600   -2.292651
  H      7.000944    2.319256   -1.900115
  H      8.304451    4.108650   -0.728916
  H      9.262322    4.143959   -2.354098
  H      7.514508    4.812777   -2.164203
  C      7.977411    4.604225   -6.683643
  O      7.874482    5.747170   -5.875177
  H      8.627188    6.287161   -6.094258
  H      7.105510    4.039760   -6.817862
  H      8.320748    4.846511   -7.712900
  H      8.779991    3.915354   -6.304353

 Multiplicity           Mult            ....    1
 Number of Electrons    NEL             ....   18
 Basis Dimension        Dim             ....  172

ORBITAL ENERGIES
----------------

  NO   OCC          E(Eh)            E(eV)
   0   2.0000     -19.232930      -523.3546
   1   2.0000     -10.313196      -280.6363
   2   2.0000      -1.144029       -31.1306
   3   2.0000      -0.797653       -21.7053
   4   2.0000      -0.615519       -16.7491
   5   2.0000      -0.542889       -14.7727
   6   2.0000      -0.531072       -14.4512
   7   2.0000      -0.437439       -11.9033
   8   2.0000      -0.372015       -10.1231
   9   0.0000       0.089765         2.4426
  10   0.0000       0.116970         3.1829
  11   0.0000       0.152425         4.1477
  12   0.0000       0.168688         4.5902
  13   0.0000       0.187971         5.1149

MULLIKEN ATOMIC CHARGES
-----------------------
   0 C :   -0.000265
   1 O :   -0.000012
   2 H :   -0.000005
   3 H :   -0.000098
   4 H :   -0.000266
   5 H :   -0.001002
   6 C :   -0.176712
   7 O :   -0.464544
   8 H :    0.317984
   9 H :    0.128302
  10 H :    0.098086
  11 H :    0.098532
Sum of atomic charges:   -0.0000000

LOEWDIN ATOMIC CHARGES
----------------------
   0 C :   -0.000869
   1 O :   -0.000026
   2 H :   -0.000002
   3 H :   -0.000020
   4 H :   -0.000166
   5 H :   -0.000610
   6 C :   -0.396163
   7 O :   -0.062957
   8 H :    0.168852
   9 H :    0.095650
  10 H :    0.097303
  11 H :    0.099006

  Mayer bond orders larger than 0.1
B(  6-C ,  7-O ) :   0.9981 B(  6-C ,  9-H ) :   0.9717 B(  6-C , 10-H ) :   0.9807
B(  6-C , 11-H ) :   0.9779 B(  7-O ,  8-H ) :   0.8992

Dispersion correction           -0.000235617
FINAL SINGLE POINT ENERGY      -115.732373982195

DIPOLE MOMENT
-------------
                                X             Y             Z
Electronic contribution:     -0.45256       1.49214       1.19575
Nuclear contribution   :      0.94930      -1.58244      -1.66857
                        -----------------------------------------
Total Dipole Moment    :      0.49674      -0.09030      -0.47282
                        -----------------------------------------
Magnitude (a.u.)       :      0.69171
Magnitude (Debye)      :      1.75819

Rotational constants in cm-1:     4.396987     0.834153     0.806064
Rotational constants in MHz : 131818.356057 25007.279655 24165.180261

                             ****ORCA TERMINATED NORMALLY****
TOTAL RUN TIME: 0 days 0 hours 1 minutes 11 seconds 635 msec
