                         Program Version 4.1.2  - RELEASE  -
|  1> #Run DFT-D3 single point of the dimer
|  2> ! wB97X-D3 def2-TZVP TIGHTSCF CHELPG PMODEL PAL8
|  3>
|  4> %base "2-134_DFT_AB"
|  5>
|  6> %scf
|  7> MaxIter 1000
|  8> end
|  9>
| 10> * xyz 0 1
| 11>   C                      -0.374480            -9.771720            -0.426842
| 12>   O                      -1.356860            -10.419149           -1.161084
| 13>   H                      -2.105428            -10.409884           -0.526393
| 14>   H                      -0.582705            -8.711593            -0.219260
| 15>   H                      -0.288451            -10.241618           0.570621
| 16>   H                      0.529468             -9.875784            -0.950636
| 17>   C                      -2.659229            -6.784387            -1.729437
| 18>   O                      -3.420022            -7.948916            -1.735076
| 19>   H                      -2.863842            -8.505846            -1.195786
| 20>   H                      -2.262641            -6.660623            -2.744565
| 21>   H                      -3.269731            -5.890599            -1.571126
| 22>   H                      -1.812656            -6.784619            -1.019134
| 23> *
| 24>
| 25> #Run DFT-D3 single point of the molecule with dimer basis set
| 26> $new_job
| 27> %base "2-134_DFT_A"
| 28> ! wB97X-D3 def2-TZVP TIGHTSCF CHELPG PMODEL
| 29>
| 30> %scf
| 31> MaxIter 1000
| 32> end
| 33>
| 34> * xyz 0 1
| 35>   C                      -0.374480            -9.771720            -0.426842
| 36>   O                      -1.356860            -10.419149           -1.161084
| 37>   H                      -2.105428            -10.409884           -0.526393
| 38>   H                      -0.582705            -8.711593            -0.219260
| 39>   H                      -0.288451            -10.241618           0.570621
| 40>   H                      0.529468             -9.875784            -0.950636
| 41>   C                    : -2.659229            -6.784387            -1.729437
| 42>   O                    : -3.420022            -7.948916            -1.735076
| 43>   H                    : -2.863842            -8.505846            -1.195786
| 44>   H                    : -2.262641            -6.660623            -2.744565
| 45>   H                    : -3.269731            -5.890599            -1.571126
| 46>   H                    : -1.812656            -6.784619            -1.019134
| 47> *
| 48>
| 49> #Run DFT-D3 single point of the particle with dimer basis set
| 50> $new_job
| 51> %base "2-134_DFT_B"
| 52> ! wB97X-D3 def2-TZVP TIGHTSCF CHELPG PMODEL
| 53>
| 54> %scf
| 55> MaxIter 1000
| 56> end
| 57>
| 58> * xyz 0 1
| 59>   C                    : -0.374480            -9.771720            -0.426842
| 60>   O                    : -1.356860            -10.419149           -1.161084
| 61>   H                    : -2.105428            -10.409884           -0.526393
| 62>   H                    : -0.582705            -8.711593            -0.219260
| 63>   H                    : -0.288451            -10.241618           0.570621
| 64>   H                    : 0.529468             -9.875784            -0.950636
| 65>   C                      -2.659229            -6.784387            -1.729437
| 66>   O                      -3.420022            -7.948916            -1.735076
| 67>   H                      -2.863842            -8.505846            -1.195786
| 68>   H                      -2.262641            -6.660623            -2.744565
| 69>   H                      -3.269731            -5.890599            -1.571126
| 70>   H                      -1.812656            -6.784619            -1.019134
| 71> *
| 72>
| 73>                          ****END OF INPUT****
 Total Charge           Charge          ....    0
 Multiplicity           Mult            ....    1
 Number of Electrons    NEL             ....   36
Dispersion correction           -0.001956671
FINAL SINGLE POINT ENERGY      -231.464691836281
Dispersion correction           -0.000205774
FINAL SINGLE POINT ENERGY      -115.733268633877

CARTESIAN COORDINATES (ANGSTROEM)
---------------------------------
  C     -0.374480   -9.771720   -0.426842
  O     -1.356860  -10.419149   -1.161084
  H     -2.105428  -10.409884   -0.526393
  H     -0.582705   -8.711593   -0.219260
  H     -0.288451  -10.241618    0.570621
  H      0.529468   -9.875784   -0.950636
  C     -2.659229   -6.784387   -1.729437
  O     -3.420022   -7.948916   -1.735076
  H     -2.863842   -8.505846   -1.195786
  H     -2.262641   -6.660623   -2.744565
  H     -3.269731   -5.890599   -1.571126
  H     -1.812656   -6.784619   -1.019134

 Multiplicity           Mult            ....    1
 Number of Electrons    NEL             ....   18
 Basis Dimension        Dim             ....  172

ORBITAL ENERGIES
----------------

  NO   OCC          E(Eh)            E(eV)
   0   2.0000     -19.232905      -523.3540
   1   2.0000     -10.312418      -280.6152
   2   2.0000      -1.151885       -31.3444
   3   2.0000      -0.790448       -21.5092
   4   2.0000      -0.618210       -16.8224
   5   2.0000      -0.540083       -14.6964
   6   2.0000      -0.530531       -14.4365
   7   2.0000      -0.445728       -12.1289
   8   2.0000      -0.369839       -10.0638
   9   0.0000       0.069686         1.8963
  10   0.0000       0.139625         3.7994
  11   0.0000       0.144881         3.9424
  12   0.0000       0.178030         4.8444
  13   0.0000       0.185081         5.0363

MULLIKEN ATOMIC CHARGES
-----------------------
   0 C :   -0.002712
   1 O :   -0.000742
   2 H :   -0.000199
   3 H :   -0.000164
   4 H :    0.000044
   5 H :    0.000093
   6 C :   -0.173450
   7 O :   -0.447909
   8 H :    0.312428
   9 H :    0.100774
  10 H :    0.110721
  11 H :    0.101116
Sum of atomic charges:    0.0000000

LOEWDIN ATOMIC CHARGES
----------------------
   0 C :   -0.004524
   1 O :   -0.004803
   2 H :   -0.003644
   3 H :   -0.003613
   4 H :   -0.000028
   5 H :   -0.000043
   6 C :   -0.407772
   7 O :   -0.048210
   8 H :    0.174048
   9 H :    0.098555
  10 H :    0.101161
  11 H :    0.098874

  Mayer bond orders larger than 0.1
B(  6-C ,  7-O ) :   1.0051 B(  6-C ,  9-H ) :   0.9818 B(  6-C , 10-H ) :   0.9761
B(  6-C , 11-H ) :   0.9814 B(  7-O ,  8-H ) :   0.9099

Dispersion correction           -0.000223332
FINAL SINGLE POINT ENERGY      -115.731464379316

DIPOLE MOMENT
-------------
                                X             Y             Z
Electronic contribution:     -1.14439      -1.51586       0.01290
Nuclear contribution   :      1.77077       1.59629       0.32784
                        -----------------------------------------
Total Dipole Moment    :      0.62639       0.08043       0.34074
                        -----------------------------------------
Magnitude (a.u.)       :      0.71759
Magnitude (Debye)      :      1.82397

Rotational constants in cm-1:     4.234636     0.865998     0.824651
Rotational constants in MHz : 126951.192622 25961.953695 24722.401974

                             ****ORCA TERMINATED NORMALLY****
TOTAL RUN TIME: 0 days 0 hours 6 minutes 24 seconds 388 msec
