                         Program Version 4.1.2  - RELEASE  -
|  1> #Run DFT-D3 single point of the dimer
|  2> ! wB97X-D3 def2-TZVP TIGHTSCF CHELPG PMODEL PAL8
|  3>
|  4> %base "12-122_DFT_AB"
|  5>
|  6> %scf
|  7> MaxIter 1000
|  8> end
|  9>
| 10> * xyz 0 1
| 11>   C                      5.041484             0.838788             -10.238675
| 12>   O                      5.819036             1.876236             -9.692237
| 13>   H                      5.582143             1.881685             -8.727786
| 14>   H                      4.053513             1.244202             -10.335477
| 15>   H                      5.368006             0.435696             -11.233262
| 16>   H                      4.956666             -0.013747            -9.578438
| 17>   C                      8.279179             -0.130708            -6.836985
| 18>   O                      6.940537             -0.687971            -6.867043
| 19>   H                      6.345890             0.019245             -6.580589
| 20>   H                      8.565146             0.242757             -5.816725
| 21>   H                      9.006354             -0.914377            -7.006050
| 22>   H                      8.455786             0.688963             -7.595596
| 23> *
| 24>
| 25> #Run DFT-D3 single point of the molecule with dimer basis set
| 26> $new_job
| 27> %base "12-122_DFT_A"
| 28> ! wB97X-D3 def2-TZVP TIGHTSCF CHELPG PMODEL
| 29>
| 30> %scf
| 31> MaxIter 1000
| 32> end
| 33>
| 34> * xyz 0 1
| 35>   C                      5.041484             0.838788             -10.238675
| 36>   O                      5.819036             1.876236             -9.692237
| 37>   H                      5.582143             1.881685             -8.727786
| 38>   H                      4.053513             1.244202             -10.335477
| 39>   H                      5.368006             0.435696             -11.233262
| 40>   H                      4.956666             -0.013747            -9.578438
| 41>   C                    : 8.279179             -0.130708            -6.836985
| 42>   O                    : 6.940537             -0.687971            -6.867043
| 43>   H                    : 6.345890             0.019245             -6.580589
| 44>   H                    : 8.565146             0.242757             -5.816725
| 45>   H                    : 9.006354             -0.914377            -7.006050
| 46>   H                    : 8.455786             0.688963             -7.595596
| 47> *
| 48>
| 49> #Run DFT-D3 single point of the particle with dimer basis set
| 50> $new_job
| 51> %base "12-122_DFT_B"
| 52> ! wB97X-D3 def2-TZVP TIGHTSCF CHELPG PMODEL
| 53>
| 54> %scf
| 55> MaxIter 1000
| 56> end
| 57>
| 58> * xyz 0 1
| 59>   C                    : 5.041484             0.838788             -10.238675
| 60>   O                    : 5.819036             1.876236             -9.692237
| 61>   H                    : 5.582143             1.881685             -8.727786
| 62>   H                    : 4.053513             1.244202             -10.335477
| 63>   H                    : 5.368006             0.435696             -11.233262
| 64>   H                    : 4.956666             -0.013747            -9.578438
| 65>   C                      8.279179             -0.130708            -6.836985
| 66>   O                      6.940537             -0.687971            -6.867043
| 67>   H                      6.345890             0.019245             -6.580589
| 68>   H                      8.565146             0.242757             -5.816725
| 69>   H                      9.006354             -0.914377            -7.006050
| 70>   H                      8.455786             0.688963             -7.595596
| 71> *
| 72>
| 73>                          ****END OF INPUT****
 Total Charge           Charge          ....    0
 Multiplicity           Mult            ....    1
 Number of Electrons    NEL             ....   36
Dispersion correction           -0.001487754
FINAL SINGLE POINT ENERGY      -231.465823677588
Dispersion correction           -0.000223153
FINAL SINGLE POINT ENERGY      -115.730823185259

CARTESIAN COORDINATES (ANGSTROEM)
---------------------------------
  C      5.041484    0.838788  -10.238675
  O      5.819036    1.876236   -9.692237
  H      5.582143    1.881685   -8.727786
  H      4.053513    1.244202  -10.335477
  H      5.368006    0.435696  -11.233262
  H      4.956666   -0.013747   -9.578438
  C      8.279179   -0.130708   -6.836985
  O      6.940537   -0.687971   -6.867043
  H      6.345890    0.019245   -6.580589
  H      8.565146    0.242757   -5.816725
  H      9.006354   -0.914377   -7.006050
  H      8.455786    0.688963   -7.595596

 Multiplicity           Mult            ....    1
 Number of Electrons    NEL             ....   18
 Basis Dimension        Dim             ....  172

ORBITAL ENERGIES
----------------

  NO   OCC          E(Eh)            E(eV)
   0   2.0000     -19.235540      -523.4256
   1   2.0000     -10.322847      -280.8989
   2   2.0000      -1.127053       -30.6687
   3   2.0000      -0.793824       -21.6010
   4   2.0000      -0.601961       -16.3802
   5   2.0000      -0.535698       -14.5771
   6   2.0000      -0.522187       -14.2094
   7   2.0000      -0.436942       -11.8898
   8   2.0000      -0.377738       -10.2788
   9   0.0000       0.083153         2.2627
  10   0.0000       0.124274         3.3817
  11   0.0000       0.146154         3.9771
  12   0.0000       0.171023         4.6538
  13   0.0000       0.192225         5.2307

MULLIKEN ATOMIC CHARGES
-----------------------
   0 C :    0.002541
   1 O :   -0.000096
   2 H :   -0.002180
   3 H :   -0.000177
   4 H :    0.000003
   5 H :   -0.004899
   6 C :   -0.177732
   7 O :   -0.470366
   8 H :    0.316613
   9 H :    0.103689
  10 H :    0.125630
  11 H :    0.106974
Sum of atomic charges:    0.0000000

LOEWDIN ATOMIC CHARGES
----------------------
   0 C :   -0.001307
   1 O :   -0.000222
   2 H :   -0.001390
   3 H :   -0.000013
   4 H :   -0.000006
   5 H :   -0.002145
   6 C :   -0.372557
   7 O :   -0.099868
   8 H :    0.171065
   9 H :    0.099854
  10 H :    0.105326
  11 H :    0.101264

  Mayer bond orders larger than 0.1
B(  6-C ,  7-O ) :   1.0027 B(  6-C ,  9-H ) :   0.9749 B(  6-C , 10-H ) :   0.9745
B(  6-C , 11-H ) :   0.9673 B(  7-O ,  8-H ) :   0.8991

Dispersion correction           -0.000275164
FINAL SINGLE POINT ENERGY      -115.734451873657

DIPOLE MOMENT
-------------
                                X             Y             Z
Electronic contribution:     -1.69780      -0.85942      -0.13292
Nuclear contribution   :      1.88896       1.49859       0.34214
                        -----------------------------------------
Total Dipole Moment    :      0.19116       0.63918       0.20922
                        -----------------------------------------
Magnitude (a.u.)       :      0.69919
Magnitude (Debye)      :      1.77719

Rotational constants in cm-1:     4.211097     0.786077     0.765241
Rotational constants in MHz : 126245.497504 23565.995382 22941.355670

                             ****ORCA TERMINATED NORMALLY****
TOTAL RUN TIME: 0 days 0 hours 1 minutes 4 seconds 3 msec
