                         Program Version 4.1.2  - RELEASE  -
|  1> #Run DFT-D3 single point of the dimer
|  2> ! wB97X-D3 def2-TZVP TIGHTSCF CHELPG PMODEL PAL8
|  3>
|  4> %base "19-191_DFT_AB"
|  5>
|  6> %scf
|  7> MaxIter 1000
|  8> end
|  9>
| 10> * xyz 0 1
| 11>   C                      5.268727             -3.063159            7.449425
| 12>   O                      6.666113             -3.106608            7.276511
| 13>   H                      6.971623             -4.013655            7.312842
| 14>   H                      4.745337             -3.110422            6.493935
| 15>   H                      4.932925             -3.893901            8.091872
| 16>   H                      5.027289             -2.137624            7.948754
| 17>   C                      6.259848             -7.037846            6.112969
| 18>   O                      7.006124             -5.919135            6.482023
| 19>   H                      7.929749             -6.229473            6.582186
| 20>   H                      6.674014             -7.345797            5.130091
| 21>   H                      6.195808             -7.890174            6.877800
| 22>   H                      5.252018             -6.719712            5.820286
| 23> *
| 24>
| 25> #Run DFT-D3 single point of the molecule with dimer basis set
| 26> $new_job
| 27> %base "19-191_DFT_A"
| 28> ! wB97X-D3 def2-TZVP TIGHTSCF CHELPG PMODEL
| 29>
| 30> %scf
| 31> MaxIter 1000
| 32> end
| 33>
| 34> * xyz 0 1
| 35>   C                      5.268727             -3.063159            7.449425
| 36>   O                      6.666113             -3.106608            7.276511
| 37>   H                      6.971623             -4.013655            7.312842
| 38>   H                      4.745337             -3.110422            6.493935
| 39>   H                      4.932925             -3.893901            8.091872
| 40>   H                      5.027289             -2.137624            7.948754
| 41>   C                    : 6.259848             -7.037846            6.112969
| 42>   O                    : 7.006124             -5.919135            6.482023
| 43>   H                    : 7.929749             -6.229473            6.582186
| 44>   H                    : 6.674014             -7.345797            5.130091
| 45>   H                    : 6.195808             -7.890174            6.877800
| 46>   H                    : 5.252018             -6.719712            5.820286
| 47> *
| 48>
| 49> #Run DFT-D3 single point of the particle with dimer basis set
| 50> $new_job
| 51> %base "19-191_DFT_B"
| 52> ! wB97X-D3 def2-TZVP TIGHTSCF CHELPG PMODEL
| 53>
| 54> %scf
| 55> MaxIter 1000
| 56> end
| 57>
| 58> * xyz 0 1
| 59>   C                    : 5.268727             -3.063159            7.449425
| 60>   O                    : 6.666113             -3.106608            7.276511
| 61>   H                    : 6.971623             -4.013655            7.312842
| 62>   H                    : 4.745337             -3.110422            6.493935
| 63>   H                    : 4.932925             -3.893901            8.091872
| 64>   H                    : 5.027289             -2.137624            7.948754
| 65>   C                      6.259848             -7.037846            6.112969
| 66>   O                      7.006124             -5.919135            6.482023
| 67>   H                      7.929749             -6.229473            6.582186
| 68>   H                      6.674014             -7.345797            5.130091
| 69>   H                      6.195808             -7.890174            6.877800
| 70>   H                      5.252018             -6.719712            5.820286
| 71> *
| 72>
| 73>                          ****END OF INPUT****
 Total Charge           Charge          ....    0
 Multiplicity           Mult            ....    1
 Number of Electrons    NEL             ....   36
Dispersion correction           -0.001718352
FINAL SINGLE POINT ENERGY      -231.474144938437
Dispersion correction           -0.000239065
FINAL SINGLE POINT ENERGY      -115.736932702637

CARTESIAN COORDINATES (ANGSTROEM)
---------------------------------
  C      5.268727   -3.063159    7.449425
  O      6.666113   -3.106608    7.276511
  H      6.971623   -4.013655    7.312842
  H      4.745337   -3.110422    6.493935
  H      4.932925   -3.893901    8.091872
  H      5.027289   -2.137624    7.948754
  C      6.259848   -7.037846    6.112969
  O      7.006124   -5.919135    6.482023
  H      7.929749   -6.229473    6.582186
  H      6.674014   -7.345797    5.130091
  H      6.195808   -7.890174    6.877800
  H      5.252018   -6.719712    5.820286

 Multiplicity           Mult            ....    1
 Number of Electrons    NEL             ....   18
 Basis Dimension        Dim             ....  172

ORBITAL ENERGIES
----------------

  NO   OCC          E(Eh)            E(eV)
   0   2.0000     -19.233798      -523.3782
   1   2.0000     -10.319378      -280.8045
   2   2.0000      -1.141647       -31.0658
   3   2.0000      -0.787689       -21.4341
   4   2.0000      -0.606792       -16.5116
   5   2.0000      -0.546540       -14.8721
   6   2.0000      -0.528833       -14.3903
   7   2.0000      -0.427533       -11.6338
   8   2.0000      -0.372700       -10.1417
   9   0.0000       0.098274         2.6742
  10   0.0000       0.123618         3.3638
  11   0.0000       0.150008         4.0819
  12   0.0000       0.188781         5.1370
  13   0.0000       0.197684         5.3793

MULLIKEN ATOMIC CHARGES
-----------------------
   0 C :    0.002929
   1 O :    0.000765
   2 H :   -0.010956
   3 H :   -0.000719
   4 H :   -0.002280
   5 H :   -0.000261
   6 C :   -0.152843
   7 O :   -0.459945
   8 H :    0.317540
   9 H :    0.093531
  10 H :    0.097883
  11 H :    0.114356
Sum of atomic charges:    0.0000000

LOEWDIN ATOMIC CHARGES
----------------------
   0 C :   -0.003859
   1 O :   -0.004520
   2 H :   -0.030903
   3 H :   -0.000205
   4 H :   -0.000845
   5 H :   -0.000054
   6 C :   -0.412219
   7 O :   -0.040625
   8 H :    0.184484
   9 H :    0.098837
  10 H :    0.102164
  11 H :    0.107745

  Mayer bond orders larger than 0.1
B(  6-C ,  7-O ) :   0.9989 B(  6-C ,  9-H ) :   0.9839 B(  6-C , 10-H ) :   0.9620
B(  6-C , 11-H ) :   0.9762 B(  7-O ,  8-H ) :   0.8926

Dispersion correction           -0.000239487
FINAL SINGLE POINT ENERGY      -115.731220760379

DIPOLE MOMENT
-------------
                                X             Y             Z
Electronic contribution:      0.84570       1.52114       0.61487
Nuclear contribution   :     -0.56317      -2.11561      -0.72282
                        -----------------------------------------
Total Dipole Moment    :      0.28252      -0.59447      -0.10795
                        -----------------------------------------
Magnitude (a.u.)       :      0.66698
Magnitude (Debye)      :      1.69534

Rotational constants in cm-1:     4.103882     0.843893     0.820868
Rotational constants in MHz : 123031.295334 25299.263297 24609.005045

                             ****ORCA TERMINATED NORMALLY****
TOTAL RUN TIME: 0 days 0 hours 1 minutes 40 seconds 442 msec
