                         Program Version 4.1.2  - RELEASE  -
|  1> #Run DFT-D3 single point of the dimer
|  2> ! wB97X-D3 def2-TZVP TIGHTSCF CHELPG PMODEL PAL8
|  3>
|  4> %base "1-138_DFT_AB"
|  5>
|  6> %scf
|  7> MaxIter 1000
|  8> end
|  9>
| 10> * xyz 0 1
| 11>   C                      9.665836             -0.217064            10.196093
| 12>   O                      9.826703             -1.470879            10.780633
| 13>   H                      10.759762            -1.664107            10.755609
| 14>   H                      8.702707             0.283325             10.335303
| 15>   H                      10.272908            0.494257             10.775739
| 16>   H                      9.978906             -0.181398            9.110003
| 17>   C                      7.083612             -2.565340            9.842127
| 18>   O                      6.518145             -1.631507            10.754750
| 19>   H                      6.508675             -2.103596            11.611211
| 20>   H                      8.044200             -2.877808            10.219431
| 21>   H                      6.405369             -3.424729            9.826144
| 22>   H                      7.282681             -2.137399            8.849648
| 23> *
| 24>
| 25> #Run DFT-D3 single point of the molecule with dimer basis set
| 26> $new_job
| 27> %base "1-138_DFT_A"
| 28> ! wB97X-D3 def2-TZVP TIGHTSCF CHELPG PMODEL
| 29>
| 30> %scf
| 31> MaxIter 1000
| 32> end
| 33>
| 34> * xyz 0 1
| 35>   C                      9.665836             -0.217064            10.196093
| 36>   O                      9.826703             -1.470879            10.780633
| 37>   H                      10.759762            -1.664107            10.755609
| 38>   H                      8.702707             0.283325             10.335303
| 39>   H                      10.272908            0.494257             10.775739
| 40>   H                      9.978906             -0.181398            9.110003
| 41>   C                    : 7.083612             -2.565340            9.842127
| 42>   O                    : 6.518145             -1.631507            10.754750
| 43>   H                    : 6.508675             -2.103596            11.611211
| 44>   H                    : 8.044200             -2.877808            10.219431
| 45>   H                    : 6.405369             -3.424729            9.826144
| 46>   H                    : 7.282681             -2.137399            8.849648
| 47> *
| 48>
| 49> #Run DFT-D3 single point of the particle with dimer basis set
| 50> $new_job
| 51> %base "1-138_DFT_B"
| 52> ! wB97X-D3 def2-TZVP TIGHTSCF CHELPG PMODEL
| 53>
| 54> %scf
| 55> MaxIter 1000
| 56> end
| 57>
| 58> * xyz 0 1
| 59>   C                    : 9.665836             -0.217064            10.196093
| 60>   O                    : 9.826703             -1.470879            10.780633
| 61>   H                    : 10.759762            -1.664107            10.755609
| 62>   H                    : 8.702707             0.283325             10.335303
| 63>   H                    : 10.272908            0.494257             10.775739
| 64>   H                    : 9.978906             -0.181398            9.110003
| 65>   C                      7.083612             -2.565340            9.842127
| 66>   O                      6.518145             -1.631507            10.754750
| 67>   H                      6.508675             -2.103596            11.611211
| 68>   H                      8.044200             -2.877808            10.219431
| 69>   H                      6.405369             -3.424729            9.826144
| 70>   H                      7.282681             -2.137399            8.849648
| 71> *
| 72>
| 73>                          ****END OF INPUT****
 Total Charge           Charge          ....    0
 Multiplicity           Mult            ....    1
 Number of Electrons    NEL             ....   36
Dispersion correction           -0.002219229
FINAL SINGLE POINT ENERGY      -231.466197162002
Dispersion correction           -0.000234701
FINAL SINGLE POINT ENERGY      -115.730273137220

CARTESIAN COORDINATES (ANGSTROEM)
---------------------------------
  C      9.665836   -0.217064   10.196093
  O      9.826703   -1.470879   10.780633
  H     10.759762   -1.664107   10.755609
  H      8.702707    0.283325   10.335303
  H     10.272908    0.494257   10.775739
  H      9.978906   -0.181398    9.110003
  C      7.083612   -2.565340    9.842127
  O      6.518145   -1.631507   10.754750
  H      6.508675   -2.103596   11.611211
  H      8.044200   -2.877808   10.219431
  H      6.405369   -3.424729    9.826144
  H      7.282681   -2.137399    8.849648

 Multiplicity           Mult            ....    1
 Number of Electrons    NEL             ....   18
 Basis Dimension        Dim             ....  172

ORBITAL ENERGIES
----------------

  NO   OCC          E(Eh)            E(eV)
   0   2.0000     -19.229834      -523.2704
   1   2.0000     -10.313224      -280.6371
   2   2.0000      -1.131879       -30.8000
   3   2.0000      -0.792144       -21.5553
   4   2.0000      -0.604325       -16.4445
   5   2.0000      -0.548496       -14.9253
   6   2.0000      -0.526544       -14.3280
   7   2.0000      -0.434995       -11.8368
   8   2.0000      -0.370943       -10.0939
   9   0.0000       0.086099         2.3429
  10   0.0000       0.121435         3.3044
  11   0.0000       0.155873         4.2415
  12   0.0000       0.161876         4.4049
  13   0.0000       0.199229         5.4213

MULLIKEN ATOMIC CHARGES
-----------------------
   0 C :    0.003290
   1 O :    0.001549
   2 H :   -0.000009
   3 H :   -0.005190
   4 H :    0.000181
   5 H :   -0.000484
   6 C :   -0.166052
   7 O :   -0.478205
   8 H :    0.314810
   9 H :    0.097592
  10 H :    0.112948
  11 H :    0.119571
Sum of atomic charges:   -0.0000000

LOEWDIN ATOMIC CHARGES
----------------------
   0 C :   -0.007910
   1 O :   -0.009156
   2 H :   -0.000560
   3 H :   -0.004457
   4 H :   -0.000040
   5 H :   -0.000209
   6 C :   -0.373099
   7 O :   -0.089557
   8 H :    0.181006
   9 H :    0.095238
  10 H :    0.097437
  11 H :    0.111307

  Mayer bond orders larger than 0.1
B(  6-C ,  7-O ) :   0.9773 B(  6-C ,  9-H ) :   0.9866 B(  6-C , 10-H ) :   0.9802
B(  6-C , 11-H ) :   0.9719 B(  7-O ,  8-H ) :   0.8973

Dispersion correction           -0.000214357
FINAL SINGLE POINT ENERGY      -115.733622461042

DIPOLE MOMENT
-------------
                                X             Y             Z
Electronic contribution:     -0.74676       1.30731       0.93375
Nuclear contribution   :      0.97871      -1.97416      -0.77059
                        -----------------------------------------
Total Dipole Moment    :      0.23195      -0.66685       0.16316
                        -----------------------------------------
Magnitude (a.u.)       :      0.72465
Magnitude (Debye)      :      1.84191

Rotational constants in cm-1:     4.202364     0.833869     0.800588
Rotational constants in MHz : 125983.699321 24998.776186 24001.021327

                             ****ORCA TERMINATED NORMALLY****
TOTAL RUN TIME: 0 days 0 hours 5 minutes 41 seconds 678 msec
