                         Program Version 4.1.2  - RELEASE  -
|  1> #Run DFT-D3 single point of the dimer
|  2> ! wB97X-D3 def2-TZVP TIGHTSCF CHELPG PMODEL PAL8
|  3>
|  4> %base "2-43_DFT_AB"
|  5>
|  6> %scf
|  7> MaxIter 1000
|  8> end
|  9>
| 10> * xyz 0 1
| 11>   C                      -10.786374           -2.434926            6.102013
| 12>   O                      -9.534967            -2.920032            6.721126
| 13>   H                      -9.546065            -3.876163            6.859019
| 14>   H                      -10.700096           -1.362841            6.063289
| 15>   H                      -10.879818           -2.671802            5.082183
| 16>   H                      -11.722517           -2.729585            6.503359
| 17>   C                      -7.148623            -4.404922            7.610721
| 18>   O                      -7.375907            -4.307510            6.230849
| 19>   H                      -6.488589            -4.245088            5.849165
| 20>   H                      -6.923351            -5.494273            7.993890
| 21>   H                      -6.294813            -3.768090            7.952278
| 22>   H                      -8.051423            -4.083976            8.151927
| 23> *
| 24>
| 25> #Run DFT-D3 single point of the molecule with dimer basis set
| 26> $new_job
| 27> %base "2-43_DFT_A"
| 28> ! wB97X-D3 def2-TZVP TIGHTSCF CHELPG PMODEL
| 29>
| 30> %scf
| 31> MaxIter 1000
| 32> end
| 33>
| 34> * xyz 0 1
| 35>   C                      -10.786374           -2.434926            6.102013
| 36>   O                      -9.534967            -2.920032            6.721126
| 37>   H                      -9.546065            -3.876163            6.859019
| 38>   H                      -10.700096           -1.362841            6.063289
| 39>   H                      -10.879818           -2.671802            5.082183
| 40>   H                      -11.722517           -2.729585            6.503359
| 41>   C                    : -7.148623            -4.404922            7.610721
| 42>   O                    : -7.375907            -4.307510            6.230849
| 43>   H                    : -6.488589            -4.245088            5.849165
| 44>   H                    : -6.923351            -5.494273            7.993890
| 45>   H                    : -6.294813            -3.768090            7.952278
| 46>   H                    : -8.051423            -4.083976            8.151927
| 47> *
| 48>
| 49> #Run DFT-D3 single point of the particle with dimer basis set
| 50> $new_job
| 51> %base "2-43_DFT_B"
| 52> ! wB97X-D3 def2-TZVP TIGHTSCF CHELPG PMODEL
| 53>
| 54> %scf
| 55> MaxIter 1000
| 56> end
| 57>
| 58> * xyz 0 1
| 59>   C                    : -10.786374           -2.434926            6.102013
| 60>   O                    : -9.534967            -2.920032            6.721126
| 61>   H                    : -9.546065            -3.876163            6.859019
| 62>   H                    : -10.700096           -1.362841            6.063289
| 63>   H                    : -10.879818           -2.671802            5.082183
| 64>   H                    : -11.722517           -2.729585            6.503359
| 65>   C                      -7.148623            -4.404922            7.610721
| 66>   O                      -7.375907            -4.307510            6.230849
| 67>   H                      -6.488589            -4.245088            5.849165
| 68>   H                      -6.923351            -5.494273            7.993890
| 69>   H                      -6.294813            -3.768090            7.952278
| 70>   H                      -8.051423            -4.083976            8.151927
| 71> *
| 72>
| 73>                          ****END OF INPUT****
 Total Charge           Charge          ....    0
 Multiplicity           Mult            ....    1
 Number of Electrons    NEL             ....   36
Dispersion correction           -0.001674069
FINAL SINGLE POINT ENERGY      -231.455628883339
Dispersion correction           -0.000293167
FINAL SINGLE POINT ENERGY      -115.728395592126

CARTESIAN COORDINATES (ANGSTROEM)
---------------------------------
  C    -10.786374   -2.434926    6.102013
  O     -9.534967   -2.920032    6.721126
  H     -9.546065   -3.876163    6.859019
  H    -10.700096   -1.362841    6.063289
  H    -10.879818   -2.671802    5.082183
  H    -11.722517   -2.729585    6.503359
  C     -7.148623   -4.404922    7.610721
  O     -7.375907   -4.307510    6.230849
  H     -6.488589   -4.245088    5.849165
  H     -6.923351   -5.494273    7.993890
  H     -6.294813   -3.768090    7.952278
  H     -8.051423   -4.083976    8.151927

 Multiplicity           Mult            ....    1
 Number of Electrons    NEL             ....   18
 Basis Dimension        Dim             ....  172

ORBITAL ENERGIES
----------------

  NO   OCC          E(Eh)            E(eV)
   0   2.0000     -19.237337      -523.4745
   1   2.0000     -10.324344      -280.9397
   2   2.0000      -1.144500       -31.1434
   3   2.0000      -0.785703       -21.3801
   4   2.0000      -0.613570       -16.6961
   5   2.0000      -0.531042       -14.4504
   6   2.0000      -0.529600       -14.4111
   7   2.0000      -0.438948       -11.9444
   8   2.0000      -0.372707       -10.1419
   9   0.0000       0.096030         2.6131
  10   0.0000       0.117534         3.1983
  11   0.0000       0.149018         4.0550
  12   0.0000       0.181464         4.9379
  13   0.0000       0.195436         5.3181

MULLIKEN ATOMIC CHARGES
-----------------------
   0 C :   -0.001990
   1 O :    0.003988
   2 H :   -0.000503
   3 H :    0.000118
   4 H :    0.000088
   5 H :   -0.000034
   6 C :   -0.183971
   7 O :   -0.452754
   8 H :    0.315201
   9 H :    0.091197
  10 H :    0.108328
  11 H :    0.120331
Sum of atomic charges:    0.0000000

LOEWDIN ATOMIC CHARGES
----------------------
   0 C :   -0.001425
   1 O :   -0.020039
   2 H :   -0.014998
   3 H :   -0.000029
   4 H :   -0.000103
   5 H :   -0.000029
   6 C :   -0.406476
   7 O :   -0.047702
   8 H :    0.177493
   9 H :    0.102905
  10 H :    0.098185
  11 H :    0.112216

  Mayer bond orders larger than 0.1
B(  6-C ,  7-O ) :   1.0111 B(  6-C ,  9-H ) :   0.9653 B(  6-C , 10-H ) :   0.9777
B(  6-C , 11-H ) :   0.9780 B(  7-O ,  8-H ) :   0.8982

Dispersion correction           -0.000257914
FINAL SINGLE POINT ENERGY      -115.732726998477

DIPOLE MOMENT
-------------
                                X             Y             Z
Electronic contribution:     -0.48162       0.20158      -1.91068
Nuclear contribution   :      1.10969      -0.15864       2.16911
                        -----------------------------------------
Total Dipole Moment    :      0.62807       0.04294       0.25843
                        -----------------------------------------
Magnitude (a.u.)       :      0.68051
Magnitude (Debye)      :      1.72973

Rotational constants in cm-1:     4.079727     0.832613     0.803287
Rotational constants in MHz : 122307.130008 24961.118846 24081.924477

                             ****ORCA TERMINATED NORMALLY****
TOTAL RUN TIME: 0 days 0 hours 5 minutes 43 seconds 611 msec
