                         Program Version 4.1.2  - RELEASE  -
|  1> #Run DFT-D3 single point of the dimer
|  2> ! wB97X-D3 def2-TZVP TIGHTSCF CHELPG PMODEL PAL8
|  3>
|  4> %base "16-101_DFT_AB"
|  5>
|  6> %scf
|  7> MaxIter 1000
|  8> end
|  9>
| 10> * xyz 0 1
| 11>   C                      5.434958             2.875792             -9.733265
| 12>   O                      6.885886             2.877586             -9.509406
| 13>   H                      7.289825             2.013666             -9.590393
| 14>   H                      5.137906             3.799958             -10.234967
| 15>   H                      5.202899             1.890700             -10.161595
| 16>   H                      4.848795             2.960356             -8.769228
| 17>   C                      5.789505             7.961665             -9.247714
| 18>   O                      7.108209             8.208722             -8.872955
| 19>   H                      7.268116             7.869350             -7.977780
| 20>   H                      5.566810             8.532333             -10.145002
| 21>   H                      5.536729             6.889135             -9.430221
| 22>   H                      5.139110             8.274249             -8.466518
| 23> *
| 24>
| 25> #Run DFT-D3 single point of the molecule with dimer basis set
| 26> $new_job
| 27> %base "16-101_DFT_A"
| 28> ! wB97X-D3 def2-TZVP TIGHTSCF CHELPG PMODEL
| 29>
| 30> %scf
| 31> MaxIter 1000
| 32> end
| 33>
| 34> * xyz 0 1
| 35>   C                      5.434958             2.875792             -9.733265
| 36>   O                      6.885886             2.877586             -9.509406
| 37>   H                      7.289825             2.013666             -9.590393
| 38>   H                      5.137906             3.799958             -10.234967
| 39>   H                      5.202899             1.890700             -10.161595
| 40>   H                      4.848795             2.960356             -8.769228
| 41>   C                    : 5.789505             7.961665             -9.247714
| 42>   O                    : 7.108209             8.208722             -8.872955
| 43>   H                    : 7.268116             7.869350             -7.977780
| 44>   H                    : 5.566810             8.532333             -10.145002
| 45>   H                    : 5.536729             6.889135             -9.430221
| 46>   H                    : 5.139110             8.274249             -8.466518
| 47> *
| 48>
| 49> #Run DFT-D3 single point of the particle with dimer basis set
| 50> $new_job
| 51> %base "16-101_DFT_B"
| 52> ! wB97X-D3 def2-TZVP TIGHTSCF CHELPG PMODEL
| 53>
| 54> %scf
| 55> MaxIter 1000
| 56> end
| 57>
| 58> * xyz 0 1
| 59>   C                    : 5.434958             2.875792             -9.733265
| 60>   O                    : 6.885886             2.877586             -9.509406
| 61>   H                    : 7.289825             2.013666             -9.590393
| 62>   H                    : 5.137906             3.799958             -10.234967
| 63>   H                    : 5.202899             1.890700             -10.161595
| 64>   H                    : 4.848795             2.960356             -8.769228
| 65>   C                      5.789505             7.961665             -9.247714
| 66>   O                      7.108209             8.208722             -8.872955
| 67>   H                      7.268116             7.869350             -7.977780
| 68>   H                      5.566810             8.532333             -10.145002
| 69>   H                      5.536729             6.889135             -9.430221
| 70>   H                      5.139110             8.274249             -8.466518
| 71> *
| 72>
| 73>                          ****END OF INPUT****
 Total Charge           Charge          ....    0
 Multiplicity           Mult            ....    1
 Number of Electrons    NEL             ....   36
Dispersion correction           -0.000854573
FINAL SINGLE POINT ENERGY      -231.462758954688
Dispersion correction           -0.000273540
FINAL SINGLE POINT ENERGY      -115.727254185203

CARTESIAN COORDINATES (ANGSTROEM)
---------------------------------
  C      5.434958    2.875792   -9.733265
  O      6.885886    2.877586   -9.509406
  H      7.289825    2.013666   -9.590393
  H      5.137906    3.799958  -10.234967
  H      5.202899    1.890700  -10.161595
  H      4.848795    2.960356   -8.769228
  C      5.789505    7.961665   -9.247714
  O      7.108209    8.208722   -8.872955
  H      7.268116    7.869350   -7.977780
  H      5.566810    8.532333  -10.145002
  H      5.536729    6.889135   -9.430221
  H      5.139110    8.274249   -8.466518

 Multiplicity           Mult            ....    1
 Number of Electrons    NEL             ....   18
 Basis Dimension        Dim             ....  172

ORBITAL ENERGIES
----------------

  NO   OCC          E(Eh)            E(eV)
   0   2.0000     -19.230249      -523.2817
   1   2.0000     -10.308782      -280.5162
   2   2.0000      -1.139619       -31.0106
   3   2.0000      -0.795424       -21.6446
   4   2.0000      -0.616742       -16.7824
   5   2.0000      -0.539938       -14.6924
   6   2.0000      -0.531324       -14.4581
   7   2.0000      -0.432524       -11.7696
   8   2.0000      -0.370865       -10.0917
   9   0.0000       0.084223         2.2918
  10   0.0000       0.115683         3.1479
  11   0.0000       0.146419         3.9843
  12   0.0000       0.169624         4.6157
  13   0.0000       0.185124         5.0375

MULLIKEN ATOMIC CHARGES
-----------------------
   0 C :    0.000491
   1 O :   -0.000060
   2 H :   -0.000004
   3 H :   -0.000412
   4 H :    0.000003
   5 H :   -0.000141
   6 C :   -0.153372
   7 O :   -0.476618
   8 H :    0.316681
   9 H :    0.118042
  10 H :    0.091060
  11 H :    0.104328
Sum of atomic charges:   -0.0000000

LOEWDIN ATOMIC CHARGES
----------------------
   0 C :   -0.000417
   1 O :   -0.000004
   2 H :   -0.000000
   3 H :   -0.000744
   4 H :   -0.000003
   5 H :   -0.000033
   6 C :   -0.399975
   7 O :   -0.066943
   8 H :    0.176045
   9 H :    0.108114
  10 H :    0.095767
  11 H :    0.088193

  Mayer bond orders larger than 0.1
B(  6-C ,  7-O ) :   1.0001 B(  6-C ,  9-H ) :   0.9735 B(  6-C , 10-H ) :   0.9692
B(  6-C , 11-H ) :   0.9842 B(  7-O ,  8-H ) :   0.8949

Dispersion correction           -0.000235098
FINAL SINGLE POINT ENERGY      -115.735243282020

DIPOLE MOMENT
-------------
                                X             Y             Z
Electronic contribution:      1.75350       0.40500       0.34093
Nuclear contribution   :     -2.17206      -0.69191       0.09672
                        -----------------------------------------
Total Dipole Moment    :     -0.41856      -0.28691       0.43765
                        -----------------------------------------
Magnitude (a.u.)       :      0.67011
Magnitude (Debye)      :      1.70328

Rotational constants in cm-1:     4.354279     0.850679     0.816406
Rotational constants in MHz : 130538.008931 25502.727911 24475.251015

                             ****ORCA TERMINATED NORMALLY****
TOTAL RUN TIME: 0 days 0 hours 1 minutes 2 seconds 545 msec
