                         Program Version 4.1.2  - RELEASE  -
|  1> #Run DFT-D3 single point of the dimer
|  2> ! wB97X-D3 def2-TZVP TIGHTSCF CHELPG PMODEL PAL8
|  3>
|  4> %base "22-109_DFT_AB"
|  5>
|  6> %scf
|  7> MaxIter 1000
|  8> end
|  9>
| 10> * xyz 0 1
| 11>   C                      -3.235452            7.974834             -3.610997
| 12>   O                      -2.335744            9.037216             -3.968717
| 13>   H                      -2.699700            9.576640             -4.691973
| 14>   H                      -3.591304            8.059104             -2.564382
| 15>   H                      -4.201722            8.035616             -4.246307
| 16>   H                      -2.818901            6.977032             -3.763111
| 17>   C                      -2.712632            10.168565            0.735947
| 18>   O                      -1.306672            10.366043            0.611113
| 19>   H                      -1.090374            10.729616            -0.244116
| 20>   H                      -3.258851            11.101495            0.569971
| 21>   H                      -3.092900            9.536533             -0.103540
| 22>   H                      -2.984458            9.562569             1.653365
| 23> *
| 24>
| 25> #Run DFT-D3 single point of the molecule with dimer basis set
| 26> $new_job
| 27> %base "22-109_DFT_A"
| 28> ! wB97X-D3 def2-TZVP TIGHTSCF CHELPG PMODEL
| 29>
| 30> %scf
| 31> MaxIter 1000
| 32> end
| 33>
| 34> * xyz 0 1
| 35>   C                      -3.235452            7.974834             -3.610997
| 36>   O                      -2.335744            9.037216             -3.968717
| 37>   H                      -2.699700            9.576640             -4.691973
| 38>   H                      -3.591304            8.059104             -2.564382
| 39>   H                      -4.201722            8.035616             -4.246307
| 40>   H                      -2.818901            6.977032             -3.763111
| 41>   C                    : -2.712632            10.168565            0.735947
| 42>   O                    : -1.306672            10.366043            0.611113
| 43>   H                    : -1.090374            10.729616            -0.244116
| 44>   H                    : -3.258851            11.101495            0.569971
| 45>   H                    : -3.092900            9.536533             -0.103540
| 46>   H                    : -2.984458            9.562569             1.653365
| 47> *
| 48>
| 49> #Run DFT-D3 single point of the particle with dimer basis set
| 50> $new_job
| 51> %base "22-109_DFT_B"
| 52> ! wB97X-D3 def2-TZVP TIGHTSCF CHELPG PMODEL
| 53>
| 54> %scf
| 55> MaxIter 1000
| 56> end
| 57>
| 58> * xyz 0 1
| 59>   C                    : -3.235452            7.974834             -3.610997
| 60>   O                    : -2.335744            9.037216             -3.968717
| 61>   H                    : -2.699700            9.576640             -4.691973
| 62>   H                    : -3.591304            8.059104             -2.564382
| 63>   H                    : -4.201722            8.035616             -4.246307
| 64>   H                    : -2.818901            6.977032             -3.763111
| 65>   C                      -2.712632            10.168565            0.735947
| 66>   O                      -1.306672            10.366043            0.611113
| 67>   H                      -1.090374            10.729616            -0.244116
| 68>   H                      -3.258851            11.101495            0.569971
| 69>   H                      -3.092900            9.536533             -0.103540
| 70>   H                      -2.984458            9.562569             1.653365
| 71> *
| 72>
| 73>                          ****END OF INPUT****
 Total Charge           Charge          ....    0
 Multiplicity           Mult            ....    1
 Number of Electrons    NEL             ....   36
Dispersion correction           -0.001031371
FINAL SINGLE POINT ENERGY      -231.464125922369
Dispersion correction           -0.000279436
FINAL SINGLE POINT ENERGY      -115.731755504454

CARTESIAN COORDINATES (ANGSTROEM)
---------------------------------
  C     -3.235452    7.974834   -3.610997
  O     -2.335744    9.037216   -3.968717
  H     -2.699700    9.576640   -4.691973
  H     -3.591304    8.059104   -2.564382
  H     -4.201722    8.035616   -4.246307
  H     -2.818901    6.977032   -3.763111
  C     -2.712632   10.168565    0.735947
  O     -1.306672   10.366043    0.611113
  H     -1.090374   10.729616   -0.244116
  H     -3.258851   11.101495    0.569971
  H     -3.092900    9.536533   -0.103540
  H     -2.984458    9.562569    1.653365

 Multiplicity           Mult            ....    1
 Number of Electrons    NEL             ....   18
 Basis Dimension        Dim             ....  172

ORBITAL ENERGIES
----------------

  NO   OCC          E(Eh)            E(eV)
   0   2.0000     -19.228839      -523.2433
   1   2.0000     -10.321393      -280.8594
   2   2.0000      -1.132295       -30.8113
   3   2.0000      -0.793304       -21.5869
   4   2.0000      -0.612677       -16.6718
   5   2.0000      -0.540467       -14.7068
   6   2.0000      -0.517905       -14.0929
   7   2.0000      -0.432652       -11.7731
   8   2.0000      -0.370003       -10.0683
   9   0.0000       0.079926         2.1749
  10   0.0000       0.117484         3.1969
  11   0.0000       0.146513         3.9868
  12   0.0000       0.164018         4.4632
  13   0.0000       0.180939         4.9236

MULLIKEN ATOMIC CHARGES
-----------------------
   0 C :    0.000105
   1 O :   -0.000076
   2 H :   -0.000011
   3 H :    0.000141
   4 H :    0.000020
   5 H :   -0.000042
   6 C :   -0.172828
   7 O :   -0.479759
   8 H :    0.315511
   9 H :    0.108559
  10 H :    0.098672
  11 H :    0.129706
Sum of atomic charges:    0.0000000

LOEWDIN ATOMIC CHARGES
----------------------
   0 C :   -0.000548
   1 O :   -0.000020
   2 H :   -0.000002
   3 H :   -0.001595
   4 H :   -0.000002
   5 H :   -0.000004
   6 C :   -0.386277
   7 O :   -0.086145
   8 H :    0.163414
   9 H :    0.094679
  10 H :    0.097198
  11 H :    0.119304

  Mayer bond orders larger than 0.1
B(  6-C ,  7-O ) :   0.9875 B(  6-C ,  9-H ) :   0.9740 B(  6-C , 10-H ) :   0.9781
B(  6-C , 11-H ) :   0.9672 B(  7-O ,  8-H ) :   0.8969

Dispersion correction           -0.000252444
FINAL SINGLE POINT ENERGY      -115.731174881836

DIPOLE MOMENT
-------------
                                X             Y             Z
Electronic contribution:      1.84171       0.29927       0.12347
Nuclear contribution   :     -2.27655      -0.15877      -0.64249
                        -----------------------------------------
Total Dipole Moment    :     -0.43484       0.14050      -0.51902
                        -----------------------------------------
Magnitude (a.u.)       :      0.69153
Magnitude (Debye)      :      1.75773

Rotational constants in cm-1:     4.232569     0.816711     0.778517
Rotational constants in MHz : 126889.227848 24484.390115 23339.337813

                             ****ORCA TERMINATED NORMALLY****
TOTAL RUN TIME: 0 days 0 hours 0 minutes 53 seconds 757 msec
