                         Program Version 4.1.2  - RELEASE  -
|  1> #Run DFT-D3 single point of the dimer
|  2> ! wB97X-D3 def2-TZVP TIGHTSCF CHELPG PMODEL PAL8
|  3>
|  4> %base "17-44_DFT_AB"
|  5>
|  6> %scf
|  7> MaxIter 1000
|  8> end
|  9>
| 10> * xyz 0 1
| 11>   C                      8.855435             2.500085             -1.398292
| 12>   O                      8.460156             1.355056             -0.672985
| 13>   H                      9.255421             1.118995             -0.121987
| 14>   H                      9.214119             3.364614             -0.741264
| 15>   H                      9.646805             2.202095             -2.062144
| 16>   H                      8.024161             2.826217             -2.019382
| 17>   C                      10.771608            5.192994             -3.288816
| 18>   O                      9.362997             5.246545             -3.623818
| 19>   H                      8.855624             5.697290             -2.908676
| 20>   H                      10.908281            4.526235             -2.414384
| 21>   H                      11.537811            4.895017             -4.018694
| 22>   H                      11.083453            6.185757             -2.910122
| 23> *
| 24>
| 25> #Run DFT-D3 single point of the molecule with dimer basis set
| 26> $new_job
| 27> %base "17-44_DFT_A"
| 28> ! wB97X-D3 def2-TZVP TIGHTSCF CHELPG PMODEL
| 29>
| 30> %scf
| 31> MaxIter 1000
| 32> end
| 33>
| 34> * xyz 0 1
| 35>   C                      8.855435             2.500085             -1.398292
| 36>   O                      8.460156             1.355056             -0.672985
| 37>   H                      9.255421             1.118995             -0.121987
| 38>   H                      9.214119             3.364614             -0.741264
| 39>   H                      9.646805             2.202095             -2.062144
| 40>   H                      8.024161             2.826217             -2.019382
| 41>   C                    : 10.771608            5.192994             -3.288816
| 42>   O                    : 9.362997             5.246545             -3.623818
| 43>   H                    : 8.855624             5.697290             -2.908676
| 44>   H                    : 10.908281            4.526235             -2.414384
| 45>   H                    : 11.537811            4.895017             -4.018694
| 46>   H                    : 11.083453            6.185757             -2.910122
| 47> *
| 48>
| 49> #Run DFT-D3 single point of the particle with dimer basis set
| 50> $new_job
| 51> %base "17-44_DFT_B"
| 52> ! wB97X-D3 def2-TZVP TIGHTSCF CHELPG PMODEL
| 53>
| 54> %scf
| 55> MaxIter 1000
| 56> end
| 57>
| 58> * xyz 0 1
| 59>   C                    : 8.855435             2.500085             -1.398292
| 60>   O                    : 8.460156             1.355056             -0.672985
| 61>   H                    : 9.255421             1.118995             -0.121987
| 62>   H                    : 9.214119             3.364614             -0.741264
| 63>   H                    : 9.646805             2.202095             -2.062144
| 64>   H                    : 8.024161             2.826217             -2.019382
| 65>   C                      10.771608            5.192994             -3.288816
| 66>   O                      9.362997             5.246545             -3.623818
| 67>   H                      8.855624             5.697290             -2.908676
| 68>   H                      10.908281            4.526235             -2.414384
| 69>   H                      11.537811            4.895017             -4.018694
| 70>   H                      11.083453            6.185757             -2.910122
| 71> *
| 72>
| 73>                          ****END OF INPUT****
 Total Charge           Charge          ....    0
 Multiplicity           Mult            ....    1
 Number of Electrons    NEL             ....   36
Dispersion correction           -0.001869883
FINAL SINGLE POINT ENERGY      -231.462329827724
Dispersion correction           -0.000231603
FINAL SINGLE POINT ENERGY      -115.733471901616

CARTESIAN COORDINATES (ANGSTROEM)
---------------------------------
  C      8.855435    2.500085   -1.398292
  O      8.460156    1.355056   -0.672985
  H      9.255421    1.118995   -0.121987
  H      9.214119    3.364614   -0.741264
  H      9.646805    2.202095   -2.062144
  H      8.024161    2.826217   -2.019382
  C     10.771608    5.192994   -3.288816
  O      9.362997    5.246545   -3.623818
  H      8.855624    5.697290   -2.908676
  H     10.908281    4.526235   -2.414384
  H     11.537811    4.895017   -4.018694
  H     11.083453    6.185757   -2.910122

 Multiplicity           Mult            ....    1
 Number of Electrons    NEL             ....   18
 Basis Dimension        Dim             ....  172

ORBITAL ENERGIES
----------------

  NO   OCC          E(Eh)            E(eV)
   0   2.0000     -19.233615      -523.3733
   1   2.0000     -10.321660      -280.8667
   2   2.0000      -1.120818       -30.4990
   3   2.0000      -0.795343       -21.6424
   4   2.0000      -0.602720       -16.4008
   5   2.0000      -0.533719       -14.5232
   6   2.0000      -0.529772       -14.4158
   7   2.0000      -0.428206       -11.6521
   8   2.0000      -0.371389       -10.1060
   9   0.0000       0.082047         2.2326
  10   0.0000       0.121377         3.3028
  11   0.0000       0.144868         3.9421
  12   0.0000       0.179669         4.8891
  13   0.0000       0.190377         5.1804

MULLIKEN ATOMIC CHARGES
-----------------------
   0 C :    0.000757
   1 O :   -0.000083
   2 H :    0.000024
   3 H :   -0.000986
   4 H :    0.000106
   5 H :   -0.003587
   6 C :   -0.181413
   7 O :   -0.486572
   8 H :    0.324389
   9 H :    0.104047
  10 H :    0.136337
  11 H :    0.106981
Sum of atomic charges:   -0.0000000

LOEWDIN ATOMIC CHARGES
----------------------
   0 C :   -0.008352
   1 O :   -0.000048
   2 H :   -0.000018
   3 H :   -0.001557
   4 H :   -0.001385
   5 H :   -0.002579
   6 C :   -0.367284
   7 O :   -0.111110
   8 H :    0.184780
   9 H :    0.098623
  10 H :    0.111315
  11 H :    0.097616

  Mayer bond orders larger than 0.1
B(  6-C ,  7-O ) :   0.9893 B(  6-C ,  9-H ) :   0.9767 B(  6-C , 10-H ) :   0.9664
B(  6-C , 11-H ) :   0.9868 B(  7-O ,  8-H ) :   0.8878

Dispersion correction           -0.000266666
FINAL SINGLE POINT ENERGY      -115.727454365401

DIPOLE MOMENT
-------------
                                X             Y             Z
Electronic contribution:     -1.76910      -0.05857      -0.77701
Nuclear contribution   :      2.05420       0.33638       1.36571
                        -----------------------------------------
Total Dipole Moment    :      0.28509       0.27781       0.58869
                        -----------------------------------------
Magnitude (a.u.)       :      0.71064
Magnitude (Debye)      :      1.80632

Rotational constants in cm-1:     4.372212     0.783523     0.755518
Rotational constants in MHz : 131075.608135 23489.430703 22649.870061

                             ****ORCA TERMINATED NORMALLY****
TOTAL RUN TIME: 0 days 0 hours 1 minutes 10 seconds 332 msec
