                         Program Version 4.1.2  - RELEASE  -
|  1> #Run DFT-D3 single point of the dimer
|  2> ! wB97X-D3 def2-TZVP TIGHTSCF CHELPG PMODEL PAL8
|  3>
|  4> %base "7-137_DFT_AB"
|  5>
|  6> %scf
|  7> MaxIter 1000
|  8> end
|  9>
| 10> * xyz 0 1
| 11>   C                      -6.417568            5.724779             -9.595401
| 12>   O                      -6.496729            5.320561             -10.985951
| 13>   H                      -5.837591            4.593481             -11.037787
| 14>   H                      -5.394733            5.521762             -9.256778
| 15>   H                      -6.775722            6.772513             -9.423022
| 16>   H                      -7.171860            5.219922             -8.997641
| 17>   C                      -3.408592            8.007071             -10.069326
| 18>   O                      -3.151029            7.008733             -9.074709
| 19>   H                      -3.792584            7.119654             -8.357129
| 20>   H                      -4.490253            8.286194             -10.163853
| 21>   H                      -2.850615            8.856141             -9.827471
| 22>   H                      -3.138573            7.624338             -11.024739
| 23> *
| 24>
| 25> #Run DFT-D3 single point of the molecule with dimer basis set
| 26> $new_job
| 27> %base "7-137_DFT_A"
| 28> ! wB97X-D3 def2-TZVP TIGHTSCF CHELPG PMODEL
| 29>
| 30> %scf
| 31> MaxIter 1000
| 32> end
| 33>
| 34> * xyz 0 1
| 35>   C                      -6.417568            5.724779             -9.595401
| 36>   O                      -6.496729            5.320561             -10.985951
| 37>   H                      -5.837591            4.593481             -11.037787
| 38>   H                      -5.394733            5.521762             -9.256778
| 39>   H                      -6.775722            6.772513             -9.423022
| 40>   H                      -7.171860            5.219922             -8.997641
| 41>   C                    : -3.408592            8.007071             -10.069326
| 42>   O                    : -3.151029            7.008733             -9.074709
| 43>   H                    : -3.792584            7.119654             -8.357129
| 44>   H                    : -4.490253            8.286194             -10.163853
| 45>   H                    : -2.850615            8.856141             -9.827471
| 46>   H                    : -3.138573            7.624338             -11.024739
| 47> *
| 48>
| 49> #Run DFT-D3 single point of the particle with dimer basis set
| 50> $new_job
| 51> %base "7-137_DFT_B"
| 52> ! wB97X-D3 def2-TZVP TIGHTSCF CHELPG PMODEL
| 53>
| 54> %scf
| 55> MaxIter 1000
| 56> end
| 57>
| 58> * xyz 0 1
| 59>   C                    : -6.417568            5.724779             -9.595401
| 60>   O                    : -6.496729            5.320561             -10.985951
| 61>   H                    : -5.837591            4.593481             -11.037787
| 62>   H                    : -5.394733            5.521762             -9.256778
| 63>   H                    : -6.775722            6.772513             -9.423022
| 64>   H                    : -7.171860            5.219922             -8.997641
| 65>   C                      -3.408592            8.007071             -10.069326
| 66>   O                      -3.151029            7.008733             -9.074709
| 67>   H                      -3.792584            7.119654             -8.357129
| 68>   H                      -4.490253            8.286194             -10.163853
| 69>   H                      -2.850615            8.856141             -9.827471
| 70>   H                      -3.138573            7.624338             -11.024739
| 71> *
| 72>
| 73>                          ****END OF INPUT****
 Total Charge           Charge          ....    0
 Multiplicity           Mult            ....    1
 Number of Electrons    NEL             ....   36
Dispersion correction           -0.001992406
FINAL SINGLE POINT ENERGY      -231.465478680475
Dispersion correction           -0.000248476
FINAL SINGLE POINT ENERGY      -115.729205837529

CARTESIAN COORDINATES (ANGSTROEM)
---------------------------------
  C     -6.417568    5.724779   -9.595401
  O     -6.496729    5.320561  -10.985951
  H     -5.837591    4.593481  -11.037787
  H     -5.394733    5.521762   -9.256778
  H     -6.775722    6.772513   -9.423022
  H     -7.171860    5.219922   -8.997641
  C     -3.408592    8.007071  -10.069326
  O     -3.151029    7.008733   -9.074709
  H     -3.792584    7.119654   -8.357129
  H     -4.490253    8.286194  -10.163853
  H     -2.850615    8.856141   -9.827471
  H     -3.138573    7.624338  -11.024739

 Multiplicity           Mult            ....    1
 Number of Electrons    NEL             ....   18
 Basis Dimension        Dim             ....  172

ORBITAL ENERGIES
----------------

  NO   OCC          E(Eh)            E(eV)
   0   2.0000     -19.230070      -523.2768
   1   2.0000     -10.308583      -280.5108
   2   2.0000      -1.128192       -30.6997
   3   2.0000      -0.800153       -21.7733
   4   2.0000      -0.604959       -16.4618
   5   2.0000      -0.551330       -15.0025
   6   2.0000      -0.522359       -14.2141
   7   2.0000      -0.433669       -11.8007
   8   2.0000      -0.375674       -10.2226
   9   0.0000       0.081904         2.2287
  10   0.0000       0.131244         3.5713
  11   0.0000       0.151765         4.1297
  12   0.0000       0.162825         4.4307
  13   0.0000       0.195223         5.3123

MULLIKEN ATOMIC CHARGES
-----------------------
   0 C :    0.004121
   1 O :   -0.000386
   2 H :   -0.000200
   3 H :   -0.014407
   4 H :   -0.000007
   5 H :   -0.000301
   6 C :   -0.163512
   7 O :   -0.478727
   8 H :    0.317348
   9 H :    0.101102
  10 H :    0.117865
  11 H :    0.117104
Sum of atomic charges:   -0.0000000

LOEWDIN ATOMIC CHARGES
----------------------
   0 C :   -0.006477
   1 O :   -0.000036
   2 H :   -0.000070
   3 H :   -0.009774
   4 H :   -0.000993
   5 H :   -0.000039
   6 C :   -0.360870
   7 O :   -0.085850
   8 H :    0.172572
   9 H :    0.102827
  10 H :    0.087644
  11 H :    0.101067

  Mayer bond orders larger than 0.1
B(  6-C ,  7-O ) :   0.9852 B(  6-C ,  9-H ) :   0.9793 B(  6-C , 10-H ) :   0.9790
B(  6-C , 11-H ) :   0.9775 B(  7-O ,  8-H ) :   0.8980

Dispersion correction           -0.000243635
FINAL SINGLE POINT ENERGY      -115.733973028625

DIPOLE MOMENT
-------------
                                X             Y             Z
Electronic contribution:      0.50463      -1.25276       1.14756
Nuclear contribution   :     -1.00337       1.74691      -1.11526
                        -----------------------------------------
Total Dipole Moment    :     -0.49874       0.49416       0.03229
                        -----------------------------------------
Magnitude (a.u.)       :      0.70283
Magnitude (Debye)      :      1.78646

Rotational constants in cm-1:     4.373867     0.817182     0.789116
Rotational constants in MHz : 131125.223624 24498.513021 23657.113068

                             ****ORCA TERMINATED NORMALLY****
TOTAL RUN TIME: 0 days 0 hours 1 minutes 2 seconds 944 msec
