                         Program Version 4.1.2  - RELEASE  -
|  1> #Run DFT-D3 single point of the dimer
|  2> ! wB97X-D3 def2-TZVP TIGHTSCF CHELPG PMODEL PAL8
|  3>
|  4> %base "15-152_DFT_AB"
|  5>
|  6> %scf
|  7> MaxIter 1000
|  8> end
|  9>
| 10> * xyz 0 1
| 11>   C                      -10.695807           -6.649651            4.959832
| 12>   O                      -11.428309           -5.754532            5.794819
| 13>   H                      -12.313601           -5.589736            5.453743
| 14>   H                      -11.365032           -7.374430            4.521126
| 15>   H                      -10.312134           -6.161509            4.072612
| 16>   H                      -9.801205            -7.105240            5.391306
| 17>   C                      -8.742703            -3.996906            6.645358
| 18>   O                      -7.432453            -4.228092            7.296616
| 19>   H                      -6.872880            -3.550490            6.954172
| 20>   H                      -8.755564            -4.171545            5.556517
| 21>   H                      -9.437313            -4.625854            7.035804
| 22>   H                      -9.172607            -3.013105            6.807960
| 23> *
| 24>
| 25> #Run DFT-D3 single point of the molecule with dimer basis set
| 26> $new_job
| 27> %base "15-152_DFT_A"
| 28> ! wB97X-D3 def2-TZVP TIGHTSCF CHELPG PMODEL
| 29>
| 30> %scf
| 31> MaxIter 1000
| 32> end
| 33>
| 34> * xyz 0 1
| 35>   C                      -10.695807           -6.649651            4.959832
| 36>   O                      -11.428309           -5.754532            5.794819
| 37>   H                      -12.313601           -5.589736            5.453743
| 38>   H                      -11.365032           -7.374430            4.521126
| 39>   H                      -10.312134           -6.161509            4.072612
| 40>   H                      -9.801205            -7.105240            5.391306
| 41>   C                    : -8.742703            -3.996906            6.645358
| 42>   O                    : -7.432453            -4.228092            7.296616
| 43>   H                    : -6.872880            -3.550490            6.954172
| 44>   H                    : -8.755564            -4.171545            5.556517
| 45>   H                    : -9.437313            -4.625854            7.035804
| 46>   H                    : -9.172607            -3.013105            6.807960
| 47> *
| 48>
| 49> #Run DFT-D3 single point of the particle with dimer basis set
| 50> $new_job
| 51> %base "15-152_DFT_B"
| 52> ! wB97X-D3 def2-TZVP TIGHTSCF CHELPG PMODEL
| 53>
| 54> %scf
| 55> MaxIter 1000
| 56> end
| 57>
| 58> * xyz 0 1
| 59>   C                    : -10.695807           -6.649651            4.959832
| 60>   O                    : -11.428309           -5.754532            5.794819
| 61>   H                    : -12.313601           -5.589736            5.453743
| 62>   H                    : -11.365032           -7.374430            4.521126
| 63>   H                    : -10.312134           -6.161509            4.072612
| 64>   H                    : -9.801205            -7.105240            5.391306
| 65>   C                      -8.742703            -3.996906            6.645358
| 66>   O                      -7.432453            -4.228092            7.296616
| 67>   H                      -6.872880            -3.550490            6.954172
| 68>   H                      -8.755564            -4.171545            5.556517
| 69>   H                      -9.437313            -4.625854            7.035804
| 70>   H                      -9.172607            -3.013105            6.807960
| 71> *
| 72>
| 73>                          ****END OF INPUT****
 Total Charge           Charge          ....    0
 Multiplicity           Mult            ....    1
 Number of Electrons    NEL             ....   36
Dispersion correction           -0.001928753
FINAL SINGLE POINT ENERGY      -231.462032483759
Dispersion correction           -0.000253515
FINAL SINGLE POINT ENERGY      -115.731018688185

CARTESIAN COORDINATES (ANGSTROEM)
---------------------------------
  C    -10.695807   -6.649651    4.959832
  O    -11.428309   -5.754532    5.794819
  H    -12.313601   -5.589736    5.453743
  H    -11.365032   -7.374430    4.521126
  H    -10.312134   -6.161509    4.072612
  H     -9.801205   -7.105240    5.391306
  C     -8.742703   -3.996906    6.645358
  O     -7.432453   -4.228092    7.296616
  H     -6.872880   -3.550490    6.954172
  H     -8.755564   -4.171545    5.556517
  H     -9.437313   -4.625854    7.035804
  H     -9.172607   -3.013105    6.807960

 Multiplicity           Mult            ....    1
 Number of Electrons    NEL             ....   18
 Basis Dimension        Dim             ....  172

ORBITAL ENERGIES
----------------

  NO   OCC          E(Eh)            E(eV)
   0   2.0000     -19.232849      -523.3524
   1   2.0000     -10.310499      -280.5629
   2   2.0000      -1.123523       -30.5726
   3   2.0000      -0.809188       -22.0191
   4   2.0000      -0.601969       -16.3804
   5   2.0000      -0.533572       -14.5192
   6   2.0000      -0.525178       -14.2908
   7   2.0000      -0.446936       -12.1617
   8   2.0000      -0.379870       -10.3368
   9   0.0000       0.082987         2.2582
  10   0.0000       0.119389         3.2487
  11   0.0000       0.152795         4.1578
  12   0.0000       0.160892         4.3781
  13   0.0000       0.182072         4.9544

MULLIKEN ATOMIC CHARGES
-----------------------
   0 C :   -0.003898
   1 O :    0.000069
   2 H :   -0.000048
   3 H :   -0.000019
   4 H :    0.000339
   5 H :    0.001380
   6 C :   -0.183798
   7 O :   -0.472548
   8 H :    0.310011
   9 H :    0.107983
  10 H :    0.130617
  11 H :    0.109913
Sum of atomic charges:    0.0000000

LOEWDIN ATOMIC CHARGES
----------------------
   0 C :   -0.005879
   1 O :   -0.003649
   2 H :   -0.000156
   3 H :   -0.000052
   4 H :   -0.000957
   5 H :   -0.000606
   6 C :   -0.329015
   7 O :   -0.105458
   8 H :    0.153681
   9 H :    0.102812
  10 H :    0.091467
  11 H :    0.097810

  Mayer bond orders larger than 0.1
B(  6-C ,  7-O ) :   1.0035 B(  6-C ,  9-H ) :   0.9728 B(  6-C , 10-H ) :   0.9771
B(  6-C , 11-H ) :   0.9680 B(  7-O ,  8-H ) :   0.9083

Dispersion correction           -0.000274994
FINAL SINGLE POINT ENERGY      -115.728449544703

DIPOLE MOMENT
-------------
                                X             Y             Z
Electronic contribution:      1.61814      -0.42994       0.92803
Nuclear contribution   :     -1.84506       0.94510      -1.40153
                        -----------------------------------------
Total Dipole Moment    :     -0.22692       0.51516      -0.47350
                        -----------------------------------------
Magnitude (a.u.)       :      0.73559
Magnitude (Debye)      :      1.86971

Rotational constants in cm-1:     4.580007     0.765316     0.746189
Rotational constants in MHz : 137305.157087 22943.604569 22370.168925

                             ****ORCA TERMINATED NORMALLY****
TOTAL RUN TIME: 0 days 0 hours 1 minutes 6 seconds 613 msec
