                         Program Version 4.1.2  - RELEASE  -
|  1> #Run DFT-D3 single point of the dimer
|  2> ! wB97X-D3 def2-TZVP TIGHTSCF CHELPG PMODEL PAL8
|  3>
|  4> %base "20-114_DFT_AB"
|  5>
|  6> %scf
|  7> MaxIter 1000
|  8> end
|  9>
| 10> * xyz 0 1
| 11>   C                      11.218378            -9.107412            7.618179
| 12>   O                      10.746527            -9.380473            6.350098
| 13>   H                      11.379990            -8.963582            5.761786
| 14>   H                      11.897932            -8.268738            7.736445
| 15>   H                      10.316205            -8.880650            8.214575
| 16>   H                      11.735110            -9.956797            8.001080
| 17>   C                      11.013170            -10.360990           2.989091
| 18>   O                      10.925119            -11.604082           3.623430
| 19>   H                      10.568860            -11.444430           4.478387
| 20>   H                      10.044901            -9.918549            2.885551
| 21>   H                      11.622374            -9.599001            3.493094
| 22>   H                      11.336021            -10.483934           1.945564
| 23> *
| 24>
| 25> #Run DFT-D3 single point of the molecule with dimer basis set
| 26> $new_job
| 27> %base "20-114_DFT_A"
| 28> ! wB97X-D3 def2-TZVP TIGHTSCF CHELPG PMODEL
| 29>
| 30> %scf
| 31> MaxIter 1000
| 32> end
| 33>
| 34> * xyz 0 1
| 35>   C                      11.218378            -9.107412            7.618179
| 36>   O                      10.746527            -9.380473            6.350098
| 37>   H                      11.379990            -8.963582            5.761786
| 38>   H                      11.897932            -8.268738            7.736445
| 39>   H                      10.316205            -8.880650            8.214575
| 40>   H                      11.735110            -9.956797            8.001080
| 41>   C                    : 11.013170            -10.360990           2.989091
| 42>   O                    : 10.925119            -11.604082           3.623430
| 43>   H                    : 10.568860            -11.444430           4.478387
| 44>   H                    : 10.044901            -9.918549            2.885551
| 45>   H                    : 11.622374            -9.599001            3.493094
| 46>   H                    : 11.336021            -10.483934           1.945564
| 47> *
| 48>
| 49> #Run DFT-D3 single point of the particle with dimer basis set
| 50> $new_job
| 51> %base "20-114_DFT_B"
| 52> ! wB97X-D3 def2-TZVP TIGHTSCF CHELPG PMODEL
| 53>
| 54> %scf
| 55> MaxIter 1000
| 56> end
| 57>
| 58> * xyz 0 1
| 59>   C                    : 11.218378            -9.107412            7.618179
| 60>   O                    : 10.746527            -9.380473            6.350098
| 61>   H                    : 11.379990            -8.963582            5.761786
| 62>   H                    : 11.897932            -8.268738            7.736445
| 63>   H                    : 10.316205            -8.880650            8.214575
| 64>   H                    : 11.735110            -9.956797            8.001080
| 65>   C                      11.013170            -10.360990           2.989091
| 66>   O                      10.925119            -11.604082           3.623430
| 67>   H                      10.568860            -11.444430           4.478387
| 68>   H                      10.044901            -9.918549            2.885551
| 69>   H                      11.622374            -9.599001            3.493094
| 70>   H                      11.336021            -10.483934           1.945564
| 71> *
| 72>
| 73>                          ****END OF INPUT****
 Total Charge           Charge          ....    0
 Multiplicity           Mult            ....    1
 Number of Electrons    NEL             ....   36
Dispersion correction           -0.001642505
FINAL SINGLE POINT ENERGY      -231.470933697074
Dispersion correction           -0.000222022
FINAL SINGLE POINT ENERGY      -115.732441810224

CARTESIAN COORDINATES (ANGSTROEM)
---------------------------------
  C     11.218378   -9.107412    7.618179
  O     10.746527   -9.380473    6.350098
  H     11.379990   -8.963582    5.761786
  H     11.897932   -8.268738    7.736445
  H     10.316205   -8.880650    8.214575
  H     11.735110   -9.956797    8.001080
  C     11.013170  -10.360990    2.989091
  O     10.925119  -11.604082    3.623430
  H     10.568860  -11.444430    4.478387
  H     10.044901   -9.918549    2.885551
  H     11.622374   -9.599001    3.493094
  H     11.336021  -10.483934    1.945564

 Multiplicity           Mult            ....    1
 Number of Electrons    NEL             ....   18
 Basis Dimension        Dim             ....  172

ORBITAL ENERGIES
----------------

  NO   OCC          E(Eh)            E(eV)
   0   2.0000     -19.230643      -523.2924
   1   2.0000     -10.309766      -280.5430
   2   2.0000      -1.146930       -31.2095
   3   2.0000      -0.798556       -21.7298
   4   2.0000      -0.619455       -16.8562
   5   2.0000      -0.542436       -14.7604
   6   2.0000      -0.528745       -14.3879
   7   2.0000      -0.436905       -11.8888
   8   2.0000      -0.374270       -10.1844
   9   0.0000       0.074779         2.0348
  10   0.0000       0.122827         3.3423
  11   0.0000       0.150499         4.0953
  12   0.0000       0.180671         4.9163
  13   0.0000       0.194285         5.2868

MULLIKEN ATOMIC CHARGES
-----------------------
   0 C :   -0.000242
   1 O :   -0.000390
   2 H :    0.000474
   3 H :   -0.000005
   4 H :    0.000009
   5 H :   -0.000020
   6 C :   -0.172892
   7 O :   -0.463812
   8 H :    0.311604
   9 H :    0.103193
  10 H :    0.100007
  11 H :    0.122074
Sum of atomic charges:    0.0000000

LOEWDIN ATOMIC CHARGES
----------------------
   0 C :   -0.000243
   1 O :   -0.002367
   2 H :   -0.004263
   3 H :   -0.000004
   4 H :   -0.000004
   5 H :   -0.000025
   6 C :   -0.397451
   7 O :   -0.050575
   8 H :    0.157556
   9 H :    0.090030
  10 H :    0.095630
  11 H :    0.111717

  Mayer bond orders larger than 0.1
B(  6-C ,  7-O ) :   1.0012 B(  6-C ,  9-H ) :   0.9829 B(  6-C , 10-H ) :   0.9710
B(  6-C , 11-H ) :   0.9740 B(  7-O ,  8-H ) :   0.9061

Dispersion correction           -0.000231916
FINAL SINGLE POINT ENERGY      -115.734699013218

DIPOLE MOMENT
-------------
                                X             Y             Z
Electronic contribution:      0.01260      -1.73657       0.77869
Nuclear contribution   :     -0.22953       2.31847      -0.49029
                        -----------------------------------------
Total Dipole Moment    :     -0.21693       0.58190       0.28839
                        -----------------------------------------
Magnitude (a.u.)       :      0.68471
Magnitude (Debye)      :      1.74041

Rotational constants in cm-1:     4.434574     0.845836     0.811465
Rotational constants in MHz : 132945.193016 25357.537234 24327.108667

                             ****ORCA TERMINATED NORMALLY****
TOTAL RUN TIME: 0 days 0 hours 1 minutes 6 seconds 182 msec
