                         Program Version 4.1.2  - RELEASE  -
|  1> #Run DFT-D3 single point of the dimer
|  2> ! wB97X-D3 def2-TZVP TIGHTSCF CHELPG PMODEL PAL8
|  3>
|  4> %base "12-209_DFT_AB"
|  5>
|  6> %scf
|  7> MaxIter 1000
|  8> end
|  9>
| 10> * xyz 0 1
| 11>   C                      -2.069686            -4.856370            7.588337
| 12>   O                      -1.982961            -6.087089            6.809619
| 13>   H                      -1.495938            -5.822914            6.054951
| 14>   H                      -3.031216            -4.309157            7.269200
| 15>   H                      -2.211093            -5.128542            8.600065
| 16>   H                      -1.154506            -4.294237            7.527639
| 17>   C                      -0.570315            -5.366572            2.859844
| 18>   O                      -1.542925            -5.824742            3.755910
| 19>   H                      -2.367549            -5.945227            3.279267
| 20>   H                      -0.680391            -5.851199            1.865177
| 21>   H                      -0.741280            -4.326859            2.602505
| 22>   H                      0.429740             -5.547749            3.293926
| 23> *
| 24>
| 25> #Run DFT-D3 single point of the molecule with dimer basis set
| 26> $new_job
| 27> %base "12-209_DFT_A"
| 28> ! wB97X-D3 def2-TZVP TIGHTSCF CHELPG PMODEL
| 29>
| 30> %scf
| 31> MaxIter 1000
| 32> end
| 33>
| 34> * xyz 0 1
| 35>   C                      -2.069686            -4.856370            7.588337
| 36>   O                      -1.982961            -6.087089            6.809619
| 37>   H                      -1.495938            -5.822914            6.054951
| 38>   H                      -3.031216            -4.309157            7.269200
| 39>   H                      -2.211093            -5.128542            8.600065
| 40>   H                      -1.154506            -4.294237            7.527639
| 41>   C                    : -0.570315            -5.366572            2.859844
| 42>   O                    : -1.542925            -5.824742            3.755910
| 43>   H                    : -2.367549            -5.945227            3.279267
| 44>   H                    : -0.680391            -5.851199            1.865177
| 45>   H                    : -0.741280            -4.326859            2.602505
| 46>   H                    : 0.429740             -5.547749            3.293926
| 47> *
| 48>
| 49> #Run DFT-D3 single point of the particle with dimer basis set
| 50> $new_job
| 51> %base "12-209_DFT_B"
| 52> ! wB97X-D3 def2-TZVP TIGHTSCF CHELPG PMODEL
| 53>
| 54> %scf
| 55> MaxIter 1000
| 56> end
| 57>
| 58> * xyz 0 1
| 59>   C                    : -2.069686            -4.856370            7.588337
| 60>   O                    : -1.982961            -6.087089            6.809619
| 61>   H                    : -1.495938            -5.822914            6.054951
| 62>   H                    : -3.031216            -4.309157            7.269200
| 63>   H                    : -2.211093            -5.128542            8.600065
| 64>   H                    : -1.154506            -4.294237            7.527639
| 65>   C                      -0.570315            -5.366572            2.859844
| 66>   O                      -1.542925            -5.824742            3.755910
| 67>   H                      -2.367549            -5.945227            3.279267
| 68>   H                      -0.680391            -5.851199            1.865177
| 69>   H                      -0.741280            -4.326859            2.602505
| 70>   H                      0.429740             -5.547749            3.293926
| 71> *
| 72>
| 73>                          ****END OF INPUT****
 Total Charge           Charge          ....    0
 Multiplicity           Mult            ....    1
 Number of Electrons    NEL             ....   36
Dispersion correction           -0.001370953
FINAL SINGLE POINT ENERGY      -231.470968948807
Dispersion correction           -0.000242641
FINAL SINGLE POINT ENERGY      -115.731004093314

CARTESIAN COORDINATES (ANGSTROEM)
---------------------------------
  C     -2.069686   -4.856370    7.588337
  O     -1.982961   -6.087089    6.809619
  H     -1.495938   -5.822914    6.054951
  H     -3.031216   -4.309157    7.269200
  H     -2.211093   -5.128542    8.600065
  H     -1.154506   -4.294237    7.527639
  C     -0.570315   -5.366572    2.859844
  O     -1.542925   -5.824742    3.755910
  H     -2.367549   -5.945227    3.279267
  H     -0.680391   -5.851199    1.865177
  H     -0.741280   -4.326859    2.602505
  H      0.429740   -5.547749    3.293926

 Multiplicity           Mult            ....    1
 Number of Electrons    NEL             ....   18
 Basis Dimension        Dim             ....  172

ORBITAL ENERGIES
----------------

  NO   OCC          E(Eh)            E(eV)
   0   2.0000     -19.229655      -523.2655
   1   2.0000     -10.314374      -280.6684
   2   2.0000      -1.140805       -31.0429
   3   2.0000      -0.793365       -21.5886
   4   2.0000      -0.618196       -16.8220
   5   2.0000      -0.538615       -14.6565
   6   2.0000      -0.527896       -14.3648
   7   2.0000      -0.436672       -11.8824
   8   2.0000      -0.369528       -10.0554
   9   0.0000       0.098404         2.6777
  10   0.0000       0.118967         3.2373
  11   0.0000       0.155872         4.2415
  12   0.0000       0.185857         5.0574
  13   0.0000       0.201651         5.4872

MULLIKEN ATOMIC CHARGES
-----------------------
   0 C :   -0.000953
   1 O :    0.000889
   2 H :   -0.008763
   3 H :   -0.000151
   4 H :   -0.000155
   5 H :   -0.000024
   6 C :   -0.155752
   7 O :   -0.465993
   8 H :    0.312963
   9 H :    0.095741
  10 H :    0.099562
  11 H :    0.122636
Sum of atomic charges:   -0.0000000

LOEWDIN ATOMIC CHARGES
----------------------
   0 C :   -0.001328
   1 O :   -0.003301
   2 H :   -0.020306
   3 H :   -0.000109
   4 H :   -0.000036
   5 H :   -0.000050
   6 C :   -0.395820
   7 O :   -0.049078
   8 H :    0.169741
   9 H :    0.097551
  10 H :    0.090796
  11 H :    0.111941

  Mayer bond orders larger than 0.1
B(  6-C ,  7-O ) :   0.9921 B(  6-C ,  9-H ) :   0.9771 B(  6-C , 10-H ) :   0.9725
B(  6-C , 11-H ) :   0.9744 B(  7-O ,  8-H ) :   0.8968

Dispersion correction           -0.000228752
FINAL SINGLE POINT ENERGY      -115.734793844905

DIPOLE MOMENT
-------------
                                X             Y             Z
Electronic contribution:     -1.08731      -0.59296       1.32599
Nuclear contribution   :      0.93148       0.68729      -1.99903
                        -----------------------------------------
Total Dipole Moment    :     -0.15583       0.09433      -0.67304
                        -----------------------------------------
Magnitude (a.u.)       :      0.69725
Magnitude (Debye)      :      1.77228

Rotational constants in cm-1:     4.228082     0.852646     0.809511
Rotational constants in MHz : 126754.724180 25561.683999 24268.532217

                             ****ORCA TERMINATED NORMALLY****
TOTAL RUN TIME: 0 days 0 hours 1 minutes 6 seconds 58 msec
