                         Program Version 4.1.2  - RELEASE  -
|  1> #Run DFT-D3 single point of the dimer
|  2> ! wB97X-D3 def2-TZVP TIGHTSCF CHELPG PMODEL PAL8
|  3>
|  4> %base "21-40_DFT_AB"
|  5>
|  6> %scf
|  7> MaxIter 1000
|  8> end
|  9>
| 10> * xyz 0 1
| 11>   C                      -4.571858            -8.509217            7.080362
| 12>   O                      -3.583468            -7.449682            7.394431
| 13>   H                      -3.572475            -6.902586            6.640899
| 14>   H                      -4.180799            -9.176255            6.298429
| 15>   H                      -4.673121            -9.129860            7.950470
| 16>   H                      -5.476760            -8.065264            6.898514
| 17>   C                      -3.712011            -5.777773            10.220480
| 18>   O                      -3.182050            -5.154310            11.308558
| 19>   H                      -3.078818            -5.835149            12.033996
| 20>   H                      -4.135902            -4.986373            9.601358
| 21>   H                      -2.973094            -6.301456            9.614988
| 22>   H                      -4.515490            -6.388206            10.536584
| 23> *
| 24>
| 25> #Run DFT-D3 single point of the molecule with dimer basis set
| 26> $new_job
| 27> %base "21-40_DFT_A"
| 28> ! wB97X-D3 def2-TZVP TIGHTSCF CHELPG PMODEL
| 29>
| 30> %scf
| 31> MaxIter 1000
| 32> end
| 33>
| 34> * xyz 0 1
| 35>   C                      -4.571858            -8.509217            7.080362
| 36>   O                      -3.583468            -7.449682            7.394431
| 37>   H                      -3.572475            -6.902586            6.640899
| 38>   H                      -4.180799            -9.176255            6.298429
| 39>   H                      -4.673121            -9.129860            7.950470
| 40>   H                      -5.476760            -8.065264            6.898514
| 41>   C                    : -3.712011            -5.777773            10.220480
| 42>   O                    : -3.182050            -5.154310            11.308558
| 43>   H                    : -3.078818            -5.835149            12.033996
| 44>   H                    : -4.135902            -4.986373            9.601358
| 45>   H                    : -2.973094            -6.301456            9.614988
| 46>   H                    : -4.515490            -6.388206            10.536584
| 47> *
| 48>
| 49> #Run DFT-D3 single point of the particle with dimer basis set
| 50> $new_job
| 51> %base "21-40_DFT_B"
| 52> ! wB97X-D3 def2-TZVP TIGHTSCF CHELPG PMODEL
| 53>
| 54> %scf
| 55> MaxIter 1000
| 56> end
| 57>
| 58> * xyz 0 1
| 59>   C                    : -4.571858            -8.509217            7.080362
| 60>   O                    : -3.583468            -7.449682            7.394431
| 61>   H                    : -3.572475            -6.902586            6.640899
| 62>   H                    : -4.180799            -9.176255            6.298429
| 63>   H                    : -4.673121            -9.129860            7.950470
| 64>   H                    : -5.476760            -8.065264            6.898514
| 65>   C                      -3.712011            -5.777773            10.220480
| 66>   O                      -3.182050            -5.154310            11.308558
| 67>   H                      -3.078818            -5.835149            12.033996
| 68>   H                      -4.135902            -4.986373            9.601358
| 69>   H                      -2.973094            -6.301456            9.614988
| 70>   H                      -4.515490            -6.388206            10.536584
| 71> *
| 72>
| 73>                          ****END OF INPUT****
 Total Charge           Charge          ....    0
 Multiplicity           Mult            ....    1
 Number of Electrons    NEL             ....   36
Dispersion correction           -0.001534505
FINAL SINGLE POINT ENERGY      -231.462568475670
Dispersion correction           -0.000238914
FINAL SINGLE POINT ENERGY      -115.729925981088

CARTESIAN COORDINATES (ANGSTROEM)
---------------------------------
  C     -4.571858   -8.509217    7.080362
  O     -3.583468   -7.449682    7.394431
  H     -3.572475   -6.902586    6.640899
  H     -4.180799   -9.176255    6.298429
  H     -4.673121   -9.129860    7.950470
  H     -5.476760   -8.065264    6.898514
  C     -3.712011   -5.777773   10.220480
  O     -3.182050   -5.154310   11.308558
  H     -3.078818   -5.835149   12.033996
  H     -4.135902   -4.986373    9.601358
  H     -2.973094   -6.301456    9.614988
  H     -4.515490   -6.388206   10.536584

 Multiplicity           Mult            ....    1
 Number of Electrons    NEL             ....   18
 Basis Dimension        Dim             ....  172

ORBITAL ENERGIES
----------------

  NO   OCC          E(Eh)            E(eV)
   0   2.0000     -19.230188      -523.2800
   1   2.0000     -10.301533      -280.3190
   2   2.0000      -1.145921       -31.1821
   3   2.0000      -0.790767       -21.5179
   4   2.0000      -0.615354       -16.7446
   5   2.0000      -0.555868       -15.1259
   6   2.0000      -0.530604       -14.4385
   7   2.0000      -0.425099       -11.5675
   8   2.0000      -0.370443       -10.0803
   9   0.0000       0.081843         2.2271
  10   0.0000       0.111065         3.0222
  11   0.0000       0.151435         4.1208
  12   0.0000       0.169265         4.6059
  13   0.0000       0.190689         5.1889

MULLIKEN ATOMIC CHARGES
-----------------------
   0 C :   -0.000169
   1 O :   -0.000634
   2 H :   -0.000285
   3 H :    0.000016
   4 H :   -0.000175
   5 H :   -0.000008
   6 C :   -0.145736
   7 O :   -0.471251
   8 H :    0.316239
   9 H :    0.109862
  10 H :    0.091567
  11 H :    0.100575
Sum of atomic charges:   -0.0000000

LOEWDIN ATOMIC CHARGES
----------------------
   0 C :   -0.000856
   1 O :   -0.005637
   2 H :   -0.000608
   3 H :   -0.000014
   4 H :   -0.000136
   5 H :   -0.000021
   6 C :   -0.424735
   7 O :   -0.055025
   8 H :    0.194843
   9 H :    0.109841
  10 H :    0.093812
  11 H :    0.088537

  Mayer bond orders larger than 0.1
B(  6-C ,  7-O ) :   1.0086 B(  6-C ,  9-H ) :   0.9721 B(  6-C , 10-H ) :   0.9738
B(  6-C , 11-H ) :   0.9876 B(  7-O ,  8-H ) :   0.8929

Dispersion correction           -0.000212050
FINAL SINGLE POINT ENERGY      -115.731262796027

DIPOLE MOMENT
-------------
                                X             Y             Z
Electronic contribution:      0.71553       0.85064       1.35275
Nuclear contribution   :     -0.87047      -1.49155      -1.28896
                        -----------------------------------------
Total Dipole Moment    :     -0.15494      -0.64091       0.06379
                        -----------------------------------------
Magnitude (a.u.)       :      0.66245
Magnitude (Debye)      :      1.68380

Rotational constants in cm-1:     4.272832     0.890737     0.859413
Rotational constants in MHz : 128096.269036 26703.614679 25764.547630

                             ****ORCA TERMINATED NORMALLY****
TOTAL RUN TIME: 0 days 0 hours 1 minutes 0 seconds 587 msec
