                         Program Version 4.1.2  - RELEASE  -
|  1> #Run DFT-D3 single point of the dimer
|  2> ! wB97X-D3 def2-TZVP TIGHTSCF CHELPG PMODEL PAL8
|  3>
|  4> %base "2-170_DFT_AB"
|  5>
|  6> %scf
|  7> MaxIter 1000
|  8> end
|  9>
| 10> * xyz 0 1
| 11>   C                      -5.024703            -0.475523            -9.681912
| 12>   O                      -5.610899            -0.556094            -8.404248
| 13>   H                      -6.295084            0.138355             -8.425728
| 14>   H                      -5.727918            -0.348094            -10.497416
| 15>   H                      -4.225119            0.281107             -9.772922
| 16>   H                      -4.465926            -1.431594            -9.972453
| 17>   C                      -8.553679            1.998471             -10.210150
| 18>   O                      -9.406339            1.833040             -9.120833
| 19>   H                      -9.828810            0.981746             -9.163183
| 20>   H                      -9.071317            1.805013             -11.142384
| 21>   H                      -8.218732            3.056978             -10.178995
| 22>   H                      -7.623207            1.354793             -10.046904
| 23> *
| 24>
| 25> #Run DFT-D3 single point of the molecule with dimer basis set
| 26> $new_job
| 27> %base "2-170_DFT_A"
| 28> ! wB97X-D3 def2-TZVP TIGHTSCF CHELPG PMODEL
| 29>
| 30> %scf
| 31> MaxIter 1000
| 32> end
| 33>
| 34> * xyz 0 1
| 35>   C                      -5.024703            -0.475523            -9.681912
| 36>   O                      -5.610899            -0.556094            -8.404248
| 37>   H                      -6.295084            0.138355             -8.425728
| 38>   H                      -5.727918            -0.348094            -10.497416
| 39>   H                      -4.225119            0.281107             -9.772922
| 40>   H                      -4.465926            -1.431594            -9.972453
| 41>   C                    : -8.553679            1.998471             -10.210150
| 42>   O                    : -9.406339            1.833040             -9.120833
| 43>   H                    : -9.828810            0.981746             -9.163183
| 44>   H                    : -9.071317            1.805013             -11.142384
| 45>   H                    : -8.218732            3.056978             -10.178995
| 46>   H                    : -7.623207            1.354793             -10.046904
| 47> *
| 48>
| 49> #Run DFT-D3 single point of the particle with dimer basis set
| 50> $new_job
| 51> %base "2-170_DFT_B"
| 52> ! wB97X-D3 def2-TZVP TIGHTSCF CHELPG PMODEL
| 53>
| 54> %scf
| 55> MaxIter 1000
| 56> end
| 57>
| 58> * xyz 0 1
| 59>   C                    : -5.024703            -0.475523            -9.681912
| 60>   O                    : -5.610899            -0.556094            -8.404248
| 61>   H                    : -6.295084            0.138355             -8.425728
| 62>   H                    : -5.727918            -0.348094            -10.497416
| 63>   H                    : -4.225119            0.281107             -9.772922
| 64>   H                    : -4.465926            -1.431594            -9.972453
| 65>   C                      -8.553679            1.998471             -10.210150
| 66>   O                      -9.406339            1.833040             -9.120833
| 67>   H                      -9.828810            0.981746             -9.163183
| 68>   H                      -9.071317            1.805013             -11.142384
| 69>   H                      -8.218732            3.056978             -10.178995
| 70>   H                      -7.623207            1.354793             -10.046904
| 71> *
| 72>
| 73>                          ****END OF INPUT****
 Total Charge           Charge          ....    0
 Multiplicity           Mult            ....    1
 Number of Electrons    NEL             ....   36
Dispersion correction           -0.001461548
FINAL SINGLE POINT ENERGY      -231.468208926166
Dispersion correction           -0.000255476
FINAL SINGLE POINT ENERGY      -115.732459333272

CARTESIAN COORDINATES (ANGSTROEM)
---------------------------------
  C     -5.024703   -0.475523   -9.681912
  O     -5.610899   -0.556094   -8.404248
  H     -6.295084    0.138355   -8.425728
  H     -5.727918   -0.348094  -10.497416
  H     -4.225119    0.281107   -9.772922
  H     -4.465926   -1.431594   -9.972453
  C     -8.553679    1.998471  -10.210150
  O     -9.406339    1.833040   -9.120833
  H     -9.828810    0.981746   -9.163183
  H     -9.071317    1.805013  -11.142384
  H     -8.218732    3.056978  -10.178995
  H     -7.623207    1.354793  -10.046904

 Multiplicity           Mult            ....    1
 Number of Electrons    NEL             ....   18
 Basis Dimension        Dim             ....  172

ORBITAL ENERGIES
----------------

  NO   OCC          E(Eh)            E(eV)
   0   2.0000     -19.226484      -523.1792
   1   2.0000     -10.316527      -280.7270
   2   2.0000      -1.142740       -31.0955
   3   2.0000      -0.791270       -21.5315
   4   2.0000      -0.611866       -16.6497
   5   2.0000      -0.546461       -14.8700
   6   2.0000      -0.526846       -14.3362
   7   2.0000      -0.427534       -11.6338
   8   2.0000      -0.371362       -10.1053
   9   0.0000       0.084576         2.3014
  10   0.0000       0.120004         3.2655
  11   0.0000       0.159446         4.3387
  12   0.0000       0.167904         4.5689
  13   0.0000       0.192223         5.2307

MULLIKEN ATOMIC CHARGES
-----------------------
   0 C :   -0.000737
   1 O :   -0.000529
   2 H :    0.003073
   3 H :   -0.001148
   4 H :   -0.000063
   5 H :   -0.000024
   6 C :   -0.150869
   7 O :   -0.474682
   8 H :    0.312945
   9 H :    0.106272
  10 H :    0.114756
  11 H :    0.091008
Sum of atomic charges:   -0.0000000

LOEWDIN ATOMIC CHARGES
----------------------
   0 C :   -0.003813
   1 O :   -0.000180
   2 H :   -0.002528
   3 H :   -0.002960
   4 H :   -0.000079
   5 H :   -0.000032
   6 C :   -0.401619
   7 O :   -0.061950
   8 H :    0.162267
   9 H :    0.091975
  10 H :    0.113060
  11 H :    0.105862

  Mayer bond orders larger than 0.1
B(  6-C ,  7-O ) :   0.9959 B(  6-C ,  9-H ) :   0.9796 B(  6-C , 10-H ) :   0.9706
B(  6-C , 11-H ) :   0.9762 B(  7-O ,  8-H ) :   0.9000

Dispersion correction           -0.000232008
FINAL SINGLE POINT ENERGY      -115.734698215212

DIPOLE MOMENT
-------------
                                X             Y             Z
Electronic contribution:     -1.12554      -0.11843       1.33513
Nuclear contribution   :      1.15913      -0.34316      -1.77969
                        -----------------------------------------
Total Dipole Moment    :      0.03360      -0.46160      -0.44456
                        -----------------------------------------
Magnitude (a.u.)       :      0.64174
Magnitude (Debye)      :      1.63118

Rotational constants in cm-1:     4.124262     0.851394     0.828052
Rotational constants in MHz : 123642.256676 25524.155072 24824.377218

                             ****ORCA TERMINATED NORMALLY****
TOTAL RUN TIME: 0 days 0 hours 6 minutes 25 seconds 579 msec
