                         Program Version 4.1.2  - RELEASE  -
|  1> #Run DFT-D3 single point of the dimer
|  2> ! wB97X-D3 def2-TZVP TIGHTSCF CHELPG PMODEL PAL8
|  3>
|  4> %base "13-77_DFT_AB"
|  5>
|  6> %scf
|  7> MaxIter 1000
|  8> end
|  9>
| 10> * xyz 0 1
| 11>   C                      9.028161             -7.584521            4.100614
| 12>   O                      8.192791             -6.828802            5.014434
| 13>   H                      7.594326             -6.269406            4.519792
| 14>   H                      8.513725             -7.939866            3.227101
| 15>   H                      9.834166             -6.927564            3.751375
| 16>   H                      9.510038             -8.408056            4.560258
| 17>   C                      8.307011             -7.647958            8.749003
| 18>   O                      7.273924             -7.553112            7.776317
| 19>   H                      7.664353             -7.568868            6.900975
| 20>   H                      7.960252             -7.834441            9.762844
| 21>   H                      9.044794             -8.341468            8.415680
| 22>   H                      8.861906             -6.732982            8.793555
| 23> *
| 24>
| 25> #Run DFT-D3 single point of the molecule with dimer basis set
| 26> $new_job
| 27> %base "13-77_DFT_A"
| 28> ! wB97X-D3 def2-TZVP TIGHTSCF CHELPG PMODEL
| 29>
| 30> %scf
| 31> MaxIter 1000
| 32> end
| 33>
| 34> * xyz 0 1
| 35>   C                      9.028161             -7.584521            4.100614
| 36>   O                      8.192791             -6.828802            5.014434
| 37>   H                      7.594326             -6.269406            4.519792
| 38>   H                      8.513725             -7.939866            3.227101
| 39>   H                      9.834166             -6.927564            3.751375
| 40>   H                      9.510038             -8.408056            4.560258
| 41>   C                    : 8.307011             -7.647958            8.749003
| 42>   O                    : 7.273924             -7.553112            7.776317
| 43>   H                    : 7.664353             -7.568868            6.900975
| 44>   H                    : 7.960252             -7.834441            9.762844
| 45>   H                    : 9.044794             -8.341468            8.415680
| 46>   H                    : 8.861906             -6.732982            8.793555
| 47> *
| 48>
| 49> #Run DFT-D3 single point of the particle with dimer basis set
| 50> $new_job
| 51> %base "13-77_DFT_B"
| 52> ! wB97X-D3 def2-TZVP TIGHTSCF CHELPG PMODEL
| 53>
| 54> %scf
| 55> MaxIter 1000
| 56> end
| 57>
| 58> * xyz 0 1
| 59>   C                    : 9.028161             -7.584521            4.100614
| 60>   O                    : 8.192791             -6.828802            5.014434
| 61>   H                    : 7.594326             -6.269406            4.519792
| 62>   H                    : 8.513725             -7.939866            3.227101
| 63>   H                    : 9.834166             -6.927564            3.751375
| 64>   H                    : 9.510038             -8.408056            4.560258
| 65>   C                      8.307011             -7.647958            8.749003
| 66>   O                      7.273924             -7.553112            7.776317
| 67>   H                      7.664353             -7.568868            6.900975
| 68>   H                      7.960252             -7.834441            9.762844
| 69>   H                      9.044794             -8.341468            8.415680
| 70>   H                      8.861906             -6.732982            8.793555
| 71> *
| 72>
| 73>                          ****END OF INPUT****
 Total Charge           Charge          ....    0
 Multiplicity           Mult            ....    1
 Number of Electrons    NEL             ....   36
Dispersion correction           -0.001527308
FINAL SINGLE POINT ENERGY      -231.474292430450
Dispersion correction           -0.000256721
FINAL SINGLE POINT ENERGY      -115.733898386882

CARTESIAN COORDINATES (ANGSTROEM)
---------------------------------
  C      9.028161   -7.584521    4.100614
  O      8.192791   -6.828802    5.014434
  H      7.594326   -6.269406    4.519792
  H      8.513725   -7.939866    3.227101
  H      9.834166   -6.927564    3.751375
  H      9.510038   -8.408056    4.560258
  C      8.307011   -7.647958    8.749003
  O      7.273924   -7.553112    7.776317
  H      7.664353   -7.568868    6.900975
  H      7.960252   -7.834441    9.762844
  H      9.044794   -8.341468    8.415680
  H      8.861906   -6.732982    8.793555

 Multiplicity           Mult            ....    1
 Number of Electrons    NEL             ....   18
 Basis Dimension        Dim             ....  172

ORBITAL ENERGIES
----------------

  NO   OCC          E(Eh)            E(eV)
   0   2.0000     -19.228399      -523.2313
   1   2.0000     -10.307723      -280.4874
   2   2.0000      -1.132728       -30.8231
   3   2.0000      -0.801329       -21.8053
   4   2.0000      -0.613637       -16.6979
   5   2.0000      -0.539919       -14.6919
   6   2.0000      -0.531387       -14.4598
   7   2.0000      -0.436740       -11.8843
   8   2.0000      -0.369877       -10.0649
   9   0.0000       0.068867         1.8740
  10   0.0000       0.129759         3.5309
  11   0.0000       0.147092         4.0026
  12   0.0000       0.166217         4.5230
  13   0.0000       0.195051         5.3076

MULLIKEN ATOMIC CHARGES
-----------------------
   0 C :   -0.001492
   1 O :   -0.002629
   2 H :   -0.000467
   3 H :    0.000022
   4 H :    0.000042
   5 H :   -0.000121
   6 C :   -0.170428
   7 O :   -0.471194
   8 H :    0.312162
   9 H :    0.123292
  10 H :    0.108501
  11 H :    0.102312
Sum of atomic charges:   -0.0000000

LOEWDIN ATOMIC CHARGES
----------------------
   0 C :   -0.002290
   1 O :   -0.013700
   2 H :   -0.001046
   3 H :   -0.000037
   4 H :   -0.000042
   5 H :   -0.000283
   6 C :   -0.371074
   7 O :   -0.075239
   8 H :    0.172408
   9 H :    0.108326
  10 H :    0.091913
  11 H :    0.091063

  Mayer bond orders larger than 0.1
B(  6-C ,  7-O ) :   0.9905 B(  6-C ,  9-H ) :   0.9720 B(  6-C , 10-H ) :   0.9868
B(  6-C , 11-H ) :   0.9754 B(  7-O ,  8-H ) :   0.9051

Dispersion correction           -0.000229758
FINAL SINGLE POINT ENERGY      -115.732700896547

DIPOLE MOMENT
-------------
                                X             Y             Z
Electronic contribution:     -1.48660       0.03920      -1.04744
Nuclear contribution   :      2.17669      -0.08352       0.89495
                        -----------------------------------------
Total Dipole Moment    :      0.69009      -0.04432      -0.15249
                        -----------------------------------------
Magnitude (a.u.)       :      0.70813
Magnitude (Debye)      :      1.79992

Rotational constants in cm-1:     4.477732     0.829325     0.789565
Rotational constants in MHz : 134239.036260 24862.530610 23670.551927

                             ****ORCA TERMINATED NORMALLY****
TOTAL RUN TIME: 0 days 0 hours 1 minutes 6 seconds 959 msec
