                         Program Version 4.1.2  - RELEASE  -
|  1> #Run DFT-D3 single point of the dimer
|  2> ! wB97X-D3 def2-TZVP TIGHTSCF CHELPG PMODEL PAL8
|  3>
|  4> %base "12-130_DFT_AB"
|  5>
|  6> %scf
|  7> MaxIter 1000
|  8> end
|  9>
| 10> * xyz 0 1
| 11>   C                      -11.022894           6.448989             1.627032
| 12>   O                      -9.925908            5.585104             1.684676
| 13>   H                      -10.290465           4.941397             2.303877
| 14>   H                      -11.009041           7.205912             2.404261
| 15>   H                      -10.852252           7.117249             0.818682
| 16>   H                      -12.057190           5.986624             1.398803
| 17>   C                      -10.670957           3.030297             4.710235
| 18>   O                      -10.502907           4.336331             4.205052
| 19>   H                      -10.965201           4.921038             4.841216
| 20>   H                      -10.552279           3.031199             5.798324
| 21>   H                      -11.655012           2.533450             4.450747
| 22>   H                      -9.903915            2.369171             4.159388
| 23> *
| 24>
| 25> #Run DFT-D3 single point of the molecule with dimer basis set
| 26> $new_job
| 27> %base "12-130_DFT_A"
| 28> ! wB97X-D3 def2-TZVP TIGHTSCF CHELPG PMODEL
| 29>
| 30> %scf
| 31> MaxIter 1000
| 32> end
| 33>
| 34> * xyz 0 1
| 35>   C                      -11.022894           6.448989             1.627032
| 36>   O                      -9.925908            5.585104             1.684676
| 37>   H                      -10.290465           4.941397             2.303877
| 38>   H                      -11.009041           7.205912             2.404261
| 39>   H                      -10.852252           7.117249             0.818682
| 40>   H                      -12.057190           5.986624             1.398803
| 41>   C                    : -10.670957           3.030297             4.710235
| 42>   O                    : -10.502907           4.336331             4.205052
| 43>   H                    : -10.965201           4.921038             4.841216
| 44>   H                    : -10.552279           3.031199             5.798324
| 45>   H                    : -11.655012           2.533450             4.450747
| 46>   H                    : -9.903915            2.369171             4.159388
| 47> *
| 48>
| 49> #Run DFT-D3 single point of the particle with dimer basis set
| 50> $new_job
| 51> %base "12-130_DFT_B"
| 52> ! wB97X-D3 def2-TZVP TIGHTSCF CHELPG PMODEL
| 53>
| 54> %scf
| 55> MaxIter 1000
| 56> end
| 57>
| 58> * xyz 0 1
| 59>   C                    : -11.022894           6.448989             1.627032
| 60>   O                    : -9.925908            5.585104             1.684676
| 61>   H                    : -10.290465           4.941397             2.303877
| 62>   H                    : -11.009041           7.205912             2.404261
| 63>   H                    : -10.852252           7.117249             0.818682
| 64>   H                    : -12.057190           5.986624             1.398803
| 65>   C                      -10.670957           3.030297             4.710235
| 66>   O                      -10.502907           4.336331             4.205052
| 67>   H                      -10.965201           4.921038             4.841216
| 68>   H                      -10.552279           3.031199             5.798324
| 69>   H                      -11.655012           2.533450             4.450747
| 70>   H                      -9.903915            2.369171             4.159388
| 71> *
| 72>
| 73>                          ****END OF INPUT****
 Total Charge           Charge          ....    0
 Multiplicity           Mult            ....    1
 Number of Electrons    NEL             ....   36
Dispersion correction           -0.001701966
FINAL SINGLE POINT ENERGY      -231.464117758686
Dispersion correction           -0.000238417
FINAL SINGLE POINT ENERGY      -115.725160145494

CARTESIAN COORDINATES (ANGSTROEM)
---------------------------------
  C    -11.022894    6.448989    1.627032
  O     -9.925908    5.585104    1.684676
  H    -10.290465    4.941397    2.303877
  H    -11.009041    7.205912    2.404261
  H    -10.852252    7.117249    0.818682
  H    -12.057190    5.986624    1.398803
  C    -10.670957    3.030297    4.710235
  O    -10.502907    4.336331    4.205052
  H    -10.965201    4.921038    4.841216
  H    -10.552279    3.031199    5.798324
  H    -11.655012    2.533450    4.450747
  H     -9.903915    2.369171    4.159388

 Multiplicity           Mult            ....    1
 Number of Electrons    NEL             ....   18
 Basis Dimension        Dim             ....  172

ORBITAL ENERGIES
----------------

  NO   OCC          E(Eh)            E(eV)
   0   2.0000     -19.235840      -523.4338
   1   2.0000     -10.323663      -280.9212
   2   2.0000      -1.137812       -30.9615
   3   2.0000      -0.785216       -21.3668
   4   2.0000      -0.611796       -16.6478
   5   2.0000      -0.540948       -14.7199
   6   2.0000      -0.517689       -14.0870
   7   2.0000      -0.437043       -11.8925
   8   2.0000      -0.372268       -10.1299
   9   0.0000       0.094960         2.5840
  10   0.0000       0.123335         3.3561
  11   0.0000       0.150163         4.0861
  12   0.0000       0.181364         4.9352
  13   0.0000       0.197708         5.3799

MULLIKEN ATOMIC CHARGES
-----------------------
   0 C :   -0.002354
   1 O :    0.002395
   2 H :   -0.008531
   3 H :   -0.000652
   4 H :   -0.000457
   5 H :   -0.000787
   6 C :   -0.170215
   7 O :   -0.457543
   8 H :    0.314407
   9 H :    0.108172
  10 H :    0.097915
  11 H :    0.117649
Sum of atomic charges:    0.0000000

LOEWDIN ATOMIC CHARGES
----------------------
   0 C :   -0.006754
   1 O :   -0.005488
   2 H :   -0.035552
   3 H :   -0.000430
   4 H :   -0.000120
   5 H :   -0.000446
   6 C :   -0.402886
   7 O :   -0.042853
   8 H :    0.182498
   9 H :    0.095566
  10 H :    0.097458
  11 H :    0.119009

  Mayer bond orders larger than 0.1
B(  6-C ,  7-O ) :   0.9967 B(  6-C ,  9-H ) :   0.9741 B(  6-C , 10-H ) :   0.9641
B(  6-C , 11-H ) :   0.9772 B(  7-O ,  8-H ) :   0.8955

Dispersion correction           -0.000251184
FINAL SINGLE POINT ENERGY      -115.732353787008

DIPOLE MOMENT
-------------
                                X             Y             Z
Electronic contribution:      0.29720       1.70839      -0.67630
Nuclear contribution   :     -0.63542      -1.83619       1.27788
                        -----------------------------------------
Total Dipole Moment    :     -0.33822      -0.12780       0.60158
                        -----------------------------------------
Magnitude (a.u.)       :      0.70188
Magnitude (Debye)      :      1.78403

Rotational constants in cm-1:     4.041210     0.835752     0.795645
Rotational constants in MHz : 121152.429026 25055.219773 23852.846434

                             ****ORCA TERMINATED NORMALLY****
TOTAL RUN TIME: 0 days 0 hours 1 minutes 11 seconds 776 msec
