                         Program Version 4.1.2  - RELEASE  -
|  1> #Run DFT-D3 single point of the dimer
|  2> ! wB97X-D3 def2-TZVP TIGHTSCF CHELPG PMODEL PAL8
|  3>
|  4> %base "2-168_DFT_AB"
|  5>
|  6> %scf
|  7> MaxIter 1000
|  8> end
|  9>
| 10> * xyz 0 1
| 11>   C                      -5.713303            3.277059             -8.206859
| 12>   O                      -6.575882            4.002140             -9.087168
| 13>   H                      -6.399172            4.927764             -9.038590
| 14>   H                      -5.820958            3.609487             -7.198915
| 15>   H                      -5.852943            2.193454             -8.268895
| 16>   H                      -4.677271            3.379742             -8.473651
| 17>   C                      -1.889414            5.387526             -8.047681
| 18>   O                      -2.774712            5.569098             -9.119193
| 19>   H                      -3.598853            5.089498             -8.957806
| 20>   H                      -2.384633            4.907691             -7.157423
| 21>   H                      -1.104034            4.642163             -8.372407
| 22>   H                      -1.352291            6.278624             -7.726872
| 23> *
| 24>
| 25> #Run DFT-D3 single point of the molecule with dimer basis set
| 26> $new_job
| 27> %base "2-168_DFT_A"
| 28> ! wB97X-D3 def2-TZVP TIGHTSCF CHELPG PMODEL
| 29>
| 30> %scf
| 31> MaxIter 1000
| 32> end
| 33>
| 34> * xyz 0 1
| 35>   C                      -5.713303            3.277059             -8.206859
| 36>   O                      -6.575882            4.002140             -9.087168
| 37>   H                      -6.399172            4.927764             -9.038590
| 38>   H                      -5.820958            3.609487             -7.198915
| 39>   H                      -5.852943            2.193454             -8.268895
| 40>   H                      -4.677271            3.379742             -8.473651
| 41>   C                    : -1.889414            5.387526             -8.047681
| 42>   O                    : -2.774712            5.569098             -9.119193
| 43>   H                    : -3.598853            5.089498             -8.957806
| 44>   H                    : -2.384633            4.907691             -7.157423
| 45>   H                    : -1.104034            4.642163             -8.372407
| 46>   H                    : -1.352291            6.278624             -7.726872
| 47> *
| 48>
| 49> #Run DFT-D3 single point of the particle with dimer basis set
| 50> $new_job
| 51> %base "2-168_DFT_B"
| 52> ! wB97X-D3 def2-TZVP TIGHTSCF CHELPG PMODEL
| 53>
| 54> %scf
| 55> MaxIter 1000
| 56> end
| 57>
| 58> * xyz 0 1
| 59>   C                    : -5.713303            3.277059             -8.206859
| 60>   O                    : -6.575882            4.002140             -9.087168
| 61>   H                    : -6.399172            4.927764             -9.038590
| 62>   H                    : -5.820958            3.609487             -7.198915
| 63>   H                    : -5.852943            2.193454             -8.268895
| 64>   H                    : -4.677271            3.379742             -8.473651
| 65>   C                      -1.889414            5.387526             -8.047681
| 66>   O                      -2.774712            5.569098             -9.119193
| 67>   H                      -3.598853            5.089498             -8.957806
| 68>   H                      -2.384633            4.907691             -7.157423
| 69>   H                      -1.104034            4.642163             -8.372407
| 70>   H                      -1.352291            6.278624             -7.726872
| 71> *
| 72>
| 73>                          ****END OF INPUT****
 Total Charge           Charge          ....    0
 Multiplicity           Mult            ....    1
 Number of Electrons    NEL             ....   36
Dispersion correction           -0.001707768
FINAL SINGLE POINT ENERGY      -231.467523973633
Dispersion correction           -0.000247356
FINAL SINGLE POINT ENERGY      -115.734290313967

CARTESIAN COORDINATES (ANGSTROEM)
---------------------------------
  C     -5.713303    3.277059   -8.206859
  O     -6.575882    4.002140   -9.087168
  H     -6.399172    4.927764   -9.038590
  H     -5.820958    3.609487   -7.198915
  H     -5.852943    2.193454   -8.268895
  H     -4.677271    3.379742   -8.473651
  C     -1.889414    5.387526   -8.047681
  O     -2.774712    5.569098   -9.119193
  H     -3.598853    5.089498   -8.957806
  H     -2.384633    4.907691   -7.157423
  H     -1.104034    4.642163   -8.372407
  H     -1.352291    6.278624   -7.726872

 Multiplicity           Mult            ....    1
 Number of Electrons    NEL             ....   18
 Basis Dimension        Dim             ....  172

ORBITAL ENERGIES
----------------

  NO   OCC          E(Eh)            E(eV)
   0   2.0000     -19.231969      -523.3285
   1   2.0000     -10.319085      -280.7966
   2   2.0000      -1.138533       -30.9811
   3   2.0000      -0.791399       -21.5351
   4   2.0000      -0.613395       -16.6913
   5   2.0000      -0.539542       -14.6817
   6   2.0000      -0.527940       -14.3660
   7   2.0000      -0.430485       -11.7141
   8   2.0000      -0.369977       -10.0676
   9   0.0000       0.067520         1.8373
  10   0.0000       0.134676         3.6647
  11   0.0000       0.145355         3.9553
  12   0.0000       0.167809         4.5663
  13   0.0000       0.181040         4.9263

MULLIKEN ATOMIC CHARGES
-----------------------
   0 C :    0.002796
   1 O :    0.000263
   2 H :   -0.000362
   3 H :    0.000082
   4 H :   -0.000293
   5 H :   -0.009224
   6 C :   -0.169661
   7 O :   -0.470478
   8 H :    0.321953
   9 H :    0.101638
  10 H :    0.102329
  11 H :    0.120957
Sum of atomic charges:    0.0000000

LOEWDIN ATOMIC CHARGES
----------------------
   0 C :   -0.004177
   1 O :   -0.000123
   2 H :   -0.000740
   3 H :   -0.000098
   4 H :   -0.000043
   5 H :   -0.005960
   6 C :   -0.402145
   7 O :   -0.067440
   8 H :    0.176800
   9 H :    0.100723
  10 H :    0.102433
  11 H :    0.100769

  Mayer bond orders larger than 0.1
B(  6-C ,  7-O ) :   0.9925 B(  6-C ,  9-H ) :   0.9806 B(  6-C , 10-H ) :   0.9788
B(  6-C , 11-H ) :   0.9711 B(  7-O ,  8-H ) :   0.9001

Dispersion correction           -0.000256775
FINAL SINGLE POINT ENERGY      -115.733107431026

DIPOLE MOMENT
-------------
                                X             Y             Z
Electronic contribution:     -1.12609       0.48770      -1.45350
Nuclear contribution   :      0.92923      -0.85701       1.98034
                        -----------------------------------------
Total Dipole Moment    :     -0.19686      -0.36931       0.52684
                        -----------------------------------------
Magnitude (a.u.)       :      0.67283
Magnitude (Debye)      :      1.71020

Rotational constants in cm-1:     4.231489     0.833025     0.800698
Rotational constants in MHz : 126856.854289 24973.451956 24004.334551

                             ****ORCA TERMINATED NORMALLY****
TOTAL RUN TIME: 0 days 0 hours 6 minutes 20 seconds 383 msec
