                         Program Version 4.1.2  - RELEASE  -
|  1> #Run DFT-D3 single point of the dimer
|  2> ! wB97X-D3 def2-TZVP TIGHTSCF CHELPG PMODEL PAL8
|  3>
|  4> %base "21-210_DFT_AB"
|  5>
|  6> %scf
|  7> MaxIter 1000
|  8> end
|  9>
| 10> * xyz 0 1
| 11>   C                      -0.144222            -6.388239            7.109689
| 12>   O                      0.615973             -6.573767            5.942439
| 13>   H                      0.207923             -7.303028            5.449768
| 14>   H                      0.185809             -5.543396            7.793913
| 15>   H                      -1.164782            -6.128827            6.762129
| 16>   H                      -0.143347            -7.286734            7.691108
| 17>   C                      1.196391             -3.519930            3.726010
| 18>   O                      1.924371             -4.135382            4.747398
| 19>   H                      1.270023             -4.575670            5.247882
| 20>   H                      0.571030             -2.721266            4.153416
| 21>   H                      1.868693             -3.102085            2.976502
| 22>   H                      0.354077             -4.202722            3.244190
| 23> *
| 24>
| 25> #Run DFT-D3 single point of the molecule with dimer basis set
| 26> $new_job
| 27> %base "21-210_DFT_A"
| 28> ! wB97X-D3 def2-TZVP TIGHTSCF CHELPG PMODEL
| 29>
| 30> %scf
| 31> MaxIter 1000
| 32> end
| 33>
| 34> * xyz 0 1
| 35>   C                      -0.144222            -6.388239            7.109689
| 36>   O                      0.615973             -6.573767            5.942439
| 37>   H                      0.207923             -7.303028            5.449768
| 38>   H                      0.185809             -5.543396            7.793913
| 39>   H                      -1.164782            -6.128827            6.762129
| 40>   H                      -0.143347            -7.286734            7.691108
| 41>   C                    : 1.196391             -3.519930            3.726010
| 42>   O                    : 1.924371             -4.135382            4.747398
| 43>   H                    : 1.270023             -4.575670            5.247882
| 44>   H                    : 0.571030             -2.721266            4.153416
| 45>   H                    : 1.868693             -3.102085            2.976502
| 46>   H                    : 0.354077             -4.202722            3.244190
| 47> *
| 48>
| 49> #Run DFT-D3 single point of the particle with dimer basis set
| 50> $new_job
| 51> %base "21-210_DFT_B"
| 52> ! wB97X-D3 def2-TZVP TIGHTSCF CHELPG PMODEL
| 53>
| 54> %scf
| 55> MaxIter 1000
| 56> end
| 57>
| 58> * xyz 0 1
| 59>   C                    : -0.144222            -6.388239            7.109689
| 60>   O                    : 0.615973             -6.573767            5.942439
| 61>   H                    : 0.207923             -7.303028            5.449768
| 62>   H                    : 0.185809             -5.543396            7.793913
| 63>   H                    : -1.164782            -6.128827            6.762129
| 64>   H                    : -0.143347            -7.286734            7.691108
| 65>   C                      1.196391             -3.519930            3.726010
| 66>   O                      1.924371             -4.135382            4.747398
| 67>   H                      1.270023             -4.575670            5.247882
| 68>   H                      0.571030             -2.721266            4.153416
| 69>   H                      1.868693             -3.102085            2.976502
| 70>   H                      0.354077             -4.202722            3.244190
| 71> *
| 72>
| 73>                          ****END OF INPUT****
 Total Charge           Charge          ....    0
 Multiplicity           Mult            ....    1
 Number of Electrons    NEL             ....   36
Dispersion correction           -0.001593927
FINAL SINGLE POINT ENERGY      -231.466228185657
Dispersion correction           -0.000224133
FINAL SINGLE POINT ENERGY      -115.731914691129

CARTESIAN COORDINATES (ANGSTROEM)
---------------------------------
  C     -0.144222   -6.388239    7.109689
  O      0.615973   -6.573767    5.942439
  H      0.207923   -7.303028    5.449768
  H      0.185809   -5.543396    7.793913
  H     -1.164782   -6.128827    6.762129
  H     -0.143347   -7.286734    7.691108
  C      1.196391   -3.519930    3.726010
  O      1.924371   -4.135382    4.747398
  H      1.270023   -4.575670    5.247882
  H      0.571030   -2.721266    4.153416
  H      1.868693   -3.102085    2.976502
  H      0.354077   -4.202722    3.244190

 Multiplicity           Mult            ....    1
 Number of Electrons    NEL             ....   18
 Basis Dimension        Dim             ....  172

ORBITAL ENERGIES
----------------

  NO   OCC          E(Eh)            E(eV)
   0   2.0000     -19.232930      -523.3546
   1   2.0000     -10.322802      -280.8977
   2   2.0000      -1.152791       -31.3690
   3   2.0000      -0.789879       -21.4937
   4   2.0000      -0.619287       -16.8516
   5   2.0000      -0.536047       -14.5866
   6   2.0000      -0.528393       -14.3783
   7   2.0000      -0.444979       -12.1085
   8   2.0000      -0.369573       -10.0566
   9   0.0000       0.068799         1.8721
  10   0.0000       0.129447         3.5224
  11   0.0000       0.153728         4.1832
  12   0.0000       0.158344         4.3087
  13   0.0000       0.192860         5.2480

MULLIKEN ATOMIC CHARGES
-----------------------
   0 C :   -0.001754
   1 O :   -0.002135
   2 H :   -0.000168
   3 H :   -0.000096
   4 H :    0.000081
   5 H :   -0.000015
   6 C :   -0.179172
   7 O :   -0.448094
   8 H :    0.308791
   9 H :    0.104690
  10 H :    0.127621
  11 H :    0.090250
Sum of atomic charges:    0.0000000

LOEWDIN ATOMIC CHARGES
----------------------
   0 C :   -0.003464
   1 O :   -0.009810
   2 H :   -0.000549
   3 H :   -0.000434
   4 H :   -0.000094
   5 H :   -0.000083
   6 C :   -0.408227
   7 O :   -0.041266
   8 H :    0.158751
   9 H :    0.093068
  10 H :    0.107103
  11 H :    0.105005

  Mayer bond orders larger than 0.1
B(  6-C ,  7-O ) :   0.9925 B(  6-C ,  9-H ) :   0.9790 B(  6-C , 10-H ) :   0.9715
B(  6-C , 11-H ) :   0.9685 B(  7-O ,  8-H ) :   0.9131

Dispersion correction           -0.000232691
FINAL SINGLE POINT ENERGY      -115.729586081872

DIPOLE MOMENT
-------------
                                X             Y             Z
Electronic contribution:      1.28884      -0.74043       1.26845
Nuclear contribution   :     -1.95026       0.72078      -1.31782
                        -----------------------------------------
Total Dipole Moment    :     -0.66142      -0.01965      -0.04937
                        -----------------------------------------
Magnitude (a.u.)       :      0.66355
Magnitude (Debye)      :      1.68662

Rotational constants in cm-1:     4.123107     0.852174     0.808237
Rotational constants in MHz : 123607.634755 25547.521175 24230.336978

                             ****ORCA TERMINATED NORMALLY****
TOTAL RUN TIME: 0 days 0 hours 1 minutes 6 seconds 272 msec
