                         Program Version 4.1.2  - RELEASE  -
|  1> #Run DFT-D3 single point of the dimer
|  2> ! wB97X-D3 def2-TZVP TIGHTSCF CHELPG PMODEL PAL8
|  3>
|  4> %base "17-37_DFT_AB"
|  5>
|  6> %scf
|  7> MaxIter 1000
|  8> end
|  9>
| 10> * xyz 0 1
| 11>   C                      -11.061836           -2.606470            -4.644816
| 12>   O                      -10.141956           -2.658420            -5.709561
| 13>   H                      -9.563849            -3.404879            -5.487740
| 14>   H                      -11.760266           -1.855055            -4.820786
| 15>   H                      -11.555235           -3.625237            -4.519928
| 16>   H                      -10.483612           -2.275485            -3.754695
| 17>   C                      -10.287805           0.460740             -0.488593
| 18>   O                      -11.510170           0.414027             0.221996
| 19>   H                      -11.310408           -0.018879            1.079148
| 20>   H                      -10.624061           0.378563             -1.479180
| 21>   H                      -9.775466            1.366109             -0.329355
| 22>   H                      -9.688428            -0.433824            -0.202331
| 23> *
| 24>
| 25> #Run DFT-D3 single point of the molecule with dimer basis set
| 26> $new_job
| 27> %base "17-37_DFT_A"
| 28> ! wB97X-D3 def2-TZVP TIGHTSCF CHELPG PMODEL
| 29>
| 30> %scf
| 31> MaxIter 1000
| 32> end
| 33>
| 34> * xyz 0 1
| 35>   C                      -11.061836           -2.606470            -4.644816
| 36>   O                      -10.141956           -2.658420            -5.709561
| 37>   H                      -9.563849            -3.404879            -5.487740
| 38>   H                      -11.760266           -1.855055            -4.820786
| 39>   H                      -11.555235           -3.625237            -4.519928
| 40>   H                      -10.483612           -2.275485            -3.754695
| 41>   C                    : -10.287805           0.460740             -0.488593
| 42>   O                    : -11.510170           0.414027             0.221996
| 43>   H                    : -11.310408           -0.018879            1.079148
| 44>   H                    : -10.624061           0.378563             -1.479180
| 45>   H                    : -9.775466            1.366109             -0.329355
| 46>   H                    : -9.688428            -0.433824            -0.202331
| 47> *
| 48>
| 49> #Run DFT-D3 single point of the particle with dimer basis set
| 50> $new_job
| 51> %base "17-37_DFT_B"
| 52> ! wB97X-D3 def2-TZVP TIGHTSCF CHELPG PMODEL
| 53>
| 54> %scf
| 55> MaxIter 1000
| 56> end
| 57>
| 58> * xyz 0 1
| 59>   C                    : -11.061836           -2.606470            -4.644816
| 60>   O                    : -10.141956           -2.658420            -5.709561
| 61>   H                    : -9.563849            -3.404879            -5.487740
| 62>   H                    : -11.760266           -1.855055            -4.820786
| 63>   H                    : -11.555235           -3.625237            -4.519928
| 64>   H                    : -10.483612           -2.275485            -3.754695
| 65>   C                      -10.287805           0.460740             -0.488593
| 66>   O                      -11.510170           0.414027             0.221996
| 67>   H                      -11.310408           -0.018879            1.079148
| 68>   H                      -10.624061           0.378563             -1.479180
| 69>   H                      -9.775466            1.366109             -0.329355
| 70>   H                      -9.688428            -0.433824            -0.202331
| 71> *
| 72>
| 73>                          ****END OF INPUT****
 Total Charge           Charge          ....    0
 Multiplicity           Mult            ....    1
 Number of Electrons    NEL             ....   36
Dispersion correction           -0.000700203
FINAL SINGLE POINT ENERGY      -231.462763751160
Dispersion correction           -0.000213336
FINAL SINGLE POINT ENERGY      -115.731613052523

CARTESIAN COORDINATES (ANGSTROEM)
---------------------------------
  C    -11.061836   -2.606470   -4.644816
  O    -10.141956   -2.658420   -5.709561
  H     -9.563849   -3.404879   -5.487740
  H    -11.760266   -1.855055   -4.820786
  H    -11.555235   -3.625237   -4.519928
  H    -10.483612   -2.275485   -3.754695
  C    -10.287805    0.460740   -0.488593
  O    -11.510170    0.414027    0.221996
  H    -11.310408   -0.018879    1.079148
  H    -10.624061    0.378563   -1.479180
  H     -9.775466    1.366109   -0.329355
  H     -9.688428   -0.433824   -0.202331

 Multiplicity           Mult            ....    1
 Number of Electrons    NEL             ....   18
 Basis Dimension        Dim             ....  172

ORBITAL ENERGIES
----------------

  NO   OCC          E(Eh)            E(eV)
   0   2.0000     -19.226234      -523.1724
   1   2.0000     -10.304263      -280.3933
   2   2.0000      -1.131297       -30.7842
   3   2.0000      -0.795371       -21.6431
   4   2.0000      -0.606693       -16.5089
   5   2.0000      -0.552318       -15.0293
   6   2.0000      -0.523360       -14.2413
   7   2.0000      -0.433658       -11.8004
   8   2.0000      -0.371992       -10.1224
   9   0.0000       0.086750         2.3606
  10   0.0000       0.110990         3.0202
  11   0.0000       0.151400         4.1198
  12   0.0000       0.169349         4.6082
  13   0.0000       0.190941         5.1958

MULLIKEN ATOMIC CHARGES
-----------------------
   0 C :    0.000102
   1 O :    0.000004
   2 H :    0.000001
   3 H :   -0.000036
   4 H :   -0.000008
   5 H :   -0.000244
   6 C :   -0.161715
   7 O :   -0.480177
   8 H :    0.313152
   9 H :    0.121380
  10 H :    0.107550
  11 H :    0.099992
Sum of atomic charges:    0.0000000

LOEWDIN ATOMIC CHARGES
----------------------
   0 C :   -0.000104
   1 O :   -0.000003
   2 H :   -0.000000
   3 H :   -0.000017
   4 H :   -0.000001
   5 H :   -0.000212
   6 C :   -0.373904
   7 O :   -0.092439
   8 H :    0.178202
   9 H :    0.099699
  10 H :    0.086770
  11 H :    0.102009

  Mayer bond orders larger than 0.1
B(  6-C ,  7-O ) :   0.9967 B(  6-C ,  9-H ) :   0.9807 B(  6-C , 10-H ) :   0.9691
B(  6-C , 11-H ) :   0.9889 B(  7-O ,  8-H ) :   0.9016

Dispersion correction           -0.000215992
FINAL SINGLE POINT ENERGY      -115.730843124443

DIPOLE MOMENT
-------------
                                X             Y             Z
Electronic contribution:     -1.47725       0.10851       0.72938
Nuclear contribution   :      2.07881      -0.36444      -0.48800
                        -----------------------------------------
Total Dipole Moment    :      0.60157      -0.25593       0.24138
                        -----------------------------------------
Magnitude (a.u.)       :      0.69689
Magnitude (Debye)      :      1.77135

Rotational constants in cm-1:     4.229172     0.853760     0.818284
Rotational constants in MHz : 126787.382351 25595.071400 24531.548632

                             ****ORCA TERMINATED NORMALLY****
TOTAL RUN TIME: 0 days 0 hours 1 minutes 9 seconds 579 msec
