                         Program Version 4.1.2  - RELEASE  -
|  1> #Run DFT-D3 single point of the dimer
|  2> ! wB97X-D3 def2-TZVP TIGHTSCF CHELPG PMODEL PAL8
|  3>
|  4> %base "3-126_DFT_AB"
|  5>
|  6> %scf
|  7> MaxIter 1000
|  8> end
|  9>
| 10> * xyz 0 1
| 11>   C                      8.849707             -4.694497            6.560075
| 12>   O                      9.612996             -3.634739            6.061189
| 13>   H                      10.178477            -3.856091            5.309947
| 14>   H                      9.444799             -5.519366            6.956617
| 15>   H                      8.068576             -4.283901            7.202279
| 16>   H                      8.338581             -5.109527            5.700484
| 17>   C                      6.996437             -2.224531            3.883595
| 18>   O                      6.259011             -3.395913            3.953486
| 19>   H                      6.103814             -3.751609            4.808324
| 20>   H                      7.995976             -2.230445            4.341274
| 21>   H                      7.236184             -1.930815            2.859004
| 22>   H                      6.368205             -1.448415            4.376901
| 23> *
| 24>
| 25> #Run DFT-D3 single point of the molecule with dimer basis set
| 26> $new_job
| 27> %base "3-126_DFT_A"
| 28> ! wB97X-D3 def2-TZVP TIGHTSCF CHELPG PMODEL
| 29>
| 30> %scf
| 31> MaxIter 1000
| 32> end
| 33>
| 34> * xyz 0 1
| 35>   C                      8.849707             -4.694497            6.560075
| 36>   O                      9.612996             -3.634739            6.061189
| 37>   H                      10.178477            -3.856091            5.309947
| 38>   H                      9.444799             -5.519366            6.956617
| 39>   H                      8.068576             -4.283901            7.202279
| 40>   H                      8.338581             -5.109527            5.700484
| 41>   C                    : 6.996437             -2.224531            3.883595
| 42>   O                    : 6.259011             -3.395913            3.953486
| 43>   H                    : 6.103814             -3.751609            4.808324
| 44>   H                    : 7.995976             -2.230445            4.341274
| 45>   H                    : 7.236184             -1.930815            2.859004
| 46>   H                    : 6.368205             -1.448415            4.376901
| 47> *
| 48>
| 49> #Run DFT-D3 single point of the particle with dimer basis set
| 50> $new_job
| 51> %base "3-126_DFT_B"
| 52> ! wB97X-D3 def2-TZVP TIGHTSCF CHELPG PMODEL
| 53>
| 54> %scf
| 55> MaxIter 1000
| 56> end
| 57>
| 58> * xyz 0 1
| 59>   C                    : 8.849707             -4.694497            6.560075
| 60>   O                    : 9.612996             -3.634739            6.061189
| 61>   H                    : 10.178477            -3.856091            5.309947
| 62>   H                    : 9.444799             -5.519366            6.956617
| 63>   H                    : 8.068576             -4.283901            7.202279
| 64>   H                    : 8.338581             -5.109527            5.700484
| 65>   C                      6.996437             -2.224531            3.883595
| 66>   O                      6.259011             -3.395913            3.953486
| 67>   H                      6.103814             -3.751609            4.808324
| 68>   H                      7.995976             -2.230445            4.341274
| 69>   H                      7.236184             -1.930815            2.859004
| 70>   H                      6.368205             -1.448415            4.376901
| 71> *
| 72>
| 73>                          ****END OF INPUT****
 Total Charge           Charge          ....    0
 Multiplicity           Mult            ....    1
 Number of Electrons    NEL             ....   36
Dispersion correction           -0.001982864
FINAL SINGLE POINT ENERGY      -231.465975840680
Dispersion correction           -0.000232642
FINAL SINGLE POINT ENERGY      -115.732334724065

CARTESIAN COORDINATES (ANGSTROEM)
---------------------------------
  C      8.849707   -4.694497    6.560075
  O      9.612996   -3.634739    6.061189
  H     10.178477   -3.856091    5.309947
  H      9.444799   -5.519366    6.956617
  H      8.068576   -4.283901    7.202279
  H      8.338581   -5.109527    5.700484
  C      6.996437   -2.224531    3.883595
  O      6.259011   -3.395913    3.953486
  H      6.103814   -3.751609    4.808324
  H      7.995976   -2.230445    4.341274
  H      7.236184   -1.930815    2.859004
  H      6.368205   -1.448415    4.376901

 Multiplicity           Mult            ....    1
 Number of Electrons    NEL             ....   18
 Basis Dimension        Dim             ....  172

ORBITAL ENERGIES
----------------

  NO   OCC          E(Eh)            E(eV)
   0   2.0000     -19.226360      -523.1758
   1   2.0000     -10.314582      -280.6740
   2   2.0000      -1.144139       -31.1336
   3   2.0000      -0.800573       -21.7847
   4   2.0000      -0.620125       -16.8745
   5   2.0000      -0.549824       -14.9615
   6   2.0000      -0.527883       -14.3644
   7   2.0000      -0.419763       -11.4223
   8   2.0000      -0.371288       -10.1033
   9   0.0000       0.076924         2.0932
  10   0.0000       0.131445         3.5768
  11   0.0000       0.143768         3.9121
  12   0.0000       0.172908         4.7051
  13   0.0000       0.187837         5.1113

MULLIKEN ATOMIC CHARGES
-----------------------
   0 C :    0.000315
   1 O :    0.000578
   2 H :   -0.000150
   3 H :   -0.000277
   4 H :    0.000230
   5 H :   -0.005585
   6 C :   -0.141150
   7 O :   -0.482759
   8 H :    0.320178
   9 H :    0.092749
  10 H :    0.118081
  11 H :    0.097789
Sum of atomic charges:    0.0000000

LOEWDIN ATOMIC CHARGES
----------------------
   0 C :   -0.003095
   1 O :   -0.002926
   2 H :   -0.001033
   3 H :   -0.000033
   4 H :   -0.000323
   5 H :   -0.002844
   6 C :   -0.402997
   7 O :   -0.044603
   8 H :    0.155174
   9 H :    0.094627
  10 H :    0.108624
  11 H :    0.099430

  Mayer bond orders larger than 0.1
B(  6-C ,  7-O ) :   0.9972 B(  6-C ,  9-H ) :   0.9676 B(  6-C , 10-H ) :   0.9699
B(  6-C , 11-H ) :   0.9921 B(  7-O ,  8-H ) :   0.8931

Dispersion correction           -0.000252793
FINAL SINGLE POINT ENERGY      -115.731499762204

DIPOLE MOMENT
-------------
                                X             Y             Z
Electronic contribution:     -0.94745      -1.58381      -0.04213
Nuclear contribution   :      1.14552       1.80660       0.56719
                        -----------------------------------------
Total Dipole Moment    :      0.19807       0.22280       0.52505
                        -----------------------------------------
Magnitude (a.u.)       :      0.60378
Magnitude (Debye)      :      1.53468

Rotational constants in cm-1:     4.473408     0.839424     0.818225
Rotational constants in MHz : 134109.404883 25165.288127 24529.777079

                             ****ORCA TERMINATED NORMALLY****
TOTAL RUN TIME: 0 days 0 hours 6 minutes 25 seconds 75 msec
