                         Program Version 4.1.2  - RELEASE  -
|  1> #Run DFT-D3 single point of the dimer
|  2> ! wB97X-D3 def2-TZVP TIGHTSCF CHELPG PMODEL PAL8
|  3>
|  4> %base "22-40_DFT_AB"
|  5>
|  6> %scf
|  7> MaxIter 1000
|  8> end
|  9>
| 10> * xyz 0 1
| 11>   C                      3.346385             5.166609             -0.324777
| 12>   O                      4.605433             4.856927             -0.851271
| 13>   H                      4.735588             5.658297             -1.389277
| 14>   H                      2.939554             4.225934             -0.016089
| 15>   H                      3.411675             5.727115             0.579502
| 16>   H                      2.613158             5.716876             -1.000328
| 17>   C                      2.661504             9.495271             -3.016311
| 18>   O                      2.448546             10.402482            -1.978339
| 19>   H                      3.202107             10.311662            -1.412499
| 20>   H                      1.780161             9.520745             -3.748241
| 21>   H                      3.569581             9.719727             -3.528841
| 22>   H                      2.722283             8.392538             -2.647649
| 23> *
| 24>
| 25> #Run DFT-D3 single point of the molecule with dimer basis set
| 26> $new_job
| 27> %base "22-40_DFT_A"
| 28> ! wB97X-D3 def2-TZVP TIGHTSCF CHELPG PMODEL
| 29>
| 30> %scf
| 31> MaxIter 1000
| 32> end
| 33>
| 34> * xyz 0 1
| 35>   C                      3.346385             5.166609             -0.324777
| 36>   O                      4.605433             4.856927             -0.851271
| 37>   H                      4.735588             5.658297             -1.389277
| 38>   H                      2.939554             4.225934             -0.016089
| 39>   H                      3.411675             5.727115             0.579502
| 40>   H                      2.613158             5.716876             -1.000328
| 41>   C                    : 2.661504             9.495271             -3.016311
| 42>   O                    : 2.448546             10.402482            -1.978339
| 43>   H                    : 3.202107             10.311662            -1.412499
| 44>   H                    : 1.780161             9.520745             -3.748241
| 45>   H                    : 3.569581             9.719727             -3.528841
| 46>   H                    : 2.722283             8.392538             -2.647649
| 47> *
| 48>
| 49> #Run DFT-D3 single point of the particle with dimer basis set
| 50> $new_job
| 51> %base "22-40_DFT_B"
| 52> ! wB97X-D3 def2-TZVP TIGHTSCF CHELPG PMODEL
| 53>
| 54> %scf
| 55> MaxIter 1000
| 56> end
| 57>
| 58> * xyz 0 1
| 59>   C                    : 3.346385             5.166609             -0.324777
| 60>   O                    : 4.605433             4.856927             -0.851271
| 61>   H                    : 4.735588             5.658297             -1.389277
| 62>   H                    : 2.939554             4.225934             -0.016089
| 63>   H                    : 3.411675             5.727115             0.579502
| 64>   H                    : 2.613158             5.716876             -1.000328
| 65>   C                      2.661504             9.495271             -3.016311
| 66>   O                      2.448546             10.402482            -1.978339
| 67>   H                      3.202107             10.311662            -1.412499
| 68>   H                      1.780161             9.520745             -3.748241
| 69>   H                      3.569581             9.719727             -3.528841
| 70>   H                      2.722283             8.392538             -2.647649
| 71> *
| 72>
| 73>                          ****END OF INPUT****
 Total Charge           Charge          ....    0
 Multiplicity           Mult            ....    1
 Number of Electrons    NEL             ....   36
Dispersion correction           -0.000860450
FINAL SINGLE POINT ENERGY      -231.461247192316
Dispersion correction           -0.000224358
FINAL SINGLE POINT ENERGY      -115.729241748176

CARTESIAN COORDINATES (ANGSTROEM)
---------------------------------
  C      3.346385    5.166609   -0.324777
  O      4.605433    4.856927   -0.851271
  H      4.735588    5.658297   -1.389277
  H      2.939554    4.225934   -0.016089
  H      3.411675    5.727115    0.579502
  H      2.613158    5.716876   -1.000328
  C      2.661504    9.495271   -3.016311
  O      2.448546   10.402482   -1.978339
  H      3.202107   10.311662   -1.412499
  H      1.780161    9.520745   -3.748241
  H      3.569581    9.719727   -3.528841
  H      2.722283    8.392538   -2.647649

 Multiplicity           Mult            ....    1
 Number of Electrons    NEL             ....   18
 Basis Dimension        Dim             ....  172

ORBITAL ENERGIES
----------------

  NO   OCC          E(Eh)            E(eV)
   0   2.0000     -19.231730      -523.3220
   1   2.0000     -10.321541      -280.8634
   2   2.0000      -1.148536       -31.2533
   3   2.0000      -0.787941       -21.4410
   4   2.0000      -0.615922       -16.7601
   5   2.0000      -0.542898       -14.7730
   6   2.0000      -0.524784       -14.2801
   7   2.0000      -0.433583       -11.7984
   8   2.0000      -0.373211       -10.1556
   9   0.0000       0.080109         2.1799
  10   0.0000       0.119552         3.2532
  11   0.0000       0.150204         4.0873
  12   0.0000       0.167954         4.5703
  13   0.0000       0.178559         4.8588

MULLIKEN ATOMIC CHARGES
-----------------------
   0 C :   -0.000035
   1 O :    0.000007
   2 H :   -0.000206
   3 H :    0.000025
   4 H :   -0.000037
   5 H :    0.000219
   6 C :   -0.174799
   7 O :   -0.457184
   8 H :    0.313310
   9 H :    0.118018
  10 H :    0.109392
  11 H :    0.091290
Sum of atomic charges:    0.0000000

LOEWDIN ATOMIC CHARGES
----------------------
   0 C :   -0.000389
   1 O :   -0.000006
   2 H :   -0.000208
   3 H :   -0.000001
   4 H :   -0.000007
   5 H :   -0.000812
   6 C :   -0.411994
   7 O :   -0.056083
   8 H :    0.163785
   9 H :    0.117583
  10 H :    0.086315
  11 H :    0.101816

  Mayer bond orders larger than 0.1
B(  6-C ,  7-O ) :   0.9987 B(  6-C ,  9-H ) :   0.9709 B(  6-C , 10-H ) :   0.9765
B(  6-C , 11-H ) :   0.9716 B(  7-O ,  8-H ) :   0.9019

Dispersion correction           -0.000235522
FINAL SINGLE POINT ENERGY      -115.731919665466

DIPOLE MOMENT
-------------
                                X             Y             Z
Electronic contribution:     -0.34896       1.35466       1.30347
Nuclear contribution   :      0.91230      -1.72304      -1.34052
                        -----------------------------------------
Total Dipole Moment    :      0.56334      -0.36838      -0.03706
                        -----------------------------------------
Magnitude (a.u.)       :      0.67412
Magnitude (Debye)      :      1.71347

Rotational constants in cm-1:     4.113296     0.847092     0.813510
Rotational constants in MHz : 123313.515838 25395.188923 24388.405790

                             ****ORCA TERMINATED NORMALLY****
TOTAL RUN TIME: 0 days 0 hours 0 minutes 57 seconds 36 msec
