                         Program Version 4.1.2  - RELEASE  -
|  1> #Run DFT-D3 single point of the dimer
|  2> ! wB97X-D3 def2-TZVP TIGHTSCF CHELPG PMODEL PAL8
|  3>
|  4> %base "20-43_DFT_AB"
|  5>
|  6> %scf
|  7> MaxIter 1000
|  8> end
|  9>
| 10> * xyz 0 1
| 11>   C                      -6.460874            11.317236            1.150653
| 12>   O                      -5.386241            11.510456            1.972449
| 13>   H                      -4.744983            10.797700            1.904435
| 14>   H                      -6.718436            10.244920            1.063984
| 15>   H                      -7.330148            11.972840            1.477804
| 16>   H                      -6.265406            11.552220            0.117566
| 17>   C                      -7.108575            6.913722             -0.857616
| 18>   O                      -5.910933            6.151993             -0.758104
| 19>   H                      -6.108608            5.514156             0.021846
| 20>   H                      -8.052278            6.348833             -0.737678
| 21>   H                      -7.212517            7.592448             -0.076732
| 22>   H                      -7.252339            7.360240             -1.857203
| 23> *
| 24>
| 25> #Run DFT-D3 single point of the molecule with dimer basis set
| 26> $new_job
| 27> %base "20-43_DFT_A"
| 28> ! wB97X-D3 def2-TZVP TIGHTSCF CHELPG PMODEL
| 29>
| 30> %scf
| 31> MaxIter 1000
| 32> end
| 33>
| 34> * xyz 0 1
| 35>   C                      -6.460874            11.317236            1.150653
| 36>   O                      -5.386241            11.510456            1.972449
| 37>   H                      -4.744983            10.797700            1.904435
| 38>   H                      -6.718436            10.244920            1.063984
| 39>   H                      -7.330148            11.972840            1.477804
| 40>   H                      -6.265406            11.552220            0.117566
| 41>   C                    : -7.108575            6.913722             -0.857616
| 42>   O                    : -5.910933            6.151993             -0.758104
| 43>   H                    : -6.108608            5.514156             0.021846
| 44>   H                    : -8.052278            6.348833             -0.737678
| 45>   H                    : -7.212517            7.592448             -0.076732
| 46>   H                    : -7.252339            7.360240             -1.857203
| 47> *
| 48>
| 49> #Run DFT-D3 single point of the particle with dimer basis set
| 50> $new_job
| 51> %base "20-43_DFT_B"
| 52> ! wB97X-D3 def2-TZVP TIGHTSCF CHELPG PMODEL
| 53>
| 54> %scf
| 55> MaxIter 1000
| 56> end
| 57>
| 58> * xyz 0 1
| 59>   C                    : -6.460874            11.317236            1.150653
| 60>   O                    : -5.386241            11.510456            1.972449
| 61>   H                    : -4.744983            10.797700            1.904435
| 62>   H                    : -6.718436            10.244920            1.063984
| 63>   H                    : -7.330148            11.972840            1.477804
| 64>   H                    : -6.265406            11.552220            0.117566
| 65>   C                      -7.108575            6.913722             -0.857616
| 66>   O                      -5.910933            6.151993             -0.758104
| 67>   H                      -6.108608            5.514156             0.021846
| 68>   H                      -8.052278            6.348833             -0.737678
| 69>   H                      -7.212517            7.592448             -0.076732
| 70>   H                      -7.252339            7.360240             -1.857203
| 71> *
| 72>
| 73>                          ****END OF INPUT****
 Total Charge           Charge          ....    0
 Multiplicity           Mult            ....    1
 Number of Electrons    NEL             ....   36
Dispersion correction           -0.000891682
FINAL SINGLE POINT ENERGY      -231.457813115052
Dispersion correction           -0.000234421
FINAL SINGLE POINT ENERGY      -115.731549935273

CARTESIAN COORDINATES (ANGSTROEM)
---------------------------------
  C     -6.460874   11.317236    1.150653
  O     -5.386241   11.510456    1.972449
  H     -4.744983   10.797700    1.904435
  H     -6.718436   10.244920    1.063984
  H     -7.330148   11.972840    1.477804
  H     -6.265406   11.552220    0.117566
  C     -7.108575    6.913722   -0.857616
  O     -5.910933    6.151993   -0.758104
  H     -6.108608    5.514156    0.021846
  H     -8.052278    6.348833   -0.737678
  H     -7.212517    7.592448   -0.076732
  H     -7.252339    7.360240   -1.857203

 Multiplicity           Mult            ....    1
 Number of Electrons    NEL             ....   18
 Basis Dimension        Dim             ....  172

ORBITAL ENERGIES
----------------

  NO   OCC          E(Eh)            E(eV)
   0   2.0000     -19.240095      -523.5496
   1   2.0000     -10.309592      -280.5383
   2   2.0000      -1.125930       -30.6381
   3   2.0000      -0.794589       -21.6219
   4   2.0000      -0.606346       -16.4995
   5   2.0000      -0.544805       -14.8249
   6   2.0000      -0.516646       -14.0587
   7   2.0000      -0.437849       -11.9145
   8   2.0000      -0.373783       -10.1712
   9   0.0000       0.086467         2.3529
  10   0.0000       0.107360         2.9214
  11   0.0000       0.148225         4.0334
  12   0.0000       0.167086         4.5466
  13   0.0000       0.187388         5.0991

MULLIKEN ATOMIC CHARGES
-----------------------
   0 C :   -0.000797
   1 O :   -0.000002
   2 H :   -0.000003
   3 H :    0.001455
   4 H :    0.000042
   5 H :   -0.000005
   6 C :   -0.184843
   7 O :   -0.466150
   8 H :    0.318297
   9 H :    0.100661
  10 H :    0.110009
  11 H :    0.121336
Sum of atomic charges:   -0.0000000

LOEWDIN ATOMIC CHARGES
----------------------
   0 C :   -0.000318
   1 O :   -0.000004
   2 H :   -0.000002
   3 H :   -0.001271
   4 H :   -0.000001
   5 H :   -0.000018
   6 C :   -0.392873
   7 O :   -0.105666
   8 H :    0.209566
   9 H :    0.096746
  10 H :    0.082237
  11 H :    0.111604

  Mayer bond orders larger than 0.1
B(  6-C ,  7-O ) :   1.0048 B(  6-C ,  9-H ) :   0.9782 B(  6-C , 10-H ) :   0.9705
B(  6-C , 11-H ) :   0.9726 B(  7-O ,  8-H ) :   0.8923

Dispersion correction           -0.000243016
FINAL SINGLE POINT ENERGY      -115.725603642932

DIPOLE MOMENT
-------------
                                X             Y             Z
Electronic contribution:      1.78777      -0.82956      -0.01733
Nuclear contribution   :     -2.39216       0.73381       0.45418
                        -----------------------------------------
Total Dipole Moment    :     -0.60439      -0.09575       0.43685
                        -----------------------------------------
Magnitude (a.u.)       :      0.75186
Magnitude (Debye)      :      1.91107

Rotational constants in cm-1:     4.319956     0.821904     0.781044
Rotational constants in MHz : 129509.021100 24640.048189 23415.116359

                             ****ORCA TERMINATED NORMALLY****
TOTAL RUN TIME: 0 days 0 hours 1 minutes 7 seconds 485 msec
