                         Program Version 4.1.2  - RELEASE  -
|  1> #Run DFT-D3 single point of the dimer
|  2> ! wB97X-D3 def2-TZVP TIGHTSCF  CHELPG PAL8
|  3>
|  4> %base "47_charges"
|  5>
|  6> %scf
|  7> MaxIter 1000
|  8> end
|  9> %output
| 10>   Print[ P_Mayer ] 1
| 11>   Print[ P_NatPop ] 1
| 12>   Print[ P_Hirshfeld ] 1
| 13>   Print[ P_Mulliken ] 1
| 14>   Print [ P_Loewdin ] 1
| 15> end
| 16>
| 17> * xyz 0 1
| 18>   C                      3.137648             7.406436             2.060800
| 19>   O                      2.762883             8.800412             2.119483
| 20>   H                      3.577881             9.319891             1.881491
| 21>   H                      4.171154             7.164849             2.355028
| 22>   H                      2.566067             6.732388             2.731856
| 23>   H                      3.003068             7.020874             1.049549
| 24> *
| 25>
| 26>                          ****END OF INPUT****

CARTESIAN COORDINATES (ANGSTROEM)
---------------------------------
  C      3.137648    7.406436    2.060800
  O      2.762883    8.800412    2.119483
  H      3.577881    9.319891    1.881491
  H      4.171154    7.164849    2.355028
  H      2.566067    6.732388    2.731856
  H      3.003068    7.020874    1.049549

 Total Charge           Charge          ....    0
 Multiplicity           Mult            ....    1
 Number of Electrons    NEL             ....   18
 Basis Dimension        Dim             ....   86

ORBITAL ENERGIES
----------------

  NO   OCC          E(Eh)            E(eV)
   0   2.0000     -19.237158      -523.4697
   1   2.0000     -10.317961      -280.7660
   2   2.0000      -1.122658       -30.5491
   3   2.0000      -0.794435       -21.6177
   4   2.0000      -0.602601       -16.3976
   5   2.0000      -0.537214       -14.6183
   6   2.0000      -0.519972       -14.1492
   7   2.0000      -0.433987       -11.8094
   8   2.0000      -0.376048       -10.2328
   9   0.0000       0.111565         3.0358
  10   0.0000       0.146660         3.9908
  11   0.0000       0.196668         5.3516
  12   0.0000       0.207798         5.6545
  13   0.0000       0.226262         6.1569

MULLIKEN ATOMIC CHARGES
-----------------------
   0 C :   -0.175300
   1 O :   -0.474706
   2 H :    0.319971
   3 H :    0.105114
   4 H :    0.116000
   5 H :    0.108921
Sum of atomic charges:    0.0000000

LOEWDIN ATOMIC CHARGES
----------------------
   0 C :   -0.378220
   1 O :   -0.112152
   2 H :    0.190039
   3 H :    0.096528
   4 H :    0.108704
   5 H :    0.095101

  Mayer bond orders larger than 0.1
B(  0-C ,  1-O ) :   1.0050 B(  0-C ,  3-H ) :   0.9753 B(  0-C ,  4-H ) :   0.9722
B(  0-C ,  5-H ) :   0.9775 B(  1-O ,  2-H ) :   0.8938

Dispersion correction           -0.000276265
FINAL SINGLE POINT ENERGY      -115.731224719938

DIPOLE MOMENT
-------------
                                X             Y             Z
Electronic contribution:     -0.65779       1.85163       0.13647
Nuclear contribution   :      1.32860      -2.09984      -0.29417
                        -----------------------------------------
Total Dipole Moment    :      0.67081      -0.24821      -0.15771
                        -----------------------------------------
Magnitude (a.u.)       :      0.73244
Magnitude (Debye)      :      1.86171

Rotational constants in cm-1:     4.336864     0.787426     0.761864
Rotational constants in MHz : 130015.914924 23606.444016 22840.122311

                             ****ORCA TERMINATED NORMALLY****
TOTAL RUN TIME: 0 days 0 hours 0 minutes 40 seconds 715 msec
