                         Program Version 4.1.2  - RELEASE  -
|  1> #Run DFT-D3 single point of the dimer
|  2> ! wB97X-D3 def2-TZVP TIGHTSCF  CHELPG PAL8
|  3>
|  4> %base "124_charges"
|  5>
|  6> %scf
|  7> MaxIter 1000
|  8> end
|  9> %output
| 10>   Print[ P_Mayer ] 1
| 11>   Print[ P_NatPop ] 1
| 12>   Print[ P_Hirshfeld ] 1
| 13>   Print[ P_Mulliken ] 1
| 14>   Print [ P_Loewdin ] 1
| 15> end
| 16>
| 17> * xyz 0 1
| 18>   C                      4.920933             9.997945             -8.405108
| 19>   O                      5.655933             11.082039            -8.990999
| 20>   H                      6.577990             10.903621            -8.961745
| 21>   H                      5.538639             9.055643             -8.165920
| 22>   H                      4.552381             10.346543            -7.431699
| 23>   H                      4.067819             9.657740             -9.010809
| 24> *
| 25>
| 26>                          ****END OF INPUT****

CARTESIAN COORDINATES (ANGSTROEM)
---------------------------------
  C      4.920933    9.997945   -8.405108
  O      5.655933   11.082039   -8.990999
  H      6.577990   10.903621   -8.961745
  H      5.538639    9.055643   -8.165920
  H      4.552381   10.346543   -7.431699
  H      4.067819    9.657740   -9.010809

 Total Charge           Charge          ....    0
 Multiplicity           Mult            ....    1
 Number of Electrons    NEL             ....   18
 Basis Dimension        Dim             ....   86

ORBITAL ENERGIES
----------------

  NO   OCC          E(Eh)            E(eV)
   0   2.0000     -19.228886      -523.2446
   1   2.0000     -10.322697      -280.8949
   2   2.0000      -1.133203       -30.8360
   3   2.0000      -0.794900       -21.6303
   4   2.0000      -0.609268       -16.5790
   5   2.0000      -0.538666       -14.6579
   6   2.0000      -0.520308       -14.1583
   7   2.0000      -0.431645       -11.7457
   8   2.0000      -0.374649       -10.1947
   9   0.0000       0.115951         3.1552
  10   0.0000       0.150632         4.0989
  11   0.0000       0.189973         5.1694
  12   0.0000       0.208957         5.6860
  13   0.0000       0.232805         6.3349

MULLIKEN ATOMIC CHARGES
-----------------------
   0 C :   -0.171505
   1 O :   -0.475300
   2 H :    0.315275
   3 H :    0.102999
   4 H :    0.108772
   5 H :    0.119759
Sum of atomic charges:   -0.0000000

LOEWDIN ATOMIC CHARGES
----------------------
   0 C :   -0.377516
   1 O :   -0.083297
   2 H :    0.153883
   3 H :    0.105563
   4 H :    0.098175
   5 H :    0.103192

  Mayer bond orders larger than 0.1
B(  0-C ,  1-O ) :   1.0028 B(  0-C ,  3-H ) :   0.9771 B(  0-C ,  4-H ) :   0.9782
B(  0-C ,  5-H ) :   0.9691 B(  1-O ,  2-H ) :   0.9026

Dispersion correction           -0.000277913
FINAL SINGLE POINT ENERGY      -115.731923407818

DIPOLE MOMENT
-------------
                                X             Y             Z
Electronic contribution:      0.81872       1.48401      -0.87549
Nuclear contribution   :     -0.50861      -2.04646       1.13469
                        -----------------------------------------
Total Dipole Moment    :      0.31011      -0.56246       0.25919
                        -----------------------------------------
Magnitude (a.u.)       :      0.69261
Magnitude (Debye)      :      1.76047

Rotational constants in cm-1:     4.277543     0.799923     0.772650
Rotational constants in MHz : 128237.513937 23981.074309 23163.454252

                             ****ORCA TERMINATED NORMALLY****
TOTAL RUN TIME: 0 days 0 hours 0 minutes 43 seconds 889 msec
