                         Program Version 4.1.2  - RELEASE  -
|  1> #Run DFT-D3 single point of the dimer
|  2> ! wB97X-D3 def2-TZVP TIGHTSCF CHELPG PMODEL PAL8
|  3>
|  4> %base "10-155_DFT_AB"
|  5>
|  6> %scf
|  7> MaxIter 1000
|  8> end
|  9>
| 10> * xyz 0 1
| 11>   C                      -7.696993            4.870722             -5.249088
| 12>   O                      -8.000173            5.738073             -6.280450
| 13>   H                      -7.944936            6.626068             -5.893872
| 14>   H                      -8.323327            5.038972             -4.420288
| 15>   H                      -7.952844            3.779827             -5.439397
| 16>   H                      -6.693924            5.029218             -4.879983
| 17>   C                      -5.495536            7.370046             -2.403780
| 18>   O                      -6.683170            7.089203             -3.125684
| 19>   H                      -6.694253            7.757936             -3.836494
| 20>   H                      -5.504102            6.859922             -1.431420
| 21>   H                      -4.645820            7.093379             -2.936219
| 22>   H                      -5.466681            8.422896             -2.156648
| 23> *
| 24>
| 25> #Run DFT-D3 single point of the molecule with dimer basis set
| 26> $new_job
| 27> %base "10-155_DFT_A"
| 28> ! wB97X-D3 def2-TZVP TIGHTSCF CHELPG PMODEL
| 29>
| 30> %scf
| 31> MaxIter 1000
| 32> end
| 33>
| 34> * xyz 0 1
| 35>   C                      -7.696993            4.870722             -5.249088
| 36>   O                      -8.000173            5.738073             -6.280450
| 37>   H                      -7.944936            6.626068             -5.893872
| 38>   H                      -8.323327            5.038972             -4.420288
| 39>   H                      -7.952844            3.779827             -5.439397
| 40>   H                      -6.693924            5.029218             -4.879983
| 41>   C                    : -5.495536            7.370046             -2.403780
| 42>   O                    : -6.683170            7.089203             -3.125684
| 43>   H                    : -6.694253            7.757936             -3.836494
| 44>   H                    : -5.504102            6.859922             -1.431420
| 45>   H                    : -4.645820            7.093379             -2.936219
| 46>   H                    : -5.466681            8.422896             -2.156648
| 47> *
| 48>
| 49> #Run DFT-D3 single point of the particle with dimer basis set
| 50> $new_job
| 51> %base "10-155_DFT_B"
| 52> ! wB97X-D3 def2-TZVP TIGHTSCF CHELPG PMODEL
| 53>
| 54> %scf
| 55> MaxIter 1000
| 56> end
| 57>
| 58> * xyz 0 1
| 59>   C                    : -7.696993            4.870722             -5.249088
| 60>   O                    : -8.000173            5.738073             -6.280450
| 61>   H                    : -7.944936            6.626068             -5.893872
| 62>   H                    : -8.323327            5.038972             -4.420288
| 63>   H                    : -7.952844            3.779827             -5.439397
| 64>   H                    : -6.693924            5.029218             -4.879983
| 65>   C                      -5.495536            7.370046             -2.403780
| 66>   O                      -6.683170            7.089203             -3.125684
| 67>   H                      -6.694253            7.757936             -3.836494
| 68>   H                      -5.504102            6.859922             -1.431420
| 69>   H                      -4.645820            7.093379             -2.936219
| 70>   H                      -5.466681            8.422896             -2.156648
| 71> *
| 72>
| 73>                          ****END OF INPUT****
 Total Charge           Charge          ....    0
 Multiplicity           Mult            ....    1
 Number of Electrons    NEL             ....   36
Dispersion correction           -0.001817684
FINAL SINGLE POINT ENERGY      -231.463571718540
Dispersion correction           -0.000215992
FINAL SINGLE POINT ENERGY      -115.728756606499

CARTESIAN COORDINATES (ANGSTROEM)
---------------------------------
  C     -7.696993    4.870722   -5.249088
  O     -8.000173    5.738073   -6.280450
  H     -7.944936    6.626068   -5.893872
  H     -8.323327    5.038972   -4.420288
  H     -7.952844    3.779827   -5.439397
  H     -6.693924    5.029218   -4.879983
  C     -5.495536    7.370046   -2.403780
  O     -6.683170    7.089203   -3.125684
  H     -6.694253    7.757936   -3.836494
  H     -5.504102    6.859922   -1.431420
  H     -4.645820    7.093379   -2.936219
  H     -5.466681    8.422896   -2.156648

 Multiplicity           Mult            ....    1
 Number of Electrons    NEL             ....   18
 Basis Dimension        Dim             ....  172

ORBITAL ENERGIES
----------------

  NO   OCC          E(Eh)            E(eV)
   0   2.0000     -19.231776      -523.3232
   1   2.0000     -10.306150      -280.4446
   2   2.0000      -1.134271       -30.8651
   3   2.0000      -0.797401       -21.6984
   4   2.0000      -0.607486       -16.5305
   5   2.0000      -0.553383       -15.0583
   6   2.0000      -0.525120       -14.2893
   7   2.0000      -0.434883       -11.8338
   8   2.0000      -0.375920       -10.2293
   9   0.0000       0.092181         2.5084
  10   0.0000       0.128937         3.5086
  11   0.0000       0.152243         4.1427
  12   0.0000       0.182255         4.9594
  13   0.0000       0.198215         5.3937

MULLIKEN ATOMIC CHARGES
-----------------------
   0 C :    0.012264
   1 O :   -0.000215
   2 H :   -0.002550
   3 H :   -0.005469
   4 H :   -0.000538
   5 H :   -0.012637
   6 C :   -0.166211
   7 O :   -0.469561
   8 H :    0.316610
   9 H :    0.115268
  10 H :    0.109990
  11 H :    0.103047
Sum of atomic charges:   -0.0000000

LOEWDIN ATOMIC CHARGES
----------------------
   0 C :   -0.012902
   1 O :   -0.000155
   2 H :   -0.002021
   3 H :   -0.003509
   4 H :   -0.000119
   5 H :   -0.008032
   6 C :   -0.376455
   7 O :   -0.067424
   8 H :    0.181371
   9 H :    0.110654
  10 H :    0.083469
  11 H :    0.095124

  Mayer bond orders larger than 0.1
B(  6-C ,  7-O ) :   0.9949 B(  6-C ,  9-H ) :   0.9745 B(  6-C , 10-H ) :   0.9749
B(  6-C , 11-H ) :   0.9831 B(  7-O ,  8-H ) :   0.8965

Dispersion correction           -0.000218053
FINAL SINGLE POINT ENERGY      -115.734155728713

DIPOLE MOMENT
-------------
                                X             Y             Z
Electronic contribution:     -1.46946      -0.51737      -0.86456
Nuclear contribution   :      1.94714       1.06017       0.73616
                        -----------------------------------------
Total Dipole Moment    :      0.47767       0.54280      -0.12840
                        -----------------------------------------
Magnitude (a.u.)       :      0.73436
Magnitude (Debye)      :      1.86661

Rotational constants in cm-1:     4.351827     0.836545     0.805590
Rotational constants in MHz : 130464.483882 25078.981052 24150.989421

                             ****ORCA TERMINATED NORMALLY****
TOTAL RUN TIME: 0 days 0 hours 1 minutes 5 seconds 502 msec
