                         Program Version 4.1.2  - RELEASE  -
|  1> #Run DFT-D3 single point of the dimer
|  2> ! wB97X-D3 def2-TZVP TIGHTSCF CHELPG PMODEL PAL8
|  3>
|  4> %base "14-166_DFT_AB"
|  5>
|  6> %scf
|  7> MaxIter 1000
|  8> end
|  9>
| 10> * xyz 0 1
| 11>   C                      7.118574             -6.539713            9.104217
| 12>   O                      8.308060             -6.706121            8.356627
| 13>   H                      7.887865             -6.842708            7.508688
| 14>   H                      6.495907             -5.782481            8.665314
| 15>   H                      6.535932             -7.489679            8.970584
| 16>   H                      7.189303             -6.368351            10.199817
| 17>   C                      8.196157             -6.700513            4.489838
| 18>   O                      7.734322             -7.500675            5.557527
| 19>   H                      8.106776             -8.390486            5.517626
| 20>   H                      9.215491             -6.986780            4.176188
| 21>   H                      7.532867             -6.717334            3.614461
| 22>   H                      8.196488             -5.660282            4.831600
| 23> *
| 24>
| 25> #Run DFT-D3 single point of the molecule with dimer basis set
| 26> $new_job
| 27> %base "14-166_DFT_A"
| 28> ! wB97X-D3 def2-TZVP TIGHTSCF CHELPG PMODEL
| 29>
| 30> %scf
| 31> MaxIter 1000
| 32> end
| 33>
| 34> * xyz 0 1
| 35>   C                      7.118574             -6.539713            9.104217
| 36>   O                      8.308060             -6.706121            8.356627
| 37>   H                      7.887865             -6.842708            7.508688
| 38>   H                      6.495907             -5.782481            8.665314
| 39>   H                      6.535932             -7.489679            8.970584
| 40>   H                      7.189303             -6.368351            10.199817
| 41>   C                    : 8.196157             -6.700513            4.489838
| 42>   O                    : 7.734322             -7.500675            5.557527
| 43>   H                    : 8.106776             -8.390486            5.517626
| 44>   H                    : 9.215491             -6.986780            4.176188
| 45>   H                    : 7.532867             -6.717334            3.614461
| 46>   H                    : 8.196488             -5.660282            4.831600
| 47> *
| 48>
| 49> #Run DFT-D3 single point of the particle with dimer basis set
| 50> $new_job
| 51> %base "14-166_DFT_B"
| 52> ! wB97X-D3 def2-TZVP TIGHTSCF CHELPG PMODEL
| 53>
| 54> %scf
| 55> MaxIter 1000
| 56> end
| 57>
| 58> * xyz 0 1
| 59>   C                    : 7.118574             -6.539713            9.104217
| 60>   O                    : 8.308060             -6.706121            8.356627
| 61>   H                    : 7.887865             -6.842708            7.508688
| 62>   H                    : 6.495907             -5.782481            8.665314
| 63>   H                    : 6.535932             -7.489679            8.970584
| 64>   H                    : 7.189303             -6.368351            10.199817
| 65>   C                      8.196157             -6.700513            4.489838
| 66>   O                      7.734322             -7.500675            5.557527
| 67>   H                      8.106776             -8.390486            5.517626
| 68>   H                      9.215491             -6.986780            4.176188
| 69>   H                      7.532867             -6.717334            3.614461
| 70>   H                      8.196488             -5.660282            4.831600
| 71> *
| 72>
| 73>                          ****END OF INPUT****
 Total Charge           Charge          ....    0
 Multiplicity           Mult            ....    1
 Number of Electrons    NEL             ....   36
Dispersion correction           -0.001604897
FINAL SINGLE POINT ENERGY      -231.472821198337
Dispersion correction           -0.000208691
FINAL SINGLE POINT ENERGY      -115.727711290049

CARTESIAN COORDINATES (ANGSTROEM)
---------------------------------
  C      7.118574   -6.539713    9.104217
  O      8.308060   -6.706121    8.356627
  H      7.887865   -6.842708    7.508688
  H      6.495907   -5.782481    8.665314
  H      6.535932   -7.489679    8.970584
  H      7.189303   -6.368351   10.199817
  C      8.196157   -6.700513    4.489838
  O      7.734322   -7.500675    5.557527
  H      8.106776   -8.390486    5.517626
  H      9.215491   -6.986780    4.176188
  H      7.532867   -6.717334    3.614461
  H      8.196488   -5.660282    4.831600

 Multiplicity           Mult            ....    1
 Number of Electrons    NEL             ....   18
 Basis Dimension        Dim             ....  172

ORBITAL ENERGIES
----------------

  NO   OCC          E(Eh)            E(eV)
   0   2.0000     -19.230520      -523.2890
   1   2.0000     -10.315324      -280.6942
   2   2.0000      -1.134240       -30.8642
   3   2.0000      -0.795674       -21.6514
   4   2.0000      -0.611797       -16.6478
   5   2.0000      -0.539192       -14.6721
   6   2.0000      -0.528711       -14.3870
   7   2.0000      -0.431097       -11.7308
   8   2.0000      -0.372902       -10.1472
   9   0.0000       0.098592         2.6828
  10   0.0000       0.122656         3.3376
  11   0.0000       0.152391         4.1468
  12   0.0000       0.186350         5.0708
  13   0.0000       0.203624         5.5409

MULLIKEN ATOMIC CHARGES
-----------------------
   0 C :    0.002651
   1 O :   -0.002271
   2 H :   -0.008112
   3 H :   -0.000814
   4 H :   -0.001104
   5 H :   -0.000035
   6 C :   -0.152496
   7 O :   -0.477277
   8 H :    0.318195
   9 H :    0.098471
  10 H :    0.101356
  11 H :    0.121436
Sum of atomic charges:   -0.0000000

LOEWDIN ATOMIC CHARGES
----------------------
   0 C :   -0.001971
   1 O :   -0.005392
   2 H :   -0.033566
   3 H :   -0.000143
   4 H :   -0.000345
   5 H :   -0.000020
   6 C :   -0.385443
   7 O :   -0.045697
   8 H :    0.171759
   9 H :    0.096863
  10 H :    0.095684
  11 H :    0.108271

  Mayer bond orders larger than 0.1
B(  6-C ,  7-O ) :   0.9959 B(  6-C ,  9-H ) :   0.9803 B(  6-C , 10-H ) :   0.9683
B(  6-C , 11-H ) :   0.9798 B(  7-O ,  8-H ) :   0.8936

Dispersion correction           -0.000255218
FINAL SINGLE POINT ENERGY      -115.736627728317

DIPOLE MOMENT
-------------
                                X             Y             Z
Electronic contribution:     -0.64683      -0.96324       1.39068
Nuclear contribution   :      1.08080       0.71241      -1.84474
                        -----------------------------------------
Total Dipole Moment    :      0.43397      -0.25083      -0.45406
                        -----------------------------------------
Magnitude (a.u.)       :      0.67633
Magnitude (Debye)      :      1.71909

Rotational constants in cm-1:     4.300571     0.828819     0.797021
Rotational constants in MHz : 128927.868223 24847.356997 23894.085851

                             ****ORCA TERMINATED NORMALLY****
TOTAL RUN TIME: 0 days 0 hours 1 minutes 9 seconds 869 msec
