                         Program Version 4.1.2  - RELEASE  -
|  1> #Run DFT-D3 single point of the dimer
|  2> ! wB97X-D3 def2-TZVP TIGHTSCF CHELPG PMODEL PAL8
|  3>
|  4> %base "8-144_DFT_AB"
|  5>
|  6> %scf
|  7> MaxIter 1000
|  8> end
|  9>
| 10> * xyz 0 1
| 11>   C                      3.227038             0.299315             2.583247
| 12>   O                      2.666419             0.055697             1.319139
| 13>   H                      2.532418             -0.879725            1.086573
| 14>   H                      4.019190             -0.355166            2.838296
| 15>   H                      3.630524             1.336282             2.668777
| 16>   H                      2.489073             0.331264             3.443880
| 17>   C                      4.675669             -2.819953            -2.455573
| 18>   O                      4.967275             -2.728420            -1.051334
| 19>   H                      5.809846             -3.177151            -0.928841
| 20>   H                      3.781209             -2.190699            -2.703473
| 21>   H                      5.494284             -2.357504            -3.049618
| 22>   H                      4.571858             -3.756048            -2.910539
| 23> *
| 24>
| 25> #Run DFT-D3 single point of the molecule with dimer basis set
| 26> $new_job
| 27> %base "8-144_DFT_A"
| 28> ! wB97X-D3 def2-TZVP TIGHTSCF CHELPG PMODEL
| 29>
| 30> %scf
| 31> MaxIter 1000
| 32> end
| 33>
| 34> * xyz 0 1
| 35>   C                      3.227038             0.299315             2.583247
| 36>   O                      2.666419             0.055697             1.319139
| 37>   H                      2.532418             -0.879725            1.086573
| 38>   H                      4.019190             -0.355166            2.838296
| 39>   H                      3.630524             1.336282             2.668777
| 40>   H                      2.489073             0.331264             3.443880
| 41>   C                    : 4.675669             -2.819953            -2.455573
| 42>   O                    : 4.967275             -2.728420            -1.051334
| 43>   H                    : 5.809846             -3.177151            -0.928841
| 44>   H                    : 3.781209             -2.190699            -2.703473
| 45>   H                    : 5.494284             -2.357504            -3.049618
| 46>   H                    : 4.571858             -3.756048            -2.910539
| 47> *
| 48>
| 49> #Run DFT-D3 single point of the particle with dimer basis set
| 50> $new_job
| 51> %base "8-144_DFT_B"
| 52> ! wB97X-D3 def2-TZVP TIGHTSCF CHELPG PMODEL
| 53>
| 54> %scf
| 55> MaxIter 1000
| 56> end
| 57>
| 58> * xyz 0 1
| 59>   C                    : 3.227038             0.299315             2.583247
| 60>   O                    : 2.666419             0.055697             1.319139
| 61>   H                    : 2.532418             -0.879725            1.086573
| 62>   H                    : 4.019190             -0.355166            2.838296
| 63>   H                    : 3.630524             1.336282             2.668777
| 64>   H                    : 2.489073             0.331264             3.443880
| 65>   C                      4.675669             -2.819953            -2.455573
| 66>   O                      4.967275             -2.728420            -1.051334
| 67>   H                      5.809846             -3.177151            -0.928841
| 68>   H                      3.781209             -2.190699            -2.703473
| 69>   H                      5.494284             -2.357504            -3.049618
| 70>   H                      4.571858             -3.756048            -2.910539
| 71> *
| 72>
| 73>                          ****END OF INPUT****
 Total Charge           Charge          ....    0
 Multiplicity           Mult            ....    1
 Number of Electrons    NEL             ....   36
Dispersion correction           -0.000824349
FINAL SINGLE POINT ENERGY      -231.463292365947
Dispersion correction           -0.000278452
FINAL SINGLE POINT ENERGY      -115.731016420631

CARTESIAN COORDINATES (ANGSTROEM)
---------------------------------
  C      3.227038    0.299315    2.583247
  O      2.666419    0.055697    1.319139
  H      2.532418   -0.879725    1.086573
  H      4.019190   -0.355166    2.838296
  H      3.630524    1.336282    2.668777
  H      2.489073    0.331264    3.443880
  C      4.675669   -2.819953   -2.455573
  O      4.967275   -2.728420   -1.051334
  H      5.809846   -3.177151   -0.928841
  H      3.781209   -2.190699   -2.703473
  H      5.494284   -2.357504   -3.049618
  H      4.571858   -3.756048   -2.910539

 Multiplicity           Mult            ....    1
 Number of Electrons    NEL             ....   18
 Basis Dimension        Dim             ....  172

ORBITAL ENERGIES
----------------

  NO   OCC          E(Eh)            E(eV)
   0   2.0000     -19.235173      -523.4157
   1   2.0000     -10.314653      -280.6760
   2   2.0000      -1.131864       -30.7996
   3   2.0000      -0.798451       -21.7270
   4   2.0000      -0.613116       -16.6837
   5   2.0000      -0.534388       -14.5414
   6   2.0000      -0.520997       -14.1771
   7   2.0000      -0.440773       -11.9940
   8   2.0000      -0.375891       -10.2285
   9   0.0000       0.095323         2.5939
  10   0.0000       0.115407         3.1404
  11   0.0000       0.150150         4.0858
  12   0.0000       0.169537         4.6133
  13   0.0000       0.202778         5.5179

MULLIKEN ATOMIC CHARGES
-----------------------
   0 C :    0.000167
   1 O :    0.000007
   2 H :   -0.001097
   3 H :   -0.000195
   4 H :    0.000007
   5 H :   -0.000013
   6 C :   -0.182768
   7 O :   -0.466794
   8 H :    0.312766
   9 H :    0.122684
  10 H :    0.101482
  11 H :    0.113755
Sum of atomic charges:   -0.0000000

LOEWDIN ATOMIC CHARGES
----------------------
   0 C :   -0.000075
   1 O :   -0.000065
   2 H :   -0.000656
   3 H :   -0.000039
   4 H :   -0.000000
   5 H :   -0.000002
   6 C :   -0.376933
   7 O :   -0.089640
   8 H :    0.169856
   9 H :    0.116324
  10 H :    0.098475
  11 H :    0.082756

  Mayer bond orders larger than 0.1
B(  6-C ,  7-O ) :   0.9999 B(  6-C ,  9-H ) :   0.9755 B(  6-C , 10-H ) :   0.9816
B(  6-C , 11-H ) :   0.9633 B(  7-O ,  8-H ) :   0.9008

Dispersion correction           -0.000257793
FINAL SINGLE POINT ENERGY      -115.731128187009

DIPOLE MOMENT
-------------
                                X             Y             Z
Electronic contribution:      0.18169       0.01085       1.93306
Nuclear contribution   :      0.23813      -0.33607      -2.43246
                        -----------------------------------------
Total Dipole Moment    :      0.41982      -0.32521      -0.49940
                        -----------------------------------------
Magnitude (a.u.)       :      0.72898
Magnitude (Debye)      :      1.85293

Rotational constants in cm-1:     4.400221     0.805836     0.770291
Rotational constants in MHz : 131915.299437 24158.369126 23092.751241

                             ****ORCA TERMINATED NORMALLY****
TOTAL RUN TIME: 0 days 0 hours 0 minutes 42 seconds 975 msec
