                         Program Version 4.1.2  - RELEASE  -
|  1> #Run DFT-D3 single point of the dimer
|  2> ! wB97X-D3 def2-TZVP TIGHTSCF CHELPG PMODEL PAL8
|  3>
|  4> %base "3-6_DFT_AB"
|  5>
|  6> %scf
|  7> MaxIter 1000
|  8> end
|  9>
| 10> * xyz 0 1
| 11>   C                      -7.942409            -2.379003            -9.459658
| 12>   O                      -7.867683            -3.795945            -9.391160
| 13>   H                      -8.719740            -4.186714            -9.465420
| 14>   H                      -7.748901            -1.924920            -8.467208
| 15>   H                      -7.233413            -1.909138            -10.170256
| 16>   H                      -8.967834            -2.145940            -9.738359
| 17>   C                      -9.373559            0.297392             -6.536490
| 18>   O                      -9.456627            1.047933             -5.265026
| 19>   H                      -9.619971            0.582751             -4.399038
| 20>   H                      -8.905925            -0.694538            -6.512490
| 21>   H                      -10.378640           0.221856             -6.997461
| 22>   H                      -8.830165            0.846990             -7.252988
| 23> *
| 24>
| 25> #Run DFT-D3 single point of the molecule with dimer basis set
| 26> $new_job
| 27> %base "3-6_DFT_A"
| 28> ! wB97X-D3 def2-TZVP TIGHTSCF CHELPG PMODEL
| 29>
| 30> %scf
| 31> MaxIter 1000
| 32> end
| 33>
| 34> * xyz 0 1
| 35>   C                      -7.942409            -2.379003            -9.459658
| 36>   O                      -7.867683            -3.795945            -9.391160
| 37>   H                      -8.719740            -4.186714            -9.465420
| 38>   H                      -7.748901            -1.924920            -8.467208
| 39>   H                      -7.233413            -1.909138            -10.170256
| 40>   H                      -8.967834            -2.145940            -9.738359
| 41>   C                    : -9.373559            0.297392             -6.536490
| 42>   O                    : -9.456627            1.047933             -5.265026
| 43>   H                    : -9.619971            0.582751             -4.399038
| 44>   H                    : -8.905925            -0.694538            -6.512490
| 45>   H                    : -10.378640           0.221856             -6.997461
| 46>   H                    : -8.830165            0.846990             -7.252988
| 47> *
| 48>
| 49> #Run DFT-D3 single point of the particle with dimer basis set
| 50> $new_job
| 51> %base "3-6_DFT_B"
| 52> ! wB97X-D3 def2-TZVP TIGHTSCF CHELPG PMODEL
| 53>
| 54> %scf
| 55> MaxIter 1000
| 56> end
| 57>
| 58> * xyz 0 1
| 59>   C                    : -7.942409            -2.379003            -9.459658
| 60>   O                    : -7.867683            -3.795945            -9.391160
| 61>   H                    : -8.719740            -4.186714            -9.465420
| 62>   H                    : -7.748901            -1.924920            -8.467208
| 63>   H                    : -7.233413            -1.909138            -10.170256
| 64>   H                    : -8.967834            -2.145940            -9.738359
| 65>   C                      -9.373559            0.297392             -6.536490
| 66>   O                      -9.456627            1.047933             -5.265026
| 67>   H                      -9.619971            0.582751             -4.399038
| 68>   H                      -8.905925            -0.694538            -6.512490
| 69>   H                      -10.378640           0.221856             -6.997461
| 70>   H                      -8.830165            0.846990             -7.252988
| 71> *
| 72>
| 73>                          ****END OF INPUT****
 Total Charge           Charge          ....    0
 Multiplicity           Mult            ....    1
 Number of Electrons    NEL             ....   36
Dispersion correction           -0.001303636
FINAL SINGLE POINT ENERGY      -231.457939205242
Dispersion correction           -0.000250608
FINAL SINGLE POINT ENERGY      -115.733025537867

CARTESIAN COORDINATES (ANGSTROEM)
---------------------------------
  C     -7.942409   -2.379003   -9.459658
  O     -7.867683   -3.795945   -9.391160
  H     -8.719740   -4.186714   -9.465420
  H     -7.748901   -1.924920   -8.467208
  H     -7.233413   -1.909138  -10.170256
  H     -8.967834   -2.145940   -9.738359
  C     -9.373559    0.297392   -6.536490
  O     -9.456627    1.047933   -5.265026
  H     -9.619971    0.582751   -4.399038
  H     -8.905925   -0.694538   -6.512490
  H    -10.378640    0.221856   -6.997461
  H     -8.830165    0.846990   -7.252988

 Multiplicity           Mult            ....    1
 Number of Electrons    NEL             ....   18
 Basis Dimension        Dim             ....  172

ORBITAL ENERGIES
----------------

  NO   OCC          E(Eh)            E(eV)
   0   2.0000     -19.228613      -523.2372
   1   2.0000     -10.318280      -280.7747
   2   2.0000      -1.102432       -29.9987
   3   2.0000      -0.804096       -21.8806
   4   2.0000      -0.599047       -16.3009
   5   2.0000      -0.528835       -14.3903
   6   2.0000      -0.524519       -14.2729
   7   2.0000      -0.421440       -11.4680
   8   2.0000      -0.372283       -10.1303
   9   0.0000       0.081522         2.2183
  10   0.0000       0.112948         3.0735
  11   0.0000       0.140239         3.8161
  12   0.0000       0.168634         4.5888
  13   0.0000       0.183640         4.9971

MULLIKEN ATOMIC CHARGES
-----------------------
   0 C :    0.001178
   1 O :   -0.000007
   2 H :   -0.000005
   3 H :   -0.002919
   4 H :   -0.000075
   5 H :   -0.000004
   6 C :   -0.151555
   7 O :   -0.522272
   8 H :    0.326022
   9 H :    0.113447
  10 H :    0.108534
  11 H :    0.127655
Sum of atomic charges:   -0.0000000

LOEWDIN ATOMIC CHARGES
----------------------
   0 C :   -0.001135
   1 O :   -0.000008
   2 H :   -0.000001
   3 H :   -0.002822
   4 H :   -0.000009
   5 H :   -0.000084
   6 C :   -0.337026
   7 O :   -0.144220
   8 H :    0.183297
   9 H :    0.099871
  10 H :    0.102637
  11 H :    0.099500

  Mayer bond orders larger than 0.1
B(  6-C ,  7-O ) :   0.9862 B(  6-C ,  9-H ) :   0.9706 B(  6-C , 10-H ) :   0.9756
B(  6-C , 11-H ) :   0.9728 B(  7-O ,  8-H ) :   0.8821

Dispersion correction           -0.000320702
FINAL SINGLE POINT ENERGY      -115.724429310466

DIPOLE MOMENT
-------------
                                X             Y             Z
Electronic contribution:     -0.01080       0.94918       1.54144
Nuclear contribution   :     -0.04206      -1.59137      -1.56650
                        -----------------------------------------
Total Dipole Moment    :     -0.05286      -0.64219      -0.02506
                        -----------------------------------------
Magnitude (a.u.)       :      0.64485
Magnitude (Debye)      :      1.63907

Rotational constants in cm-1:     4.581581     0.746871     0.728291
Rotational constants in MHz : 137352.341187 22390.624414 21833.600687

                             ****ORCA TERMINATED NORMALLY****
TOTAL RUN TIME: 0 days 0 hours 5 minutes 59 seconds 249 msec
