                         Program Version 4.1.2  - RELEASE  -
|  1> #Run DFT-D3 single point of the dimer
|  2> ! wB97X-D3 def2-TZVP TIGHTSCF CHELPG PMODEL PAL8
|  3>
|  4> %base "20-50_DFT_AB"
|  5>
|  6> %scf
|  7> MaxIter 1000
|  8> end
|  9>
| 10> * xyz 0 1
| 11>   C                      10.369788            -1.022027            1.137112
| 12>   O                      9.385676             -0.662923            2.037067
| 13>   H                      8.915815             -1.406507            2.396030
| 14>   H                      9.951602             -1.529467            0.290434
| 15>   H                      10.979370            -0.132618            0.842871
| 16>   H                      10.919377            -1.856796            1.581003
| 17>   C                      7.605091             -3.155752            -1.407141
| 18>   O                      8.442560             -4.156556            -0.807862
| 19>   H                      8.707860             -4.810448            -1.492540
| 20>   H                      8.014981             -2.138971            -1.143179
| 21>   H                      7.574775             -3.275983            -2.530497
| 22>   H                      6.599084             -3.169128            -1.043752
| 23> *
| 24>
| 25> #Run DFT-D3 single point of the molecule with dimer basis set
| 26> $new_job
| 27> %base "20-50_DFT_A"
| 28> ! wB97X-D3 def2-TZVP TIGHTSCF CHELPG PMODEL
| 29>
| 30> %scf
| 31> MaxIter 1000
| 32> end
| 33>
| 34> * xyz 0 1
| 35>   C                      10.369788            -1.022027            1.137112
| 36>   O                      9.385676             -0.662923            2.037067
| 37>   H                      8.915815             -1.406507            2.396030
| 38>   H                      9.951602             -1.529467            0.290434
| 39>   H                      10.979370            -0.132618            0.842871
| 40>   H                      10.919377            -1.856796            1.581003
| 41>   C                    : 7.605091             -3.155752            -1.407141
| 42>   O                    : 8.442560             -4.156556            -0.807862
| 43>   H                    : 8.707860             -4.810448            -1.492540
| 44>   H                    : 8.014981             -2.138971            -1.143179
| 45>   H                    : 7.574775             -3.275983            -2.530497
| 46>   H                    : 6.599084             -3.169128            -1.043752
| 47> *
| 48>
| 49> #Run DFT-D3 single point of the particle with dimer basis set
| 50> $new_job
| 51> %base "20-50_DFT_B"
| 52> ! wB97X-D3 def2-TZVP TIGHTSCF CHELPG PMODEL
| 53>
| 54> %scf
| 55> MaxIter 1000
| 56> end
| 57>
| 58> * xyz 0 1
| 59>   C                    : 10.369788            -1.022027            1.137112
| 60>   O                    : 9.385676             -0.662923            2.037067
| 61>   H                    : 8.915815             -1.406507            2.396030
| 62>   H                    : 9.951602             -1.529467            0.290434
| 63>   H                    : 10.979370            -0.132618            0.842871
| 64>   H                    : 10.919377            -1.856796            1.581003
| 65>   C                      7.605091             -3.155752            -1.407141
| 66>   O                      8.442560             -4.156556            -0.807862
| 67>   H                      8.707860             -4.810448            -1.492540
| 68>   H                      8.014981             -2.138971            -1.143179
| 69>   H                      7.574775             -3.275983            -2.530497
| 70>   H                      6.599084             -3.169128            -1.043752
| 71> *
| 72>
| 73>                          ****END OF INPUT****
 Total Charge           Charge          ....    0
 Multiplicity           Mult            ....    1
 Number of Electrons    NEL             ....   36
Dispersion correction           -0.001384532
FINAL SINGLE POINT ENERGY      -231.464845075952
Dispersion correction           -0.000216196
FINAL SINGLE POINT ENERGY      -115.729898827652

CARTESIAN COORDINATES (ANGSTROEM)
---------------------------------
  C     10.369788   -1.022027    1.137112
  O      9.385676   -0.662923    2.037067
  H      8.915815   -1.406507    2.396030
  H      9.951602   -1.529467    0.290434
  H     10.979370   -0.132618    0.842871
  H     10.919377   -1.856796    1.581003
  C      7.605091   -3.155752   -1.407141
  O      8.442560   -4.156556   -0.807862
  H      8.707860   -4.810448   -1.492540
  H      8.014981   -2.138971   -1.143179
  H      7.574775   -3.275983   -2.530497
  H      6.599084   -3.169128   -1.043752

 Multiplicity           Mult            ....    1
 Number of Electrons    NEL             ....   18
 Basis Dimension        Dim             ....  172

ORBITAL ENERGIES
----------------

  NO   OCC          E(Eh)            E(eV)
   0   2.0000     -19.232022      -523.3299
   1   2.0000     -10.320300      -280.8296
   2   2.0000      -1.124602       -30.6020
   3   2.0000      -0.791851       -21.5474
   4   2.0000      -0.603900       -16.4329
   5   2.0000      -0.536549       -14.6002
   6   2.0000      -0.524179       -14.2636
   7   2.0000      -0.431610       -11.7447
   8   2.0000      -0.372900       -10.1471
   9   0.0000       0.092152         2.5076
  10   0.0000       0.115213         3.1351
  11   0.0000       0.151461         4.1215
  12   0.0000       0.170826         4.6484
  13   0.0000       0.187325         5.0974

MULLIKEN ATOMIC CHARGES
-----------------------
   0 C :   -0.001873
   1 O :    0.000032
   2 H :   -0.000065
   3 H :    0.002914
   4 H :    0.000095
   5 H :   -0.000295
   6 C :   -0.173699
   7 O :   -0.478458
   8 H :    0.318739
   9 H :    0.105925
  10 H :    0.107863
  11 H :    0.118821
Sum of atomic charges:    0.0000000

LOEWDIN ATOMIC CHARGES
----------------------
   0 C :   -0.001696
   1 O :   -0.000034
   2 H :   -0.000048
   3 H :   -0.002544
   4 H :   -0.000008
   5 H :   -0.000108
   6 C :   -0.374722
   7 O :   -0.105092
   8 H :    0.181105
   9 H :    0.107811
  10 H :    0.103378
  11 H :    0.091959

  Mayer bond orders larger than 0.1
B(  6-C ,  7-O ) :   1.0082 B(  6-C ,  9-H ) :   0.9781 B(  6-C , 10-H ) :   0.9836
B(  6-C , 11-H ) :   0.9725 B(  7-O ,  8-H ) :   0.8958

Dispersion correction           -0.000267317
FINAL SINGLE POINT ENERGY      -115.732814967505

DIPOLE MOMENT
-------------
                                X             Y             Z
Electronic contribution:      0.99223      -1.26340       0.91194
Nuclear contribution   :     -1.17260       1.23549      -1.59503
                        -----------------------------------------
Total Dipole Moment    :     -0.18037      -0.02791      -0.68309
                        -----------------------------------------
Magnitude (a.u.)       :      0.70705
Magnitude (Debye)      :      1.79718

Rotational constants in cm-1:     4.180111     0.807795     0.771974
Rotational constants in MHz : 125316.577846 24217.084917 23143.199629

                             ****ORCA TERMINATED NORMALLY****
TOTAL RUN TIME: 0 days 0 hours 1 minutes 6 seconds 603 msec
