                         Program Version 4.1.2  - RELEASE  -
|  1> #Run DFT-D3 single point of the dimer
|  2> ! wB97X-D3 def2-TZVP TIGHTSCF CHELPG PMODEL PAL8
|  3>
|  4> %base "8-181_DFT_AB"
|  5>
|  6> %scf
|  7> MaxIter 1000
|  8> end
|  9>
| 10> * xyz 0 1
| 11>   C                      3.181583             10.824812            2.357139
| 12>   O                      3.352786             9.447297             2.312862
| 13>   H                      3.442495             9.190709             3.246657
| 14>   H                      3.205216             11.214386            1.317607
| 15>   H                      2.145483             11.195536            2.772562
| 16>   H                      4.087869             11.332881            2.814354
| 17>   C                      3.331205             8.879087             6.004327
| 18>   O                      4.379538             9.384621             5.205546
| 19>   H                      5.180893             8.897967             5.414773
| 20>   H                      2.426944             9.554563             6.046449
| 21>   H                      2.986649             7.898771             5.610622
| 22>   H                      3.675383             8.766237             7.041271
| 23> *
| 24>
| 25> #Run DFT-D3 single point of the molecule with dimer basis set
| 26> $new_job
| 27> %base "8-181_DFT_A"
| 28> ! wB97X-D3 def2-TZVP TIGHTSCF CHELPG PMODEL
| 29>
| 30> %scf
| 31> MaxIter 1000
| 32> end
| 33>
| 34> * xyz 0 1
| 35>   C                      3.181583             10.824812            2.357139
| 36>   O                      3.352786             9.447297             2.312862
| 37>   H                      3.442495             9.190709             3.246657
| 38>   H                      3.205216             11.214386            1.317607
| 39>   H                      2.145483             11.195536            2.772562
| 40>   H                      4.087869             11.332881            2.814354
| 41>   C                    : 3.331205             8.879087             6.004327
| 42>   O                    : 4.379538             9.384621             5.205546
| 43>   H                    : 5.180893             8.897967             5.414773
| 44>   H                    : 2.426944             9.554563             6.046449
| 45>   H                    : 2.986649             7.898771             5.610622
| 46>   H                    : 3.675383             8.766237             7.041271
| 47> *
| 48>
| 49> #Run DFT-D3 single point of the particle with dimer basis set
| 50> $new_job
| 51> %base "8-181_DFT_B"
| 52> ! wB97X-D3 def2-TZVP TIGHTSCF CHELPG PMODEL
| 53>
| 54> %scf
| 55> MaxIter 1000
| 56> end
| 57>
| 58> * xyz 0 1
| 59>   C                    : 3.181583             10.824812            2.357139
| 60>   O                    : 3.352786             9.447297             2.312862
| 61>   H                    : 3.442495             9.190709             3.246657
| 62>   H                    : 3.205216             11.214386            1.317607
| 63>   H                    : 2.145483             11.195536            2.772562
| 64>   H                    : 4.087869             11.332881            2.814354
| 65>   C                      3.331205             8.879087             6.004327
| 66>   O                      4.379538             9.384621             5.205546
| 67>   H                      5.180893             8.897967             5.414773
| 68>   H                      2.426944             9.554563             6.046449
| 69>   H                      2.986649             7.898771             5.610622
| 70>   H                      3.675383             8.766237             7.041271
| 71> *
| 72>
| 73>                          ****END OF INPUT****
 Total Charge           Charge          ....    0
 Multiplicity           Mult            ....    1
 Number of Electrons    NEL             ....   36
Dispersion correction           -0.001939980
FINAL SINGLE POINT ENERGY      -231.472108299197
Dispersion correction           -0.000256820
FINAL SINGLE POINT ENERGY      -115.730003355730

CARTESIAN COORDINATES (ANGSTROEM)
---------------------------------
  C      3.181583   10.824812    2.357139
  O      3.352786    9.447297    2.312862
  H      3.442495    9.190709    3.246657
  H      3.205216   11.214386    1.317607
  H      2.145483   11.195536    2.772562
  H      4.087869   11.332881    2.814354
  C      3.331205    8.879087    6.004327
  O      4.379538    9.384621    5.205546
  H      5.180893    8.897967    5.414773
  H      2.426944    9.554563    6.046449
  H      2.986649    7.898771    5.610622
  H      3.675383    8.766237    7.041271

 Multiplicity           Mult            ....    1
 Number of Electrons    NEL             ....   18
 Basis Dimension        Dim             ....  172

ORBITAL ENERGIES
----------------

  NO   OCC          E(Eh)            E(eV)
   0   2.0000     -19.230996      -523.3020
   1   2.0000     -10.319951      -280.8201
   2   2.0000      -1.137559       -30.9546
   3   2.0000      -0.791226       -21.5303
   4   2.0000      -0.609972       -16.5982
   5   2.0000      -0.542479       -14.7616
   6   2.0000      -0.527922       -14.3655
   7   2.0000      -0.429051       -11.6751
   8   2.0000      -0.373573       -10.1654
   9   0.0000       0.098292         2.6747
  10   0.0000       0.125575         3.4171
  11   0.0000       0.149049         4.0558
  12   0.0000       0.183999         5.0069
  13   0.0000       0.192642         5.2421

MULLIKEN ATOMIC CHARGES
-----------------------
   0 C :    0.003924
   1 O :   -0.001003
   2 H :   -0.005109
   3 H :   -0.000148
   4 H :   -0.000446
   5 H :   -0.004029
   6 C :   -0.163439
   7 O :   -0.472862
   8 H :    0.315422
   9 H :    0.119129
  10 H :    0.100406
  11 H :    0.108155
Sum of atomic charges:    0.0000000

LOEWDIN ATOMIC CHARGES
----------------------
   0 C :   -0.005529
   1 O :   -0.003171
   2 H :   -0.023178
   3 H :   -0.000047
   4 H :   -0.000114
   5 H :   -0.002413
   6 C :   -0.391595
   7 O :   -0.052822
   8 H :    0.170317
   9 H :    0.114812
  10 H :    0.096848
  11 H :    0.096891

  Mayer bond orders larger than 0.1
B(  6-C ,  7-O ) :   0.9839 B(  6-C ,  9-H ) :   0.9715 B(  6-C , 10-H ) :   0.9769
B(  6-C , 11-H ) :   0.9769 B(  7-O ,  8-H ) :   0.8961

Dispersion correction           -0.000243688
FINAL SINGLE POINT ENERGY      -115.735209355975

DIPOLE MOMENT
-------------
                                X             Y             Z
Electronic contribution:      1.28378       0.76866      -1.09467
Nuclear contribution   :     -1.18196      -1.27040       1.56935
                        -----------------------------------------
Total Dipole Moment    :      0.10182      -0.50174       0.47468
                        -----------------------------------------
Magnitude (a.u.)       :      0.69817
Magnitude (Debye)      :      1.77460

Rotational constants in cm-1:     4.212579     0.825827     0.798973
Rotational constants in MHz : 126289.935902 24757.671541 23952.608702

                             ****ORCA TERMINATED NORMALLY****
TOTAL RUN TIME: 0 days 0 hours 0 minutes 46 seconds 310 msec
