                         Program Version 4.1.2  - RELEASE  -
|  1> #Run DFT-D3 single point of the dimer
|  2> ! wB97X-D3 def2-TZVP TIGHTSCF CHELPG PMODEL PAL8
|  3>
|  4> %base "19-177_DFT_AB"
|  5>
|  6> %scf
|  7> MaxIter 1000
|  8> end
|  9>
| 10> * xyz 0 1
| 11>   C                      -0.421964            8.237121             -4.624621
| 12>   O                      0.507084             7.782462             -5.533117
| 13>   H                      0.845890             8.541458             -5.972492
| 14>   H                      -0.959687            7.461524             -3.990407
| 15>   H                      0.087536             9.082407             -4.138351
| 16>   H                      -1.316037            8.670810             -5.116080
| 17>   C                      1.807519             10.915556            -7.249167
| 18>   O                      0.582342             10.451936            -6.635773
| 19>   H                      -0.196056            10.951353            -6.967479
| 20>   H                      2.042428             10.339963            -8.135665
| 21>   H                      1.798780             11.938081            -7.595815
| 22>   H                      2.620623             11.017840            -6.551858
| 23> *
| 24>
| 25> #Run DFT-D3 single point of the molecule with dimer basis set
| 26> $new_job
| 27> %base "19-177_DFT_A"
| 28> ! wB97X-D3 def2-TZVP TIGHTSCF CHELPG PMODEL
| 29>
| 30> %scf
| 31> MaxIter 1000
| 32> end
| 33>
| 34> * xyz 0 1
| 35>   C                      -0.421964            8.237121             -4.624621
| 36>   O                      0.507084             7.782462             -5.533117
| 37>   H                      0.845890             8.541458             -5.972492
| 38>   H                      -0.959687            7.461524             -3.990407
| 39>   H                      0.087536             9.082407             -4.138351
| 40>   H                      -1.316037            8.670810             -5.116080
| 41>   C                    : 1.807519             10.915556            -7.249167
| 42>   O                    : 0.582342             10.451936            -6.635773
| 43>   H                    : -0.196056            10.951353            -6.967479
| 44>   H                    : 2.042428             10.339963            -8.135665
| 45>   H                    : 1.798780             11.938081            -7.595815
| 46>   H                    : 2.620623             11.017840            -6.551858
| 47> *
| 48>
| 49> #Run DFT-D3 single point of the particle with dimer basis set
| 50> $new_job
| 51> %base "19-177_DFT_B"
| 52> ! wB97X-D3 def2-TZVP TIGHTSCF CHELPG PMODEL
| 53>
| 54> %scf
| 55> MaxIter 1000
| 56> end
| 57>
| 58> * xyz 0 1
| 59>   C                    : -0.421964            8.237121             -4.624621
| 60>   O                    : 0.507084             7.782462             -5.533117
| 61>   H                    : 0.845890             8.541458             -5.972492
| 62>   H                    : -0.959687            7.461524             -3.990407
| 63>   H                    : 0.087536             9.082407             -4.138351
| 64>   H                    : -1.316037            8.670810             -5.116080
| 65>   C                      1.807519             10.915556            -7.249167
| 66>   O                      0.582342             10.451936            -6.635773
| 67>   H                      -0.196056            10.951353            -6.967479
| 68>   H                      2.042428             10.339963            -8.135665
| 69>   H                      1.798780             11.938081            -7.595815
| 70>   H                      2.620623             11.017840            -6.551858
| 71> *
| 72>
| 73>                          ****END OF INPUT****
 Total Charge           Charge          ....    0
 Multiplicity           Mult            ....    1
 Number of Electrons    NEL             ....   36
Dispersion correction           -0.001973672
FINAL SINGLE POINT ENERGY      -231.461951770004
Dispersion correction           -0.000216843
FINAL SINGLE POINT ENERGY      -115.724415528912

CARTESIAN COORDINATES (ANGSTROEM)
---------------------------------
  C     -0.421964    8.237121   -4.624621
  O      0.507084    7.782462   -5.533117
  H      0.845890    8.541458   -5.972492
  H     -0.959687    7.461524   -3.990407
  H      0.087536    9.082407   -4.138351
  H     -1.316037    8.670810   -5.116080
  C      1.807519   10.915556   -7.249167
  O      0.582342   10.451936   -6.635773
  H     -0.196056   10.951353   -6.967479
  H      2.042428   10.339963   -8.135665
  H      1.798780   11.938081   -7.595815
  H      2.620623   11.017840   -6.551858

 Multiplicity           Mult            ....    1
 Number of Electrons    NEL             ....   18
 Basis Dimension        Dim             ....  172

ORBITAL ENERGIES
----------------

  NO   OCC          E(Eh)            E(eV)
   0   2.0000     -19.233451      -523.3688
   1   2.0000     -10.311359      -280.5863
   2   2.0000      -1.120642       -30.4942
   3   2.0000      -0.802840       -21.8464
   4   2.0000      -0.607605       -16.5338
   5   2.0000      -0.548561       -14.9271
   6   2.0000      -0.513078       -13.9616
   7   2.0000      -0.427804       -11.6411
   8   2.0000      -0.378469       -10.2987
   9   0.0000       0.099656         2.7118
  10   0.0000       0.129732         3.5302
  11   0.0000       0.146205         3.9784
  12   0.0000       0.186151         5.0654
  13   0.0000       0.200316         5.4509

MULLIKEN ATOMIC CHARGES
-----------------------
   0 C :    0.016512
   1 O :   -0.001917
   2 H :   -0.006892
   3 H :   -0.000068
   4 H :   -0.008380
   5 H :   -0.005397
   6 C :   -0.166820
   7 O :   -0.487992
   8 H :    0.319003
   9 H :    0.112500
  10 H :    0.108577
  11 H :    0.120873
Sum of atomic charges:    0.0000000

LOEWDIN ATOMIC CHARGES
----------------------
   0 C :   -0.012002
   1 O :   -0.004957
   2 H :   -0.028522
   3 H :   -0.000106
   4 H :   -0.003800
   5 H :   -0.001905
   6 C :   -0.361229
   7 O :   -0.067284
   8 H :    0.179829
   9 H :    0.098099
  10 H :    0.097474
  11 H :    0.104402

  Mayer bond orders larger than 0.1
B(  6-C ,  7-O ) :   0.9942 B(  6-C ,  9-H ) :   0.9773 B(  6-C , 10-H ) :   0.9715
B(  6-C , 11-H ) :   0.9730 B(  7-O ,  8-H ) :   0.8914

Dispersion correction           -0.000276607
FINAL SINGLE POINT ENERGY      -115.729769239727

DIPOLE MOMENT
-------------
                                X             Y             Z
Electronic contribution:     -1.47540      -0.76890       0.87323
Nuclear contribution   :      1.49624       1.34480      -1.35314
                        -----------------------------------------
Total Dipole Moment    :      0.02084       0.57590      -0.47991
                        -----------------------------------------
Magnitude (a.u.)       :      0.74994
Magnitude (Debye)      :      1.90619

Rotational constants in cm-1:     4.509283     0.783078     0.767860
Rotational constants in MHz : 135184.898978 23476.099636 23019.862139

                             ****ORCA TERMINATED NORMALLY****
TOTAL RUN TIME: 0 days 0 hours 1 minutes 36 seconds 271 msec
