                         Program Version 4.1.2  - RELEASE  -
|  1> #Run DFT-D3 single point of the dimer
|  2> ! wB97X-D3 def2-TZVP TIGHTSCF CHELPG PMODEL PAL8
|  3>
|  4> %base "11-197_DFT_AB"
|  5>
|  6> %scf
|  7> MaxIter 1000
|  8> end
|  9>
| 10> * xyz 0 1
| 11>   C                      1.722889             4.769203             0.376616
| 12>   O                      0.399741             4.545588             0.899651
| 13>   H                      -0.141667            4.517815             0.109783
| 14>   H                      2.065816             3.898530             -0.238405
| 15>   H                      1.754386             5.714182             -0.138334
| 16>   H                      2.523821             4.837285             1.055451
| 17>   C                      -1.021915            2.852459             -2.001228
| 18>   O                      -0.952008            4.277122             -1.661741
| 19>   H                      -1.236880            4.719434             -2.465130
| 20>   H                      -0.167043            2.540624             -2.682369
| 21>   H                      -1.096906            2.264152             -1.113842
| 22>   H                      -1.909074            2.582421             -2.660496
| 23> *
| 24>
| 25> #Run DFT-D3 single point of the molecule with dimer basis set
| 26> $new_job
| 27> %base "11-197_DFT_A"
| 28> ! wB97X-D3 def2-TZVP TIGHTSCF CHELPG PMODEL
| 29>
| 30> %scf
| 31> MaxIter 1000
| 32> end
| 33>
| 34> * xyz 0 1
| 35>   C                      1.722889             4.769203             0.376616
| 36>   O                      0.399741             4.545588             0.899651
| 37>   H                      -0.141667            4.517815             0.109783
| 38>   H                      2.065816             3.898530             -0.238405
| 39>   H                      1.754386             5.714182             -0.138334
| 40>   H                      2.523821             4.837285             1.055451
| 41>   C                    : -1.021915            2.852459             -2.001228
| 42>   O                    : -0.952008            4.277122             -1.661741
| 43>   H                    : -1.236880            4.719434             -2.465130
| 44>   H                    : -0.167043            2.540624             -2.682369
| 45>   H                    : -1.096906            2.264152             -1.113842
| 46>   H                    : -1.909074            2.582421             -2.660496
| 47> *
| 48>
| 49> #Run DFT-D3 single point of the particle with dimer basis set
| 50> $new_job
| 51> %base "11-197_DFT_B"
| 52> ! wB97X-D3 def2-TZVP TIGHTSCF CHELPG PMODEL
| 53>
| 54> %scf
| 55> MaxIter 1000
| 56> end
| 57>
| 58> * xyz 0 1
| 59>   C                    : 1.722889             4.769203             0.376616
| 60>   O                    : 0.399741             4.545588             0.899651
| 61>   H                    : -0.141667            4.517815             0.109783
| 62>   H                    : 2.065816             3.898530             -0.238405
| 63>   H                    : 1.754386             5.714182             -0.138334
| 64>   H                    : 2.523821             4.837285             1.055451
| 65>   C                      -1.021915            2.852459             -2.001228
| 66>   O                      -0.952008            4.277122             -1.661741
| 67>   H                      -1.236880            4.719434             -2.465130
| 68>   H                      -0.167043            2.540624             -2.682369
| 69>   H                      -1.096906            2.264152             -1.113842
| 70>   H                      -1.909074            2.582421             -2.660496
| 71> *
| 72>
| 73>                          ****END OF INPUT****
 Total Charge           Charge          ....    0
 Multiplicity           Mult            ....    1
 Number of Electrons    NEL             ....   36
Dispersion correction           -0.001959855
FINAL SINGLE POINT ENERGY      -231.468730319046
Dispersion correction           -0.000242394
FINAL SINGLE POINT ENERGY      -115.729501581250

CARTESIAN COORDINATES (ANGSTROEM)
---------------------------------
  C      1.722889    4.769203    0.376616
  O      0.399741    4.545588    0.899651
  H     -0.141667    4.517815    0.109783
  H      2.065816    3.898530   -0.238405
  H      1.754386    5.714182   -0.138334
  H      2.523821    4.837285    1.055451
  C     -1.021915    2.852459   -2.001228
  O     -0.952008    4.277122   -1.661741
  H     -1.236880    4.719434   -2.465130
  H     -0.167043    2.540624   -2.682369
  H     -1.096906    2.264152   -1.113842
  H     -1.909074    2.582421   -2.660496

 Multiplicity           Mult            ....    1
 Number of Electrons    NEL             ....   18
 Basis Dimension        Dim             ....  172

ORBITAL ENERGIES
----------------

  NO   OCC          E(Eh)            E(eV)
   0   2.0000     -19.235250      -523.4177
   1   2.0000     -10.325124      -280.9609
   2   2.0000      -1.125664       -30.6309
   3   2.0000      -0.793580       -21.5944
   4   2.0000      -0.604240       -16.4422
   5   2.0000      -0.534433       -14.5427
   6   2.0000      -0.514532       -14.0011
   7   2.0000      -0.447075       -12.1655
   8   2.0000      -0.374885       -10.2012
   9   0.0000       0.097604         2.6559
  10   0.0000       0.125992         3.4284
  11   0.0000       0.145354         3.9553
  12   0.0000       0.182286         4.9603
  13   0.0000       0.189503         5.1566

MULLIKEN ATOMIC CHARGES
-----------------------
   0 C :    0.001588
   1 O :    0.001239
   2 H :   -0.009691
   3 H :   -0.000949
   4 H :   -0.002091
   5 H :   -0.000252
   6 C :   -0.201601
   7 O :   -0.455681
   8 H :    0.309329
   9 H :    0.111873
  10 H :    0.134858
  11 H :    0.111379
Sum of atomic charges:    0.0000000

LOEWDIN ATOMIC CHARGES
----------------------
   0 C :   -0.006215
   1 O :   -0.003450
   2 H :   -0.035082
   3 H :   -0.000581
   4 H :   -0.000883
   5 H :   -0.000082
   6 C :   -0.358240
   7 O :   -0.072186
   8 H :    0.165993
   9 H :    0.104143
  10 H :    0.102073
  11 H :    0.104510

  Mayer bond orders larger than 0.1
B(  6-C ,  7-O ) :   0.9911 B(  6-C ,  9-H ) :   0.9671 B(  6-C , 10-H ) :   0.9744
B(  6-C , 11-H ) :   0.9690 B(  7-O ,  8-H ) :   0.9026

Dispersion correction           -0.000271257
FINAL SINGLE POINT ENERGY      -115.730865619159

DIPOLE MOMENT
-------------
                                X             Y             Z
Electronic contribution:      0.16233       1.77417       0.74458
Nuclear contribution   :     -0.39460      -2.08782      -1.38517
                        -----------------------------------------
Total Dipole Moment    :     -0.23227      -0.31365      -0.64060
                        -----------------------------------------
Magnitude (a.u.)       :      0.75013
Magnitude (Debye)      :      1.90667

Rotational constants in cm-1:     4.167162     0.781159     0.750421
Rotational constants in MHz : 124928.383261 23418.564263 22497.049094

                             ****ORCA TERMINATED NORMALLY****
TOTAL RUN TIME: 0 days 0 hours 1 minutes 15 seconds 308 msec
