                         Program Version 4.1.2  - RELEASE  -
|  1> #Run DFT-D3 single point of the dimer
|  2> ! wB97X-D3 def2-TZVP TIGHTSCF CHELPG PMODEL PAL8
|  3>
|  4> %base "20-124_DFT_AB"
|  5>
|  6> %scf
|  7> MaxIter 1000
|  8> end
|  9>
| 10> * xyz 0 1
| 11>   C                      -1.761067            5.722091             -2.002277
| 12>   O                      -1.949604            4.450320             -2.319201
| 13>   H                      -2.743328            3.992807             -2.075747
| 14>   H                      -2.692750            6.144057             -1.678658
| 15>   H                      -0.954174            5.871586             -1.341224
| 16>   H                      -1.561292            6.309232             -2.952997
| 17>   C                      -2.096116            1.362651             -3.714069
| 18>   O                      -1.653000            2.524179             -4.317174
| 19>   H                      -1.444100            3.157896             -3.600803
| 20>   H                      -1.388523            0.806716             -3.030014
| 21>   H                      -3.077310            1.420086             -3.206591
| 22>   H                      -2.228905            0.632296             -4.545522
| 23> *
| 24>
| 25> #Run DFT-D3 single point of the molecule with dimer basis set
| 26> $new_job
| 27> %base "20-124_DFT_A"
| 28> ! wB97X-D3 def2-TZVP TIGHTSCF CHELPG PMODEL
| 29>
| 30> %scf
| 31> MaxIter 1000
| 32> end
| 33>
| 34> * xyz 0 1
| 35>   C                      -1.761067            5.722091             -2.002277
| 36>   O                      -1.949604            4.450320             -2.319201
| 37>   H                      -2.743328            3.992807             -2.075747
| 38>   H                      -2.692750            6.144057             -1.678658
| 39>   H                      -0.954174            5.871586             -1.341224
| 40>   H                      -1.561292            6.309232             -2.952997
| 41>   C                    : -2.096116            1.362651             -3.714069
| 42>   O                    : -1.653000            2.524179             -4.317174
| 43>   H                    : -1.444100            3.157896             -3.600803
| 44>   H                    : -1.388523            0.806716             -3.030014
| 45>   H                    : -3.077310            1.420086             -3.206591
| 46>   H                    : -2.228905            0.632296             -4.545522
| 47> *
| 48>
| 49> #Run DFT-D3 single point of the particle with dimer basis set
| 50> $new_job
| 51> %base "20-124_DFT_B"
| 52> ! wB97X-D3 def2-TZVP TIGHTSCF CHELPG PMODEL
| 53>
| 54> %scf
| 55> MaxIter 1000
| 56> end
| 57>
| 58> * xyz 0 1
| 59>   C                    : -1.761067            5.722091             -2.002277
| 60>   O                    : -1.949604            4.450320             -2.319201
| 61>   H                    : -2.743328            3.992807             -2.075747
| 62>   H                    : -2.692750            6.144057             -1.678658
| 63>   H                    : -0.954174            5.871586             -1.341224
| 64>   H                    : -1.561292            6.309232             -2.952997
| 65>   C                      -2.096116            1.362651             -3.714069
| 66>   O                      -1.653000            2.524179             -4.317174
| 67>   H                      -1.444100            3.157896             -3.600803
| 68>   H                      -1.388523            0.806716             -3.030014
| 69>   H                      -3.077310            1.420086             -3.206591
| 70>   H                      -2.228905            0.632296             -4.545522
| 71> *
| 72>
| 73>                          ****END OF INPUT****
 Total Charge           Charge          ....    0
 Multiplicity           Mult            ....    1
 Number of Electrons    NEL             ....   36
Dispersion correction           -0.001716489
FINAL SINGLE POINT ENERGY      -231.464158933780
Dispersion correction           -0.000226593
FINAL SINGLE POINT ENERGY      -115.723516320118

CARTESIAN COORDINATES (ANGSTROEM)
---------------------------------
  C     -1.761067    5.722091   -2.002277
  O     -1.949604    4.450320   -2.319201
  H     -2.743328    3.992807   -2.075747
  H     -2.692750    6.144057   -1.678658
  H     -0.954174    5.871586   -1.341224
  H     -1.561292    6.309232   -2.952997
  C     -2.096116    1.362651   -3.714069
  O     -1.653000    2.524179   -4.317174
  H     -1.444100    3.157896   -3.600803
  H     -1.388523    0.806716   -3.030014
  H     -3.077310    1.420086   -3.206591
  H     -2.228905    0.632296   -4.545522

 Multiplicity           Mult            ....    1
 Number of Electrons    NEL             ....   18
 Basis Dimension        Dim             ....  172

ORBITAL ENERGIES
----------------

  NO   OCC          E(Eh)            E(eV)
   0   2.0000     -19.239898      -523.5442
   1   2.0000     -10.316738      -280.7327
   2   2.0000      -1.147657       -31.2293
   3   2.0000      -0.789758       -21.4904
   4   2.0000      -0.617014       -16.7898
   5   2.0000      -0.541569       -14.7368
   6   2.0000      -0.526301       -14.3214
   7   2.0000      -0.428774       -11.6675
   8   2.0000      -0.377192       -10.2639
   9   0.0000       0.071550         1.9470
  10   0.0000       0.127794         3.4774
  11   0.0000       0.149560         4.0697
  12   0.0000       0.170087         4.6283
  13   0.0000       0.193985         5.2786

MULLIKEN ATOMIC CHARGES
-----------------------
   0 C :   -0.003211
   1 O :   -0.006435
   2 H :   -0.000213
   3 H :    0.000086
   4 H :    0.000059
   5 H :    0.000029
   6 C :   -0.175247
   7 O :   -0.449703
   8 H :    0.318953
   9 H :    0.097955
  10 H :    0.101783
  11 H :    0.115944
Sum of atomic charges:   -0.0000000

LOEWDIN ATOMIC CHARGES
----------------------
   0 C :   -0.002719
   1 O :   -0.024748
   2 H :   -0.004112
   3 H :   -0.000075
   4 H :   -0.000077
   5 H :   -0.000166
   6 C :   -0.431178
   7 O :   -0.038485
   8 H :    0.195202
   9 H :    0.097902
  10 H :    0.094868
  11 H :    0.113585

  Mayer bond orders larger than 0.1
B(  6-C ,  7-O ) :   1.0154 B(  6-C ,  9-H ) :   0.9696 B(  6-C , 10-H ) :   0.9670
B(  6-C , 11-H ) :   0.9776 B(  7-O ,  8-H ) :   0.8974

Dispersion correction           -0.000262489
FINAL SINGLE POINT ENERGY      -115.733724754269

DIPOLE MOMENT
-------------
                                X             Y             Z
Electronic contribution:      0.59564       1.67154      -0.88162
Nuclear contribution   :     -0.62569      -1.70360       1.51360
                        -----------------------------------------
Total Dipole Moment    :     -0.03005      -0.03206       0.63198
                        -----------------------------------------
Magnitude (a.u.)       :      0.63351
Magnitude (Debye)      :      1.61025

Rotational constants in cm-1:     4.254735     0.845538     0.817986
Rotational constants in MHz : 127553.743080 25348.604416 24522.589464

                             ****ORCA TERMINATED NORMALLY****
TOTAL RUN TIME: 0 days 0 hours 1 minutes 8 seconds 303 msec
