                         Program Version 4.1.2  - RELEASE  -
|  1> #Run DFT-D3 single point of the dimer
|  2> ! wB97X-D3 def2-TZVP TIGHTSCF CHELPG PMODEL PAL8
|  3>
|  4> %base "10-214_DFT_AB"
|  5>
|  6> %scf
|  7> MaxIter 1000
|  8> end
|  9>
| 10> * xyz 0 1
| 11>   C                      7.628669             7.630412             5.588731
| 12>   O                      8.218989             6.613648             6.386838
| 13>   H                      8.132977             7.093867             7.249354
| 14>   H                      8.419939             8.255814             5.241938
| 15>   H                      7.138700             7.150735             4.705548
| 16>   H                      6.885957             8.177862             6.120765
| 17>   C                      9.483842             9.346004             9.589253
| 18>   O                      8.387781             8.676984             8.933898
| 19>   H                      7.542698             9.153131             9.069171
| 20>   H                      10.021705            8.795723             10.367493
| 21>   H                      10.227128            9.549607             8.897891
| 22>   H                      9.104073             10.242843            10.093894
| 23> *
| 24>
| 25> #Run DFT-D3 single point of the molecule with dimer basis set
| 26> $new_job
| 27> %base "10-214_DFT_A"
| 28> ! wB97X-D3 def2-TZVP TIGHTSCF CHELPG PMODEL
| 29>
| 30> %scf
| 31> MaxIter 1000
| 32> end
| 33>
| 34> * xyz 0 1
| 35>   C                      7.628669             7.630412             5.588731
| 36>   O                      8.218989             6.613648             6.386838
| 37>   H                      8.132977             7.093867             7.249354
| 38>   H                      8.419939             8.255814             5.241938
| 39>   H                      7.138700             7.150735             4.705548
| 40>   H                      6.885957             8.177862             6.120765
| 41>   C                    : 9.483842             9.346004             9.589253
| 42>   O                    : 8.387781             8.676984             8.933898
| 43>   H                    : 7.542698             9.153131             9.069171
| 44>   H                    : 10.021705            8.795723             10.367493
| 45>   H                    : 10.227128            9.549607             8.897891
| 46>   H                    : 9.104073             10.242843            10.093894
| 47> *
| 48>
| 49> #Run DFT-D3 single point of the particle with dimer basis set
| 50> $new_job
| 51> %base "10-214_DFT_B"
| 52> ! wB97X-D3 def2-TZVP TIGHTSCF CHELPG PMODEL
| 53>
| 54> %scf
| 55> MaxIter 1000
| 56> end
| 57>
| 58> * xyz 0 1
| 59>   C                    : 7.628669             7.630412             5.588731
| 60>   O                    : 8.218989             6.613648             6.386838
| 61>   H                    : 8.132977             7.093867             7.249354
| 62>   H                    : 8.419939             8.255814             5.241938
| 63>   H                    : 7.138700             7.150735             4.705548
| 64>   H                    : 6.885957             8.177862             6.120765
| 65>   C                      9.483842             9.346004             9.589253
| 66>   O                      8.387781             8.676984             8.933898
| 67>   H                      7.542698             9.153131             9.069171
| 68>   H                      10.021705            8.795723             10.367493
| 69>   H                      10.227128            9.549607             8.897891
| 70>   H                      9.104073             10.242843            10.093894
| 71> *
| 72>
| 73>                          ****END OF INPUT****
 Total Charge           Charge          ....    0
 Multiplicity           Mult            ....    1
 Number of Electrons    NEL             ....   36
Dispersion correction           -0.001586625
FINAL SINGLE POINT ENERGY      -231.465611188934
Dispersion correction           -0.000206242
FINAL SINGLE POINT ENERGY      -115.729293844885

CARTESIAN COORDINATES (ANGSTROEM)
---------------------------------
  C      7.628669    7.630412    5.588731
  O      8.218989    6.613648    6.386838
  H      8.132977    7.093867    7.249354
  H      8.419939    8.255814    5.241938
  H      7.138700    7.150735    4.705548
  H      6.885957    8.177862    6.120765
  C      9.483842    9.346004    9.589253
  O      8.387781    8.676984    8.933898
  H      7.542698    9.153131    9.069171
  H     10.021705    8.795723   10.367493
  H     10.227128    9.549607    8.897891
  H      9.104073   10.242843   10.093894

 Multiplicity           Mult            ....    1
 Number of Electrons    NEL             ....   18
 Basis Dimension        Dim             ....  172

ORBITAL ENERGIES
----------------

  NO   OCC          E(Eh)            E(eV)
   0   2.0000     -19.230986      -523.3017
   1   2.0000     -10.310604      -280.5658
   2   2.0000      -1.122175       -30.5359
   3   2.0000      -0.802883       -21.8476
   4   2.0000      -0.606022       -16.4907
   5   2.0000      -0.541751       -14.7418
   6   2.0000      -0.529586       -14.4108
   7   2.0000      -0.429543       -11.6885
   8   2.0000      -0.373416       -10.1612
   9   0.0000       0.095487         2.5983
  10   0.0000       0.122973         3.3463
  11   0.0000       0.150015         4.0821
  12   0.0000       0.188125         5.1191
  13   0.0000       0.199716         5.4345

MULLIKEN ATOMIC CHARGES
-----------------------
   0 C :    0.002121
   1 O :   -0.000559
   2 H :   -0.005973
   3 H :   -0.000963
   4 H :   -0.000389
   5 H :   -0.004034
   6 C :   -0.157881
   7 O :   -0.483759
   8 H :    0.321245
   9 H :    0.105669
  10 H :    0.122558
  11 H :    0.101965
Sum of atomic charges:    0.0000000

LOEWDIN ATOMIC CHARGES
----------------------
   0 C :   -0.004917
   1 O :   -0.001291
   2 H :   -0.019433
   3 H :   -0.000346
   4 H :   -0.000079
   5 H :   -0.001543
   6 C :   -0.356264
   7 O :   -0.085522
   8 H :    0.179212
   9 H :    0.100276
  10 H :    0.089041
  11 H :    0.100866

  Mayer bond orders larger than 0.1
B(  6-C ,  7-O ) :   1.0070 B(  6-C ,  9-H ) :   0.9714 B(  6-C , 10-H ) :   0.9807
B(  6-C , 11-H ) :   0.9840 B(  7-O ,  8-H ) :   0.8926

Dispersion correction           -0.000262758
FINAL SINGLE POINT ENERGY      -115.729295775425

DIPOLE MOMENT
-------------
                                X             Y             Z
Electronic contribution:     -1.26437      -0.93168      -0.90386
Nuclear contribution   :      1.19341       1.54149       1.28169
                        -----------------------------------------
Total Dipole Moment    :     -0.07096       0.60981       0.37783
                        -----------------------------------------
Magnitude (a.u.)       :      0.72087
Magnitude (Debye)      :      1.83232

Rotational constants in cm-1:     4.508709     0.802863     0.766789
Rotational constants in MHz : 135167.694638 24069.230003 22987.755532

                             ****ORCA TERMINATED NORMALLY****
TOTAL RUN TIME: 0 days 0 hours 1 minutes 7 seconds 416 msec
