                         Program Version 4.1.2  - RELEASE  -
|  1> #Run DFT-D3 single point of the dimer
|  2> ! wB97X-D3 def2-TZVP TIGHTSCF CHELPG PMODEL PAL8
|  3>
|  4> %base "10-13_DFT_AB"
|  5>
|  6> %scf
|  7> MaxIter 1000
|  8> end
|  9>
| 10> * xyz 0 1
| 11>   C                      -8.336969            -4.600054            6.961619
| 12>   O                      -7.406997            -4.718792            5.976221
| 13>   H                      -6.557219            -5.068828            6.345814
| 14>   H                      -9.026821            -3.757067            6.800029
| 15>   H                      -9.068774            -5.485411            6.969378
| 16>   H                      -7.848887            -4.496328            7.950912
| 17>   C                      -8.948701            -0.439402            5.987862
| 18>   O                      -9.115364            -0.692188            4.565162
| 19>   H                      -9.844506            -1.290664            4.538672
| 20>   H                      -9.350161            0.522866             6.290320
| 21>   H                      -9.377751            -1.276286            6.651318
| 22>   H                      -7.851956            -0.349181            6.148207
| 23> *
| 24>
| 25> #Run DFT-D3 single point of the molecule with dimer basis set
| 26> $new_job
| 27> %base "10-13_DFT_A"
| 28> ! wB97X-D3 def2-TZVP TIGHTSCF CHELPG PMODEL
| 29>
| 30> %scf
| 31> MaxIter 1000
| 32> end
| 33>
| 34> * xyz 0 1
| 35>   C                      -8.336969            -4.600054            6.961619
| 36>   O                      -7.406997            -4.718792            5.976221
| 37>   H                      -6.557219            -5.068828            6.345814
| 38>   H                      -9.026821            -3.757067            6.800029
| 39>   H                      -9.068774            -5.485411            6.969378
| 40>   H                      -7.848887            -4.496328            7.950912
| 41>   C                    : -8.948701            -0.439402            5.987862
| 42>   O                    : -9.115364            -0.692188            4.565162
| 43>   H                    : -9.844506            -1.290664            4.538672
| 44>   H                    : -9.350161            0.522866             6.290320
| 45>   H                    : -9.377751            -1.276286            6.651318
| 46>   H                    : -7.851956            -0.349181            6.148207
| 47> *
| 48>
| 49> #Run DFT-D3 single point of the particle with dimer basis set
| 50> $new_job
| 51> %base "10-13_DFT_B"
| 52> ! wB97X-D3 def2-TZVP TIGHTSCF CHELPG PMODEL
| 53>
| 54> %scf
| 55> MaxIter 1000
| 56> end
| 57>
| 58> * xyz 0 1
| 59>   C                    : -8.336969            -4.600054            6.961619
| 60>   O                    : -7.406997            -4.718792            5.976221
| 61>   H                    : -6.557219            -5.068828            6.345814
| 62>   H                    : -9.026821            -3.757067            6.800029
| 63>   H                    : -9.068774            -5.485411            6.969378
| 64>   H                    : -7.848887            -4.496328            7.950912
| 65>   C                      -8.948701            -0.439402            5.987862
| 66>   O                      -9.115364            -0.692188            4.565162
| 67>   H                      -9.844506            -1.290664            4.538672
| 68>   H                      -9.350161            0.522866             6.290320
| 69>   H                      -9.377751            -1.276286            6.651318
| 70>   H                      -7.851956            -0.349181            6.148207
| 71> *
| 72>
| 73>                          ****END OF INPUT****
 Total Charge           Charge          ....    0
 Multiplicity           Mult            ....    1
 Number of Electrons    NEL             ....   36
Dispersion correction           -0.001305298
FINAL SINGLE POINT ENERGY      -231.462292492356
Dispersion correction           -0.000243979
FINAL SINGLE POINT ENERGY      -115.730608943349

CARTESIAN COORDINATES (ANGSTROEM)
---------------------------------
  C     -8.336969   -4.600054    6.961619
  O     -7.406997   -4.718792    5.976221
  H     -6.557219   -5.068828    6.345814
  H     -9.026821   -3.757067    6.800029
  H     -9.068774   -5.485411    6.969378
  H     -7.848887   -4.496328    7.950912
  C     -8.948701   -0.439402    5.987862
  O     -9.115364   -0.692188    4.565162
  H     -9.844506   -1.290664    4.538672
  H     -9.350161    0.522866    6.290320
  H     -9.377751   -1.276286    6.651318
  H     -7.851956   -0.349181    6.148207

 Multiplicity           Mult            ....    1
 Number of Electrons    NEL             ....   18
 Basis Dimension        Dim             ....  172

ORBITAL ENERGIES
----------------

  NO   OCC          E(Eh)            E(eV)
   0   2.0000     -19.231051      -523.3035
   1   2.0000     -10.323662      -280.9211
   2   2.0000      -1.131428       -30.7877
   3   2.0000      -0.791842       -21.5471
   4   2.0000      -0.603271       -16.4158
   5   2.0000      -0.535453       -14.5704
   6   2.0000      -0.518497       -14.1090
   7   2.0000      -0.443301       -12.0628
   8   2.0000      -0.375398       -10.2151
   9   0.0000       0.081151         2.2082
  10   0.0000       0.118742         3.2311
  11   0.0000       0.149371         4.0646
  12   0.0000       0.162325         4.4171
  13   0.0000       0.191630         5.2145

MULLIKEN ATOMIC CHARGES
-----------------------
   0 C :   -0.001059
   1 O :   -0.000066
   2 H :   -0.000010
   3 H :    0.002348
   4 H :    0.000051
   5 H :   -0.000076
   6 C :   -0.183832
   7 O :   -0.464898
   8 H :    0.310032
   9 H :    0.111948
  10 H :    0.106120
  11 H :    0.119441
Sum of atomic charges:    0.0000000

LOEWDIN ATOMIC CHARGES
----------------------
   0 C :   -0.001260
   1 O :   -0.000038
   2 H :   -0.000002
   3 H :   -0.002668
   4 H :   -0.000002
   5 H :   -0.000031
   6 C :   -0.366064
   7 O :   -0.097059
   8 H :    0.155854
   9 H :    0.093295
  10 H :    0.108610
  11 H :    0.109364

  Mayer bond orders larger than 0.1
B(  6-C ,  7-O ) :   1.0030 B(  6-C ,  9-H ) :   0.9711 B(  6-C , 10-H ) :   0.9744
B(  6-C , 11-H ) :   0.9796 B(  7-O ,  8-H ) :   0.9088

Dispersion correction           -0.000265857
FINAL SINGLE POINT ENERGY      -115.731608563577

DIPOLE MOMENT
-------------
                                X             Y             Z
Electronic contribution:     -0.18070      -0.22178      -1.83692
Nuclear contribution   :     -0.20498      -0.04923       2.39059
                        -----------------------------------------
Total Dipole Moment    :     -0.38567      -0.27101       0.55367
                        -----------------------------------------
Magnitude (a.u.)       :      0.72715
Magnitude (Debye)      :      1.84826

Rotational constants in cm-1:     4.126556     0.800113     0.763570
Rotational constants in MHz : 123711.024512 23986.795134 22891.250307

                             ****ORCA TERMINATED NORMALLY****
TOTAL RUN TIME: 0 days 0 hours 1 minutes 0 seconds 580 msec
