                         Program Version 4.1.2  - RELEASE  -
|  1> #Run DFT-D3 single point of the dimer
|  2> ! wB97X-D3 def2-TZVP TIGHTSCF CHELPG PMODEL PAL8
|  3>
|  4> %base "14-48_DFT_AB"
|  5>
|  6> %scf
|  7> MaxIter 1000
|  8> end
|  9>
| 10> * xyz 0 1
| 11>   C                      -3.823675            4.289136             -8.766144
| 12>   O                      -4.377185            5.267155             -9.559197
| 13>   H                      -4.576584            6.000657             -8.961619
| 14>   H                      -2.831440            4.544331             -8.466993
| 15>   H                      -4.245802            4.234392             -7.782589
| 16>   H                      -3.906820            3.308003             -9.284825
| 17>   C                      -8.023118            5.970073             -7.301579
| 18>   O                      -7.208899            5.748031             -6.199433
| 19>   H                      -7.582233            5.100643             -5.540227
| 20>   H                      -8.491772            6.984259             -7.204203
| 21>   H                      -7.494694            5.832346             -8.256467
| 22>   H                      -8.841849            5.215604             -7.301558
| 23> *
| 24>
| 25> #Run DFT-D3 single point of the molecule with dimer basis set
| 26> $new_job
| 27> %base "14-48_DFT_A"
| 28> ! wB97X-D3 def2-TZVP TIGHTSCF CHELPG PMODEL
| 29>
| 30> %scf
| 31> MaxIter 1000
| 32> end
| 33>
| 34> * xyz 0 1
| 35>   C                      -3.823675            4.289136             -8.766144
| 36>   O                      -4.377185            5.267155             -9.559197
| 37>   H                      -4.576584            6.000657             -8.961619
| 38>   H                      -2.831440            4.544331             -8.466993
| 39>   H                      -4.245802            4.234392             -7.782589
| 40>   H                      -3.906820            3.308003             -9.284825
| 41>   C                    : -8.023118            5.970073             -7.301579
| 42>   O                    : -7.208899            5.748031             -6.199433
| 43>   H                    : -7.582233            5.100643             -5.540227
| 44>   H                    : -8.491772            6.984259             -7.204203
| 45>   H                    : -7.494694            5.832346             -8.256467
| 46>   H                    : -8.841849            5.215604             -7.301558
| 47> *
| 48>
| 49> #Run DFT-D3 single point of the particle with dimer basis set
| 50> $new_job
| 51> %base "14-48_DFT_B"
| 52> ! wB97X-D3 def2-TZVP TIGHTSCF CHELPG PMODEL
| 53>
| 54> %scf
| 55> MaxIter 1000
| 56> end
| 57>
| 58> * xyz 0 1
| 59>   C                    : -3.823675            4.289136             -8.766144
| 60>   O                    : -4.377185            5.267155             -9.559197
| 61>   H                    : -4.576584            6.000657             -8.961619
| 62>   H                    : -2.831440            4.544331             -8.466993
| 63>   H                    : -4.245802            4.234392             -7.782589
| 64>   H                    : -3.906820            3.308003             -9.284825
| 65>   C                      -8.023118            5.970073             -7.301579
| 66>   O                      -7.208899            5.748031             -6.199433
| 67>   H                      -7.582233            5.100643             -5.540227
| 68>   H                      -8.491772            6.984259             -7.204203
| 69>   H                      -7.494694            5.832346             -8.256467
| 70>   H                      -8.841849            5.215604             -7.301558
| 71> *
| 72>
| 73>                          ****END OF INPUT****
 Total Charge           Charge          ....    0
 Multiplicity           Mult            ....    1
 Number of Electrons    NEL             ....   36
Dispersion correction           -0.001221193
FINAL SINGLE POINT ENERGY      -231.464031660823
Dispersion correction           -0.000209828
FINAL SINGLE POINT ENERGY      -115.730331599202

CARTESIAN COORDINATES (ANGSTROEM)
---------------------------------
  C     -3.823675    4.289136   -8.766144
  O     -4.377185    5.267155   -9.559197
  H     -4.576584    6.000657   -8.961619
  H     -2.831440    4.544331   -8.466993
  H     -4.245802    4.234392   -7.782589
  H     -3.906820    3.308003   -9.284825
  C     -8.023118    5.970073   -7.301579
  O     -7.208899    5.748031   -6.199433
  H     -7.582233    5.100643   -5.540227
  H     -8.491772    6.984259   -7.204203
  H     -7.494694    5.832346   -8.256467
  H     -8.841849    5.215604   -7.301558

 Multiplicity           Mult            ....    1
 Number of Electrons    NEL             ....   18
 Basis Dimension        Dim             ....  172

ORBITAL ENERGIES
----------------

  NO   OCC          E(Eh)            E(eV)
   0   2.0000     -19.229266      -523.2549
   1   2.0000     -10.316849      -280.7357
   2   2.0000      -1.133962       -30.8567
   3   2.0000      -0.788489       -21.4559
   4   2.0000      -0.611337       -16.6353
   5   2.0000      -0.544900       -14.8275
   6   2.0000      -0.527789       -14.3619
   7   2.0000      -0.417613       -11.3638
   8   2.0000      -0.370456       -10.0806
   9   0.0000       0.090527         2.4634
  10   0.0000       0.111606         3.0370
  11   0.0000       0.149801         4.0763
  12   0.0000       0.174819         4.7571
  13   0.0000       0.192194         5.2299

MULLIKEN ATOMIC CHARGES
-----------------------
   0 C :    0.001328
   1 O :   -0.000025
   2 H :    0.000212
   3 H :   -0.000077
   4 H :   -0.003145
   5 H :   -0.000003
   6 C :   -0.149521
   7 O :   -0.487701
   8 H :    0.325738
   9 H :    0.103588
  10 H :    0.113846
  11 H :    0.095760
Sum of atomic charges:    0.0000000

LOEWDIN ATOMIC CHARGES
----------------------
   0 C :   -0.000385
   1 O :   -0.000242
   2 H :   -0.000482
   3 H :   -0.000003
   4 H :   -0.001201
   5 H :   -0.000004
   6 C :   -0.409306
   7 O :   -0.081549
   8 H :    0.191709
   9 H :    0.102609
  10 H :    0.101957
  11 H :    0.096896

  Mayer bond orders larger than 0.1
B(  6-C ,  7-O ) :   1.0061 B(  6-C ,  9-H ) :   0.9745 B(  6-C , 10-H ) :   0.9673
B(  6-C , 11-H ) :   0.9895 B(  7-O ,  8-H ) :   0.8860

Dispersion correction           -0.000249417
FINAL SINGLE POINT ENERGY      -115.731431827063

DIPOLE MOMENT
-------------
                                X             Y             Z
Electronic contribution:      1.20924      -0.16648       1.32691
Nuclear contribution   :     -1.78035      -0.19823      -1.31616
                        -----------------------------------------
Total Dipole Moment    :     -0.57111      -0.36471       0.01075
                        -----------------------------------------
Magnitude (a.u.)       :      0.67771
Magnitude (Debye)      :      1.72260

Rotational constants in cm-1:     4.171598     0.842988     0.819702
Rotational constants in MHz : 125061.351092 25272.141259 24574.059620

                             ****ORCA TERMINATED NORMALLY****
TOTAL RUN TIME: 0 days 0 hours 1 minutes 1 seconds 970 msec
