                         Program Version 4.1.2  - RELEASE  -
|  1> #Run DFT-D3 single point of the dimer
|  2> ! wB97X-D3 def2-TZVP TIGHTSCF CHELPG PMODEL PAL8
|  3>
|  4> %base "22-55_DFT_AB"
|  5>
|  6> %scf
|  7> MaxIter 1000
|  8> end
|  9>
| 10> * xyz 0 1
| 11>   C                      5.509219             -5.286384            -2.629828
| 12>   O                      6.356411             -4.322206            -3.312786
| 13>   H                      5.806492             -3.659072            -3.753185
| 14>   H                      4.710320             -5.785805            -3.279945
| 15>   H                      6.199272             -6.152955            -2.356879
| 16>   H                      4.910016             -4.863904            -1.771712
| 17>   C                      2.297773             -6.764124            0.287503
| 18>   O                      2.256616             -5.790287            -0.759902
| 19>   H                      2.855951             -5.067472            -0.529458
| 20>   H                      1.602706             -7.583123            0.132265
| 21>   H                      3.277914             -7.233672            0.455721
| 22>   H                      1.867347             -6.276976            1.178452
| 23> *
| 24>
| 25> #Run DFT-D3 single point of the molecule with dimer basis set
| 26> $new_job
| 27> %base "22-55_DFT_A"
| 28> ! wB97X-D3 def2-TZVP TIGHTSCF CHELPG PMODEL
| 29>
| 30> %scf
| 31> MaxIter 1000
| 32> end
| 33>
| 34> * xyz 0 1
| 35>   C                      5.509219             -5.286384            -2.629828
| 36>   O                      6.356411             -4.322206            -3.312786
| 37>   H                      5.806492             -3.659072            -3.753185
| 38>   H                      4.710320             -5.785805            -3.279945
| 39>   H                      6.199272             -6.152955            -2.356879
| 40>   H                      4.910016             -4.863904            -1.771712
| 41>   C                    : 2.297773             -6.764124            0.287503
| 42>   O                    : 2.256616             -5.790287            -0.759902
| 43>   H                    : 2.855951             -5.067472            -0.529458
| 44>   H                    : 1.602706             -7.583123            0.132265
| 45>   H                    : 3.277914             -7.233672            0.455721
| 46>   H                    : 1.867347             -6.276976            1.178452
| 47> *
| 48>
| 49> #Run DFT-D3 single point of the particle with dimer basis set
| 50> $new_job
| 51> %base "22-55_DFT_B"
| 52> ! wB97X-D3 def2-TZVP TIGHTSCF CHELPG PMODEL
| 53>
| 54> %scf
| 55> MaxIter 1000
| 56> end
| 57>
| 58> * xyz 0 1
| 59>   C                    : 5.509219             -5.286384            -2.629828
| 60>   O                    : 6.356411             -4.322206            -3.312786
| 61>   H                    : 5.806492             -3.659072            -3.753185
| 62>   H                    : 4.710320             -5.785805            -3.279945
| 63>   H                    : 6.199272             -6.152955            -2.356879
| 64>   H                    : 4.910016             -4.863904            -1.771712
| 65>   C                      2.297773             -6.764124            0.287503
| 66>   O                      2.256616             -5.790287            -0.759902
| 67>   H                      2.855951             -5.067472            -0.529458
| 68>   H                      1.602706             -7.583123            0.132265
| 69>   H                      3.277914             -7.233672            0.455721
| 70>   H                      1.867347             -6.276976            1.178452
| 71> *
| 72>
| 73>                          ****END OF INPUT****
 Total Charge           Charge          ....    0
 Multiplicity           Mult            ....    1
 Number of Electrons    NEL             ....   36
Dispersion correction           -0.001419790
FINAL SINGLE POINT ENERGY      -231.464458371277
Dispersion correction           -0.000300120
FINAL SINGLE POINT ENERGY      -115.730014940631

CARTESIAN COORDINATES (ANGSTROEM)
---------------------------------
  C      5.509219   -5.286384   -2.629828
  O      6.356411   -4.322206   -3.312786
  H      5.806492   -3.659072   -3.753185
  H      4.710320   -5.785805   -3.279945
  H      6.199272   -6.152955   -2.356879
  H      4.910016   -4.863904   -1.771712
  C      2.297773   -6.764124    0.287503
  O      2.256616   -5.790287   -0.759902
  H      2.855951   -5.067472   -0.529458
  H      1.602706   -7.583123    0.132265
  H      3.277914   -7.233672    0.455721
  H      1.867347   -6.276976    1.178452

 Multiplicity           Mult            ....    1
 Number of Electrons    NEL             ....   18
 Basis Dimension        Dim             ....  172

ORBITAL ENERGIES
----------------

  NO   OCC          E(Eh)            E(eV)
   0   2.0000     -19.232009      -523.3296
   1   2.0000     -10.315162      -280.6898
   2   2.0000      -1.130098       -30.7515
   3   2.0000      -0.796925       -21.6854
   4   2.0000      -0.603142       -16.4123
   5   2.0000      -0.546344       -14.8668
   6   2.0000      -0.527534       -14.3549
   7   2.0000      -0.427915       -11.6442
   8   2.0000      -0.375828       -10.2268
   9   0.0000       0.082977         2.2579
  10   0.0000       0.126020         3.4292
  11   0.0000       0.150125         4.0851
  12   0.0000       0.167146         4.5483
  13   0.0000       0.193864         5.2753

MULLIKEN ATOMIC CHARGES
-----------------------
   0 C :    0.003997
   1 O :   -0.000175
   2 H :   -0.000072
   3 H :   -0.001582
   4 H :   -0.000203
   5 H :   -0.010444
   6 C :   -0.173113
   7 O :   -0.470551
   8 H :    0.319268
   9 H :    0.120827
  10 H :    0.106377
  11 H :    0.105673
Sum of atomic charges:    0.0000000

LOEWDIN ATOMIC CHARGES
----------------------
   0 C :   -0.003880
   1 O :   -0.000034
   2 H :   -0.000007
   3 H :   -0.001196
   4 H :   -0.000038
   5 H :   -0.004913
   6 C :   -0.378877
   7 O :   -0.086387
   8 H :    0.172430
   9 H :    0.106575
  10 H :    0.096521
  11 H :    0.099806

  Mayer bond orders larger than 0.1
B(  6-C ,  7-O ) :   1.0028 B(  6-C ,  9-H ) :   0.9720 B(  6-C , 10-H ) :   0.9667
B(  6-C , 11-H ) :   0.9874 B(  7-O ,  8-H ) :   0.8952

Dispersion correction           -0.000253330
FINAL SINGLE POINT ENERGY      -115.733689649324

DIPOLE MOMENT
-------------
                                X             Y             Z
Electronic contribution:     -0.05729       1.12282      -1.44766
Nuclear contribution   :      0.41519      -1.08374       2.02613
                        -----------------------------------------
Total Dipole Moment    :      0.35790       0.03908       0.57847
                        -----------------------------------------
Magnitude (a.u.)       :      0.68136
Magnitude (Debye)      :      1.73187

Rotational constants in cm-1:     4.333094     0.804976     0.787486
Rotational constants in MHz : 129902.896283 24132.573575 23608.223158

                             ****ORCA TERMINATED NORMALLY****
TOTAL RUN TIME: 0 days 0 hours 0 minutes 56 seconds 93 msec
