                         Program Version 4.1.2  - RELEASE  -
|  1> #Run DFT-D3 single point of the dimer
|  2> ! wB97X-D3 def2-TZVP TIGHTSCF CHELPG PMODEL PAL8
|  3>
|  4> %base "18-156_DFT_AB"
|  5>
|  6> %scf
|  7> MaxIter 1000
|  8> end
|  9>
| 10> * xyz 0 1
| 11>   C                      -2.485529            9.493496             4.658213
| 12>   O                      -1.428511            10.376600            4.866788
| 13>   H                      -0.688804            10.184425            4.315683
| 14>   H                      -3.403345            9.887249             5.169143
| 15>   H                      -2.769642            9.542290             3.660681
| 16>   H                      -2.396257            8.442123             4.870287
| 17>   C                      -1.039035            11.448119            8.283206
| 18>   O                      -1.007394            10.095715            7.774698
| 19>   H                      -1.032655            10.125533            6.817032
| 20>   H                      -0.811910            11.535558            9.390685
| 21>   H                      -0.388670            12.178366            7.758844
| 22>   H                      -2.051492            11.909911            8.203198
| 23> *
| 24>
| 25> #Run DFT-D3 single point of the molecule with dimer basis set
| 26> $new_job
| 27> %base "18-156_DFT_A"
| 28> ! wB97X-D3 def2-TZVP TIGHTSCF CHELPG PMODEL
| 29>
| 30> %scf
| 31> MaxIter 1000
| 32> end
| 33>
| 34> * xyz 0 1
| 35>   C                      -2.485529            9.493496             4.658213
| 36>   O                      -1.428511            10.376600            4.866788
| 37>   H                      -0.688804            10.184425            4.315683
| 38>   H                      -3.403345            9.887249             5.169143
| 39>   H                      -2.769642            9.542290             3.660681
| 40>   H                      -2.396257            8.442123             4.870287
| 41>   C                    : -1.039035            11.448119            8.283206
| 42>   O                    : -1.007394            10.095715            7.774698
| 43>   H                    : -1.032655            10.125533            6.817032
| 44>   H                    : -0.811910            11.535558            9.390685
| 45>   H                    : -0.388670            12.178366            7.758844
| 46>   H                    : -2.051492            11.909911            8.203198
| 47> *
| 48>
| 49> #Run DFT-D3 single point of the particle with dimer basis set
| 50> $new_job
| 51> %base "18-156_DFT_B"
| 52> ! wB97X-D3 def2-TZVP TIGHTSCF CHELPG PMODEL
| 53>
| 54> %scf
| 55> MaxIter 1000
| 56> end
| 57>
| 58> * xyz 0 1
| 59>   C                    : -2.485529            9.493496             4.658213
| 60>   O                    : -1.428511            10.376600            4.866788
| 61>   H                    : -0.688804            10.184425            4.315683
| 62>   H                    : -3.403345            9.887249             5.169143
| 63>   H                    : -2.769642            9.542290             3.660681
| 64>   H                    : -2.396257            8.442123             4.870287
| 65>   C                      -1.039035            11.448119            8.283206
| 66>   O                      -1.007394            10.095715            7.774698
| 67>   H                      -1.032655            10.125533            6.817032
| 68>   H                      -0.811910            11.535558            9.390685
| 69>   H                      -0.388670            12.178366            7.758844
| 70>   H                      -2.051492            11.909911            8.203198
| 71> *
| 72>
| 73>                          ****END OF INPUT****
 Total Charge           Charge          ....    0
 Multiplicity           Mult            ....    1
 Number of Electrons    NEL             ....   36
Dispersion correction           -0.001831559
FINAL SINGLE POINT ENERGY      -231.470535559003
Dispersion correction           -0.000247008
FINAL SINGLE POINT ENERGY      -115.729749565081

CARTESIAN COORDINATES (ANGSTROEM)
---------------------------------
  C     -2.485529    9.493496    4.658213
  O     -1.428511   10.376600    4.866788
  H     -0.688804   10.184425    4.315683
  H     -3.403345    9.887249    5.169143
  H     -2.769642    9.542290    3.660681
  H     -2.396257    8.442123    4.870287
  C     -1.039035   11.448119    8.283206
  O     -1.007394   10.095715    7.774698
  H     -1.032655   10.125533    6.817032
  H     -0.811910   11.535558    9.390685
  H     -0.388670   12.178366    7.758844
  H     -2.051492   11.909911    8.203198

 Multiplicity           Mult            ....    1
 Number of Electrons    NEL             ....   18
 Basis Dimension        Dim             ....  172

ORBITAL ENERGIES
----------------

  NO   OCC          E(Eh)            E(eV)
   0   2.0000     -19.236323      -523.4470
   1   2.0000     -10.325325      -280.9664
   2   2.0000      -1.129795       -30.7433
   3   2.0000      -0.794201       -21.6113
   4   2.0000      -0.610007       -16.5991
   5   2.0000      -0.528417       -14.3789
   6   2.0000      -0.522712       -14.2237
   7   2.0000      -0.437154       -11.8956
   8   2.0000      -0.375651       -10.2220
   9   0.0000       0.070417         1.9162
  10   0.0000       0.131202         3.5702
  11   0.0000       0.146562         3.9882
  12   0.0000       0.162281         4.4159
  13   0.0000       0.191994         5.2244

MULLIKEN ATOMIC CHARGES
-----------------------
   0 C :   -0.006234
   1 O :   -0.002560
   2 H :   -0.000514
   3 H :    0.000066
   4 H :   -0.000324
   5 H :    0.000610
   6 C :   -0.186211
   7 O :   -0.462896
   8 H :    0.314058
   9 H :    0.126715
  10 H :    0.110410
  11 H :    0.106879
Sum of atomic charges:   -0.0000000

LOEWDIN ATOMIC CHARGES
----------------------
   0 C :   -0.008266
   1 O :   -0.015664
   2 H :   -0.001387
   3 H :   -0.000701
   4 H :   -0.000197
   5 H :   -0.000375
   6 C :   -0.379563
   7 O :   -0.080945
   8 H :    0.174743
   9 H :    0.116914
  10 H :    0.097461
  11 H :    0.097980

  Mayer bond orders larger than 0.1
B(  6-C ,  7-O ) :   0.9957 B(  6-C ,  9-H ) :   0.9718 B(  6-C , 10-H ) :   0.9733
B(  6-C , 11-H ) :   0.9703 B(  7-O ,  8-H ) :   0.9065

Dispersion correction           -0.000287253
FINAL SINGLE POINT ENERGY      -115.732233622124

DIPOLE MOMENT
-------------
                                X             Y             Z
Electronic contribution:      0.13793      -1.90874      -0.55015
Nuclear contribution   :     -0.16445       2.48875       0.15968
                        -----------------------------------------
Total Dipole Moment    :     -0.02652       0.58001      -0.39047
                        -----------------------------------------
Magnitude (a.u.)       :      0.69970
Magnitude (Debye)      :      1.77850

Rotational constants in cm-1:     4.316790     0.784728     0.753838
Rotational constants in MHz : 129414.106246 23525.547780 22599.503065

                             ****ORCA TERMINATED NORMALLY****
TOTAL RUN TIME: 0 days 0 hours 1 minutes 7 seconds 513 msec
