                         Program Version 4.1.2  - RELEASE  -
|  1> #Run DFT-D3 single point of the dimer
|  2> ! wB97X-D3 def2-TZVP TIGHTSCF CHELPG PMODEL PAL8
|  3>
|  4> %base "9-60_DFT_AB"
|  5>
|  6> %scf
|  7> MaxIter 1000
|  8> end
|  9>
| 10> * xyz 0 1
| 11>   C                      8.125646             0.140868             0.205538
| 12>   O                      9.020085             0.985751             0.913121
| 13>   H                      8.829592             1.132982             1.835882
| 14>   H                      7.075105             0.521568             0.141395
| 15>   H                      8.639908             -0.057721            -0.755773
| 16>   H                      8.148752             -0.882839            0.640323
| 17>   C                      6.482871             0.175619             -3.124092
| 18>   O                      5.876064             1.479061             -3.086430
| 19>   H                      5.127288             1.460981             -2.485195
| 20>   H                      6.305677             -0.243266            -2.102666
| 21>   H                      5.921835             -0.472918            -3.836024
| 22>   H                      7.590044             0.153542             -3.268757
| 23> *
| 24>
| 25> #Run DFT-D3 single point of the molecule with dimer basis set
| 26> $new_job
| 27> %base "9-60_DFT_A"
| 28> ! wB97X-D3 def2-TZVP TIGHTSCF CHELPG PMODEL
| 29>
| 30> %scf
| 31> MaxIter 1000
| 32> end
| 33>
| 34> * xyz 0 1
| 35>   C                      8.125646             0.140868             0.205538
| 36>   O                      9.020085             0.985751             0.913121
| 37>   H                      8.829592             1.132982             1.835882
| 38>   H                      7.075105             0.521568             0.141395
| 39>   H                      8.639908             -0.057721            -0.755773
| 40>   H                      8.148752             -0.882839            0.640323
| 41>   C                    : 6.482871             0.175619             -3.124092
| 42>   O                    : 5.876064             1.479061             -3.086430
| 43>   H                    : 5.127288             1.460981             -2.485195
| 44>   H                    : 6.305677             -0.243266            -2.102666
| 45>   H                    : 5.921835             -0.472918            -3.836024
| 46>   H                    : 7.590044             0.153542             -3.268757
| 47> *
| 48>
| 49> #Run DFT-D3 single point of the particle with dimer basis set
| 50> $new_job
| 51> %base "9-60_DFT_B"
| 52> ! wB97X-D3 def2-TZVP TIGHTSCF CHELPG PMODEL
| 53>
| 54> %scf
| 55> MaxIter 1000
| 56> end
| 57>
| 58> * xyz 0 1
| 59>   C                    : 8.125646             0.140868             0.205538
| 60>   O                    : 9.020085             0.985751             0.913121
| 61>   H                    : 8.829592             1.132982             1.835882
| 62>   H                    : 7.075105             0.521568             0.141395
| 63>   H                    : 8.639908             -0.057721            -0.755773
| 64>   H                    : 8.148752             -0.882839            0.640323
| 65>   C                      6.482871             0.175619             -3.124092
| 66>   O                      5.876064             1.479061             -3.086430
| 67>   H                      5.127288             1.460981             -2.485195
| 68>   H                      6.305677             -0.243266            -2.102666
| 69>   H                      5.921835             -0.472918            -3.836024
| 70>   H                      7.590044             0.153542             -3.268757
| 71> *
| 72>
| 73>                          ****END OF INPUT****
 Total Charge           Charge          ....    0
 Multiplicity           Mult            ....    1
 Number of Electrons    NEL             ....   36
Dispersion correction           -0.001688325
FINAL SINGLE POINT ENERGY      -231.462253545409
Dispersion correction           -0.000272531
FINAL SINGLE POINT ENERGY      -115.731744332108

CARTESIAN COORDINATES (ANGSTROEM)
---------------------------------
  C      8.125646    0.140868    0.205538
  O      9.020085    0.985751    0.913121
  H      8.829592    1.132982    1.835882
  H      7.075105    0.521568    0.141395
  H      8.639908   -0.057721   -0.755773
  H      8.148752   -0.882839    0.640323
  C      6.482871    0.175619   -3.124092
  O      5.876064    1.479061   -3.086430
  H      5.127288    1.460981   -2.485195
  H      6.305677   -0.243266   -2.102666
  H      5.921835   -0.472918   -3.836024
  H      7.590044    0.153542   -3.268757

 Multiplicity           Mult            ....    1
 Number of Electrons    NEL             ....   18
 Basis Dimension        Dim             ....  172

ORBITAL ENERGIES
----------------

  NO   OCC          E(Eh)            E(eV)
   0   2.0000     -19.227794      -523.2149
   1   2.0000     -10.324041      -280.9314
   2   2.0000      -1.128007       -30.6946
   3   2.0000      -0.790734       -21.5170
   4   2.0000      -0.603887       -16.4326
   5   2.0000      -0.541374       -14.7315
   6   2.0000      -0.525974       -14.3125
   7   2.0000      -0.425108       -11.5678
   8   2.0000      -0.373055       -10.1514
   9   0.0000       0.081939         2.2297
  10   0.0000       0.117190         3.1889
  11   0.0000       0.144452         3.9307
  12   0.0000       0.170964         4.6522
  13   0.0000       0.189339         5.1522

MULLIKEN ATOMIC CHARGES
-----------------------
   0 C :    0.002187
   1 O :   -0.000090
   2 H :   -0.000002
   3 H :    0.000206
   4 H :   -0.003790
   5 H :    0.000276
   6 C :   -0.167268
   7 O :   -0.483108
   8 H :    0.317925
   9 H :    0.099622
  10 H :    0.108052
  11 H :    0.125989
Sum of atomic charges:   -0.0000000

LOEWDIN ATOMIC CHARGES
----------------------
   0 C :   -0.007248
   1 O :   -0.000027
   2 H :   -0.000014
   3 H :   -0.002402
   4 H :   -0.002706
   5 H :   -0.000141
   6 C :   -0.369398
   7 O :   -0.101143
   8 H :    0.167420
   9 H :    0.103897
  10 H :    0.099182
  11 H :    0.112581

  Mayer bond orders larger than 0.1
B(  6-C ,  7-O ) :   0.9885 B(  6-C ,  9-H ) :   0.9937 B(  6-C , 10-H ) :   0.9695
B(  6-C , 11-H ) :   0.9666 B(  7-O ,  8-H ) :   0.8980

Dispersion correction           -0.000249290
FINAL SINGLE POINT ENERGY      -115.730479226965

DIPOLE MOMENT
-------------
                                X             Y             Z
Electronic contribution:     -0.55100       1.72586      -0.19515
Nuclear contribution   :      0.32382      -2.27217       0.58849
                        -----------------------------------------
Total Dipole Moment    :     -0.22718      -0.54631       0.39334
                        -----------------------------------------
Magnitude (a.u.)       :      0.71047
Magnitude (Debye)      :      1.80588

Rotational constants in cm-1:     4.157530     0.803633     0.779676
Rotational constants in MHz : 124639.619746 24092.300296 23374.100520

                             ****ORCA TERMINATED NORMALLY****
TOTAL RUN TIME: 0 days 0 hours 0 minutes 46 seconds 207 msec
