                         Program Version 4.1.2  - RELEASE  -
|  1> #Run DFT-D3 single point of the dimer
|  2> ! wB97X-D3 def2-TZVP TIGHTSCF  CHELPG PAL8
|  3>
|  4> %base "146_charges"
|  5>
|  6> %scf
|  7> MaxIter 1000
|  8> end
|  9> %output
| 10>   Print[ P_Mayer ] 1
| 11>   Print[ P_NatPop ] 1
| 12>   Print[ P_Hirshfeld ] 1
| 13>   Print[ P_Mulliken ] 1
| 14>   Print [ P_Loewdin ] 1
| 15> end
| 16>
| 17> * xyz 0 1
| 18>   C                      4.220227             -7.686463            -5.175515
| 19>   O                      4.151204             -7.274569            -3.832959
| 20>   H                      4.124094             -7.980948            -3.165208
| 21>   H                      5.040927             -8.455337            -5.286606
| 22>   H                      3.338849             -8.177980            -5.549689
| 23>   H                      4.397397             -6.906907            -5.920032
| 24> *
| 25>
| 26>                          ****END OF INPUT****

CARTESIAN COORDINATES (ANGSTROEM)
---------------------------------
  C      4.220227   -7.686463   -5.175515
  O      4.151204   -7.274569   -3.832959
  H      4.124094   -7.980948   -3.165208
  H      5.040927   -8.455337   -5.286606
  H      3.338849   -8.177980   -5.549689
  H      4.397397   -6.906907   -5.920032

 Total Charge           Charge          ....    0
 Multiplicity           Mult            ....    1
 Number of Electrons    NEL             ....   18
 Basis Dimension        Dim             ....   86

ORBITAL ENERGIES
----------------

  NO   OCC          E(Eh)            E(eV)
   0   2.0000     -19.229751      -523.2681
   1   2.0000     -10.315976      -280.7120
   2   2.0000      -1.131427       -30.7877
   3   2.0000      -0.798650       -21.7324
   4   2.0000      -0.615210       -16.7407
   5   2.0000      -0.537438       -14.6244
   6   2.0000      -0.530712       -14.4414
   7   2.0000      -0.421362       -11.4658
   8   2.0000      -0.370467       -10.0809
   9   0.0000       0.114523         3.1163
  10   0.0000       0.149112         4.0575
  11   0.0000       0.204534         5.5657
  12   0.0000       0.210312         5.7229
  13   0.0000       0.224649         6.1130

MULLIKEN ATOMIC CHARGES
-----------------------
   0 C :   -0.150116
   1 O :   -0.492357
   2 H :    0.324902
   3 H :    0.093898
   4 H :    0.100921
   5 H :    0.122752
Sum of atomic charges:   -0.0000000

LOEWDIN ATOMIC CHARGES
----------------------
   0 C :   -0.393722
   1 O :   -0.080370
   2 H :    0.177231
   3 H :    0.099744
   4 H :    0.088472
   5 H :    0.108645

  Mayer bond orders larger than 0.1
B(  0-C ,  1-O ) :   0.9964 B(  0-C ,  3-H ) :   0.9863 B(  0-C ,  4-H ) :   0.9724
B(  0-C ,  5-H ) :   0.9694 B(  1-O ,  2-H ) :   0.8858

Dispersion correction           -0.000267713
FINAL SINGLE POINT ENERGY      -115.730416327232

DIPOLE MOMENT
-------------
                                X             Y             Z
Electronic contribution:     -0.14879       0.77995       1.74952
Nuclear contribution   :      0.14551      -1.40424      -1.86595
                        -----------------------------------------
Total Dipole Moment    :     -0.00328      -0.62429      -0.11643
                        -----------------------------------------
Magnitude (a.u.)       :      0.63507
Magnitude (Debye)      :      1.61421

Rotational constants in cm-1:     4.501948     0.816770     0.787612
Rotational constants in MHz : 134965.007394 24486.146186 23612.015103

                             ****ORCA TERMINATED NORMALLY****
TOTAL RUN TIME: 0 days 0 hours 0 minutes 40 seconds 547 msec
