                         Program Version 4.1.2  - RELEASE  -
|  1> #Run DFT-D3 single point of the dimer
|  2> ! wB97X-D3 def2-TZVP TIGHTSCF CHELPG PMODEL PAL8
|  3>
|  4> %base "11-62_DFT_AB"
|  5>
|  6> %scf
|  7> MaxIter 1000
|  8> end
|  9>
| 10> * xyz 0 1
| 11>   C                      0.029205             -3.305085            5.575801
| 12>   O                      -1.152025            -2.596991            5.492510
| 13>   H                      -0.980307            -2.042697            4.669758
| 14>   H                      0.889800             -2.641096            5.935441
| 15>   H                      -0.058726            -4.169142            6.203153
| 16>   H                      0.260555             -3.587206            4.550461
| 17>   C                      -3.808094            -2.544504            9.738684
| 18>   O                      -4.134341            -1.187484            9.578669
| 19>   H                      -3.576004            -0.608753            10.101867
| 20>   H                      -3.503093            -3.001236            8.795635
| 21>   H                      -3.025630            -2.661659            10.537215
| 22>   H                      -4.623174            -3.078293            10.157402
| 23> *
| 24>
| 25> #Run DFT-D3 single point of the molecule with dimer basis set
| 26> $new_job
| 27> %base "11-62_DFT_A"
| 28> ! wB97X-D3 def2-TZVP TIGHTSCF CHELPG PMODEL
| 29>
| 30> %scf
| 31> MaxIter 1000
| 32> end
| 33>
| 34> * xyz 0 1
| 35>   C                      0.029205             -3.305085            5.575801
| 36>   O                      -1.152025            -2.596991            5.492510
| 37>   H                      -0.980307            -2.042697            4.669758
| 38>   H                      0.889800             -2.641096            5.935441
| 39>   H                      -0.058726            -4.169142            6.203153
| 40>   H                      0.260555             -3.587206            4.550461
| 41>   C                    : -3.808094            -2.544504            9.738684
| 42>   O                    : -4.134341            -1.187484            9.578669
| 43>   H                    : -3.576004            -0.608753            10.101867
| 44>   H                    : -3.503093            -3.001236            8.795635
| 45>   H                    : -3.025630            -2.661659            10.537215
| 46>   H                    : -4.623174            -3.078293            10.157402
| 47> *
| 48>
| 49> #Run DFT-D3 single point of the particle with dimer basis set
| 50> $new_job
| 51> %base "11-62_DFT_B"
| 52> ! wB97X-D3 def2-TZVP TIGHTSCF CHELPG PMODEL
| 53>
| 54> %scf
| 55> MaxIter 1000
| 56> end
| 57>
| 58> * xyz 0 1
| 59>   C                    : 0.029205             -3.305085            5.575801
| 60>   O                    : -1.152025            -2.596991            5.492510
| 61>   H                    : -0.980307            -2.042697            4.669758
| 62>   H                    : 0.889800             -2.641096            5.935441
| 63>   H                    : -0.058726            -4.169142            6.203153
| 64>   H                    : 0.260555             -3.587206            4.550461
| 65>   C                      -3.808094            -2.544504            9.738684
| 66>   O                      -4.134341            -1.187484            9.578669
| 67>   H                      -3.576004            -0.608753            10.101867
| 68>   H                      -3.503093            -3.001236            8.795635
| 69>   H                      -3.025630            -2.661659            10.537215
| 70>   H                      -4.623174            -3.078293            10.157402
| 71> *
| 72>
| 73>                          ****END OF INPUT****
 Total Charge           Charge          ....    0
 Multiplicity           Mult            ....    1
 Number of Electrons    NEL             ....   36
Dispersion correction           -0.000643651
FINAL SINGLE POINT ENERGY      -231.460824289066
Dispersion correction           -0.000203093
FINAL SINGLE POINT ENERGY      -115.727930050474

CARTESIAN COORDINATES (ANGSTROEM)
---------------------------------
  C      0.029205   -3.305085    5.575801
  O     -1.152025   -2.596991    5.492510
  H     -0.980307   -2.042697    4.669758
  H      0.889800   -2.641096    5.935441
  H     -0.058726   -4.169142    6.203153
  H      0.260555   -3.587206    4.550461
  C     -3.808094   -2.544504    9.738684
  O     -4.134341   -1.187484    9.578669
  H     -3.576004   -0.608753   10.101867
  H     -3.503093   -3.001236    8.795635
  H     -3.025630   -2.661659   10.537215
  H     -4.623174   -3.078293   10.157402

 Multiplicity           Mult            ....    1
 Number of Electrons    NEL             ....   18
 Basis Dimension        Dim             ....  172

ORBITAL ENERGIES
----------------

  NO   OCC          E(Eh)            E(eV)
   0   2.0000     -19.226361      -523.1759
   1   2.0000     -10.312085      -280.6061
   2   2.0000      -1.135016       -30.8854
   3   2.0000      -0.797847       -21.7105
   4   2.0000      -0.612417       -16.6647
   5   2.0000      -0.546302       -14.8656
   6   2.0000      -0.528951       -14.3935
   7   2.0000      -0.422648       -11.5008
   8   2.0000      -0.373368       -10.1599
   9   0.0000       0.086592         2.3563
  10   0.0000       0.113031         3.0757
  11   0.0000       0.151190         4.1141
  12   0.0000       0.168617         4.5883
  13   0.0000       0.181522         4.9395

MULLIKEN ATOMIC CHARGES
-----------------------
   0 C :    0.000026
   1 O :   -0.000011
   2 H :    0.000001
   3 H :   -0.000003
   4 H :   -0.000042
   5 H :   -0.000003
   6 C :   -0.153807
   7 O :   -0.484228
   8 H :    0.320323
   9 H :    0.109586
  10 H :    0.095411
  11 H :    0.112747
Sum of atomic charges:   -0.0000000

LOEWDIN ATOMIC CHARGES
----------------------
   0 C :   -0.000038
   1 O :   -0.000035
   2 H :   -0.000001
   3 H :   -0.000001
   4 H :   -0.000018
   5 H :   -0.000001
   6 C :   -0.386852
   7 O :   -0.075258
   8 H :    0.168127
   9 H :    0.099440
  10 H :    0.101869
  11 H :    0.092767

  Mayer bond orders larger than 0.1
B(  6-C ,  7-O ) :   1.0070 B(  6-C ,  9-H ) :   0.9737 B(  6-C , 10-H ) :   0.9893
B(  6-C , 11-H ) :   0.9738 B(  7-O ,  8-H ) :   0.8961

Dispersion correction           -0.000248952
FINAL SINGLE POINT ENERGY      -115.732841272528

DIPOLE MOMENT
-------------
                                X             Y             Z
Electronic contribution:     -0.53091       1.69002      -0.38839
Nuclear contribution   :      1.02239      -1.85397       0.82108
                        -----------------------------------------
Total Dipole Moment    :      0.49149      -0.16394       0.43269
                        -----------------------------------------
Magnitude (a.u.)       :      0.67502
Magnitude (Debye)      :      1.71578

Rotational constants in cm-1:     4.358972     0.836294     0.805560
Rotational constants in MHz : 130678.703008 25071.470078 24150.091641

                             ****ORCA TERMINATED NORMALLY****
TOTAL RUN TIME: 0 days 0 hours 1 minutes 8 seconds 918 msec
