                         Program Version 4.1.2  - RELEASE  -
|  1> #Run DFT-D3 single point of the dimer
|  2> ! wB97X-D3 def2-TZVP TIGHTSCF CHELPG PMODEL PAL8
|  3>
|  4> %base "19-170_DFT_AB"
|  5>
|  6> %scf
|  7> MaxIter 1000
|  8> end
|  9>
| 10> * xyz 0 1
| 11>   C                      -10.939264           -11.029620           -6.785896
| 12>   O                      -10.979626           -10.564334           -8.071897
| 13>   H                      -10.156635           -10.681247           -8.556382
| 14>   H                      -10.295722           -10.518928           -6.094437
| 15>   H                      -11.920083           -11.030377           -6.213842
| 16>   H                      -10.482313           -12.048330           -6.688703
| 17>   C                      -7.054189            -10.202237           -8.208105
| 18>   O                      -7.807311            -10.115136           -7.076616
| 19>   H                      -8.441169            -9.383807            -7.207022
| 20>   H                      -6.824841            -9.282687            -8.695055
| 21>   H                      -6.087356            -10.612694           -8.096553
| 22>   H                      -7.525287            -10.779858           -9.050024
| 23> *
| 24>
| 25> #Run DFT-D3 single point of the molecule with dimer basis set
| 26> $new_job
| 27> %base "19-170_DFT_A"
| 28> ! wB97X-D3 def2-TZVP TIGHTSCF CHELPG PMODEL
| 29>
| 30> %scf
| 31> MaxIter 1000
| 32> end
| 33>
| 34> * xyz 0 1
| 35>   C                      -10.939264           -11.029620           -6.785896
| 36>   O                      -10.979626           -10.564334           -8.071897
| 37>   H                      -10.156635           -10.681247           -8.556382
| 38>   H                      -10.295722           -10.518928           -6.094437
| 39>   H                      -11.920083           -11.030377           -6.213842
| 40>   H                      -10.482313           -12.048330           -6.688703
| 41>   C                    : -7.054189            -10.202237           -8.208105
| 42>   O                    : -7.807311            -10.115136           -7.076616
| 43>   H                    : -8.441169            -9.383807            -7.207022
| 44>   H                    : -6.824841            -9.282687            -8.695055
| 45>   H                    : -6.087356            -10.612694           -8.096553
| 46>   H                    : -7.525287            -10.779858           -9.050024
| 47> *
| 48>
| 49> #Run DFT-D3 single point of the particle with dimer basis set
| 50> $new_job
| 51> %base "19-170_DFT_B"
| 52> ! wB97X-D3 def2-TZVP TIGHTSCF CHELPG PMODEL
| 53>
| 54> %scf
| 55> MaxIter 1000
| 56> end
| 57>
| 58> * xyz 0 1
| 59>   C                    : -10.939264           -11.029620           -6.785896
| 60>   O                    : -10.979626           -10.564334           -8.071897
| 61>   H                    : -10.156635           -10.681247           -8.556382
| 62>   H                    : -10.295722           -10.518928           -6.094437
| 63>   H                    : -11.920083           -11.030377           -6.213842
| 64>   H                    : -10.482313           -12.048330           -6.688703
| 65>   C                      -7.054189            -10.202237           -8.208105
| 66>   O                      -7.807311            -10.115136           -7.076616
| 67>   H                      -8.441169            -9.383807            -7.207022
| 68>   H                      -6.824841            -9.282687            -8.695055
| 69>   H                      -6.087356            -10.612694           -8.096553
| 70>   H                      -7.525287            -10.779858           -9.050024
| 71> *
| 72>
| 73>                          ****END OF INPUT****
 Total Charge           Charge          ....    0
 Multiplicity           Mult            ....    1
 Number of Electrons    NEL             ....   36
Dispersion correction           -0.002173494
FINAL SINGLE POINT ENERGY      -231.460510524437
Dispersion correction           -0.000260353
FINAL SINGLE POINT ENERGY      -115.728232078867

CARTESIAN COORDINATES (ANGSTROEM)
---------------------------------
  C    -10.939264  -11.029620   -6.785896
  O    -10.979626  -10.564334   -8.071897
  H    -10.156635  -10.681247   -8.556382
  H    -10.295722  -10.518928   -6.094437
  H    -11.920083  -11.030377   -6.213842
  H    -10.482313  -12.048330   -6.688703
  C     -7.054189  -10.202237   -8.208105
  O     -7.807311  -10.115136   -7.076616
  H     -8.441169   -9.383807   -7.207022
  H     -6.824841   -9.282687   -8.695055
  H     -6.087356  -10.612694   -8.096553
  H     -7.525287  -10.779858   -9.050024

 Multiplicity           Mult            ....    1
 Number of Electrons    NEL             ....   18
 Basis Dimension        Dim             ....  172

ORBITAL ENERGIES
----------------

  NO   OCC          E(Eh)            E(eV)
   0   2.0000     -19.238880      -523.5165
   1   2.0000     -10.304376      -280.3963
   2   2.0000      -1.154064       -31.4037
   3   2.0000      -0.799516       -21.7559
   4   2.0000      -0.627715       -17.0810
   5   2.0000      -0.544230       -14.8092
   6   2.0000      -0.535017       -14.5585
   7   2.0000      -0.432860       -11.7787
   8   2.0000      -0.372275       -10.1301
   9   0.0000       0.085413         2.3242
  10   0.0000       0.130436         3.5493
  11   0.0000       0.149373         4.0647
  12   0.0000       0.173544         4.7224
  13   0.0000       0.195466         5.3189

MULLIKEN ATOMIC CHARGES
-----------------------
   0 C :   -0.000241
   1 O :   -0.001073
   2 H :   -0.002303
   3 H :   -0.004702
   4 H :   -0.000382
   5 H :   -0.001068
   6 C :   -0.173590
   7 O :   -0.449676
   8 H :    0.325740
   9 H :    0.100037
  10 H :    0.121049
  11 H :    0.086209
Sum of atomic charges:    0.0000000

LOEWDIN ATOMIC CHARGES
----------------------
   0 C :   -0.011625
   1 O :   -0.001588
   2 H :   -0.004031
   3 H :   -0.005389
   4 H :   -0.000139
   5 H :   -0.001155
   6 C :   -0.434013
   7 O :   -0.019541
   8 H :    0.191255
   9 H :    0.089500
  10 H :    0.099588
  11 H :    0.097139

  Mayer bond orders larger than 0.1
B(  6-C ,  7-O ) :   1.0217 B(  6-C ,  9-H ) :   0.9813 B(  6-C , 10-H ) :   0.9757
B(  6-C , 11-H ) :   0.9747 B(  7-O ,  8-H ) :   0.8890

Dispersion correction           -0.000237946
FINAL SINGLE POINT ENERGY      -115.729720562402

DIPOLE MOMENT
-------------
                                X             Y             Z
Electronic contribution:     -0.94824       0.02240       1.81043
Nuclear contribution   :      0.86308       0.45210      -2.28902
                        -----------------------------------------
Total Dipole Moment    :     -0.08516       0.47450      -0.47859
                        -----------------------------------------
Magnitude (a.u.)       :      0.67930
Magnitude (Debye)      :      1.72664

Rotational constants in cm-1:     4.591827     0.864136     0.835887
Rotational constants in MHz : 137659.522848 25906.141683 25059.266142

                             ****ORCA TERMINATED NORMALLY****
TOTAL RUN TIME: 0 days 0 hours 1 minutes 36 seconds 257 msec
