                         Program Version 4.1.2  - RELEASE  -
|  1> #Run DFT-D3 single point of the dimer
|  2> ! wB97X-D3 def2-TZVP TIGHTSCF CHELPG PMODEL PAL8
|  3>
|  4> %base "8-154_DFT_AB"
|  5>
|  6> %scf
|  7> MaxIter 1000
|  8> end
|  9>
| 10> * xyz 0 1
| 11>   C                      3.429850             6.986127             -2.815014
| 12>   O                      3.051718             7.490879             -4.094373
| 13>   H                      3.233975             6.849611             -4.819645
| 14>   H                      2.761065             6.224084             -2.616282
| 15>   H                      4.472148             6.688260             -2.703500
| 16>   H                      3.189052             7.789298             -2.132348
| 17>   C                      3.362927             11.157361            -3.972100
| 18>   O                      4.487657             10.281833            -3.992414
| 19>   H                      4.173519             9.428726             -4.311482
| 20>   H                      3.703825             12.269431            -3.982698
| 21>   H                      2.690348             11.042286            -4.867255
| 22>   H                      2.719439             11.027690            -3.065363
| 23> *
| 24>
| 25> #Run DFT-D3 single point of the molecule with dimer basis set
| 26> $new_job
| 27> %base "8-154_DFT_A"
| 28> ! wB97X-D3 def2-TZVP TIGHTSCF CHELPG PMODEL
| 29>
| 30> %scf
| 31> MaxIter 1000
| 32> end
| 33>
| 34> * xyz 0 1
| 35>   C                      3.429850             6.986127             -2.815014
| 36>   O                      3.051718             7.490879             -4.094373
| 37>   H                      3.233975             6.849611             -4.819645
| 38>   H                      2.761065             6.224084             -2.616282
| 39>   H                      4.472148             6.688260             -2.703500
| 40>   H                      3.189052             7.789298             -2.132348
| 41>   C                    : 3.362927             11.157361            -3.972100
| 42>   O                    : 4.487657             10.281833            -3.992414
| 43>   H                    : 4.173519             9.428726             -4.311482
| 44>   H                    : 3.703825             12.269431            -3.982698
| 45>   H                    : 2.690348             11.042286            -4.867255
| 46>   H                    : 2.719439             11.027690            -3.065363
| 47> *
| 48>
| 49> #Run DFT-D3 single point of the particle with dimer basis set
| 50> $new_job
| 51> %base "8-154_DFT_B"
| 52> ! wB97X-D3 def2-TZVP TIGHTSCF CHELPG PMODEL
| 53>
| 54> %scf
| 55> MaxIter 1000
| 56> end
| 57>
| 58> * xyz 0 1
| 59>   C                    : 3.429850             6.986127             -2.815014
| 60>   O                    : 3.051718             7.490879             -4.094373
| 61>   H                    : 3.233975             6.849611             -4.819645
| 62>   H                    : 2.761065             6.224084             -2.616282
| 63>   H                    : 4.472148             6.688260             -2.703500
| 64>   H                    : 3.189052             7.789298             -2.132348
| 65>   C                      3.362927             11.157361            -3.972100
| 66>   O                      4.487657             10.281833            -3.992414
| 67>   H                      4.173519             9.428726             -4.311482
| 68>   H                      3.703825             12.269431            -3.982698
| 69>   H                      2.690348             11.042286            -4.867255
| 70>   H                      2.719439             11.027690            -3.065363
| 71> *
| 72>
| 73>                          ****END OF INPUT****
 Total Charge           Charge          ....    0
 Multiplicity           Mult            ....    1
 Number of Electrons    NEL             ....   36
Dispersion correction           -0.001871915
FINAL SINGLE POINT ENERGY      -231.472917565521
Dispersion correction           -0.000240913
FINAL SINGLE POINT ENERGY      -115.731615477419

CARTESIAN COORDINATES (ANGSTROEM)
---------------------------------
  C      3.429850    6.986127   -2.815014
  O      3.051718    7.490879   -4.094373
  H      3.233975    6.849611   -4.819645
  H      2.761065    6.224084   -2.616282
  H      4.472148    6.688260   -2.703500
  H      3.189052    7.789298   -2.132348
  C      3.362927   11.157361   -3.972100
  O      4.487657   10.281833   -3.992414
  H      4.173519    9.428726   -4.311482
  H      3.703825   12.269431   -3.982698
  H      2.690348   11.042286   -4.867255
  H      2.719439   11.027690   -3.065363

 Multiplicity           Mult            ....    1
 Number of Electrons    NEL             ....   18
 Basis Dimension        Dim             ....  172

ORBITAL ENERGIES
----------------

  NO   OCC          E(Eh)            E(eV)
   0   2.0000     -19.236505      -523.4519
   1   2.0000     -10.327889      -281.0362
   2   2.0000      -1.135807       -30.9069
   3   2.0000      -0.786990       -21.4151
   4   2.0000      -0.609699       -16.5908
   5   2.0000      -0.534820       -14.5532
   6   2.0000      -0.520853       -14.1731
   7   2.0000      -0.433251       -11.7894
   8   2.0000      -0.376492       -10.2449
   9   0.0000       0.071613         1.9487
  10   0.0000       0.130437         3.5494
  11   0.0000       0.143228         3.8974
  12   0.0000       0.164371         4.4728
  13   0.0000       0.189277         5.1505

MULLIKEN ATOMIC CHARGES
-----------------------
   0 C :   -0.005919
   1 O :   -0.001202
   2 H :   -0.000217
   3 H :   -0.000366
   4 H :    0.000776
   5 H :   -0.000579
   6 C :   -0.190234
   7 O :   -0.459673
   8 H :    0.317334
   9 H :    0.122435
  10 H :    0.109141
  11 H :    0.108504
Sum of atomic charges:   -0.0000000

LOEWDIN ATOMIC CHARGES
----------------------
   0 C :   -0.005737
   1 O :   -0.008627
   2 H :   -0.000726
   3 H :   -0.000149
   4 H :   -0.000232
   5 H :   -0.001129
   6 C :   -0.398587
   7 O :   -0.075656
   8 H :    0.174237
   9 H :    0.119770
  10 H :    0.099350
  11 H :    0.097485

  Mayer bond orders larger than 0.1
B(  6-C ,  7-O ) :   1.0021 B(  6-C ,  9-H ) :   0.9714 B(  6-C , 10-H ) :   0.9761
B(  6-C , 11-H ) :   0.9664 B(  7-O ,  8-H ) :   0.9004

Dispersion correction           -0.000272846
FINAL SINGLE POINT ENERGY      -115.733162280320

DIPOLE MOMENT
-------------
                                X             Y             Z
Electronic contribution:      1.60166      -1.11640       0.03059
Nuclear contribution   :     -2.23406       0.92808      -0.23946
                        -----------------------------------------
Total Dipole Moment    :     -0.63240      -0.18832      -0.20887
                        -----------------------------------------
Magnitude (a.u.)       :      0.69211
Magnitude (Debye)      :      1.75920

Rotational constants in cm-1:     4.100493     0.806455     0.776373
Rotational constants in MHz : 122929.690126 24176.926708 23275.064338

                             ****ORCA TERMINATED NORMALLY****
TOTAL RUN TIME: 0 days 0 hours 0 minutes 47 seconds 458 msec
