                         Program Version 4.1.2  - RELEASE  -
|  1> #Run DFT-D3 single point of the dimer
|  2> ! wB97X-D3 def2-TZVP TIGHTSCF CHELPG PMODEL PAL8
|  3>
|  4> %base "2-60_DFT_AB"
|  5>
|  6> %scf
|  7> MaxIter 1000
|  8> end
|  9>
| 10> * xyz 0 1
| 11>   C                      0.999467             -9.027304            -3.912011
| 12>   O                      2.186414             -9.130388            -3.186209
| 13>   H                      2.083546             -9.885682            -2.567494
| 14>   H                      0.950091             -9.809537            -4.582821
| 15>   H                      0.089306             -9.087572            -3.267712
| 16>   H                      0.963477             -8.154280            -4.573107
| 17>   C                      -1.319014            -5.669545            -6.013375
| 18>   O                      -0.766400            -6.470160            -7.025123
| 19>   H                      -1.405077            -6.444205            -7.758371
| 20>   H                      -1.474716            -4.663383            -6.328480
| 21>   H                      -2.305407            -5.954150            -5.652311
| 22>   H                      -0.687873            -5.720314            -5.177319
| 23> *
| 24>
| 25> #Run DFT-D3 single point of the molecule with dimer basis set
| 26> $new_job
| 27> %base "2-60_DFT_A"
| 28> ! wB97X-D3 def2-TZVP TIGHTSCF CHELPG PMODEL
| 29>
| 30> %scf
| 31> MaxIter 1000
| 32> end
| 33>
| 34> * xyz 0 1
| 35>   C                      0.999467             -9.027304            -3.912011
| 36>   O                      2.186414             -9.130388            -3.186209
| 37>   H                      2.083546             -9.885682            -2.567494
| 38>   H                      0.950091             -9.809537            -4.582821
| 39>   H                      0.089306             -9.087572            -3.267712
| 40>   H                      0.963477             -8.154280            -4.573107
| 41>   C                    : -1.319014            -5.669545            -6.013375
| 42>   O                    : -0.766400            -6.470160            -7.025123
| 43>   H                    : -1.405077            -6.444205            -7.758371
| 44>   H                    : -1.474716            -4.663383            -6.328480
| 45>   H                    : -2.305407            -5.954150            -5.652311
| 46>   H                    : -0.687873            -5.720314            -5.177319
| 47> *
| 48>
| 49> #Run DFT-D3 single point of the particle with dimer basis set
| 50> $new_job
| 51> %base "2-60_DFT_B"
| 52> ! wB97X-D3 def2-TZVP TIGHTSCF CHELPG PMODEL
| 53>
| 54> %scf
| 55> MaxIter 1000
| 56> end
| 57>
| 58> * xyz 0 1
| 59>   C                    : 0.999467             -9.027304            -3.912011
| 60>   O                    : 2.186414             -9.130388            -3.186209
| 61>   H                    : 2.083546             -9.885682            -2.567494
| 62>   H                    : 0.950091             -9.809537            -4.582821
| 63>   H                    : 0.089306             -9.087572            -3.267712
| 64>   H                    : 0.963477             -8.154280            -4.573107
| 65>   C                      -1.319014            -5.669545            -6.013375
| 66>   O                      -0.766400            -6.470160            -7.025123
| 67>   H                      -1.405077            -6.444205            -7.758371
| 68>   H                      -1.474716            -4.663383            -6.328480
| 69>   H                      -2.305407            -5.954150            -5.652311
| 70>   H                      -0.687873            -5.720314            -5.177319
| 71> *
| 72>
| 73>                          ****END OF INPUT****
 Total Charge           Charge          ....    0
 Multiplicity           Mult            ....    1
 Number of Electrons    NEL             ....   36
Dispersion correction           -0.001044379
FINAL SINGLE POINT ENERGY      -231.465376488689
Dispersion correction           -0.000223826
FINAL SINGLE POINT ENERGY      -115.730587360719

CARTESIAN COORDINATES (ANGSTROEM)
---------------------------------
  C      0.999467   -9.027304   -3.912011
  O      2.186414   -9.130388   -3.186209
  H      2.083546   -9.885682   -2.567494
  H      0.950091   -9.809537   -4.582821
  H      0.089306   -9.087572   -3.267712
  H      0.963477   -8.154280   -4.573107
  C     -1.319014   -5.669545   -6.013375
  O     -0.766400   -6.470160   -7.025123
  H     -1.405077   -6.444205   -7.758371
  H     -1.474716   -4.663383   -6.328480
  H     -2.305407   -5.954150   -5.652311
  H     -0.687873   -5.720314   -5.177319

 Multiplicity           Mult            ....    1
 Number of Electrons    NEL             ....   18
 Basis Dimension        Dim             ....  172

ORBITAL ENERGIES
----------------

  NO   OCC          E(Eh)            E(eV)
   0   2.0000     -19.233444      -523.3686
   1   2.0000     -10.303278      -280.3665
   2   2.0000      -1.139144       -30.9977
   3   2.0000      -0.800886       -21.7932
   4   2.0000      -0.617801       -16.8112
   5   2.0000      -0.541746       -14.7416
   6   2.0000      -0.526908       -14.3379
   7   2.0000      -0.443342       -12.0639
   8   2.0000      -0.372738       -10.1427
   9   0.0000       0.092100         2.5062
  10   0.0000       0.115834         3.1520
  11   0.0000       0.154639         4.2079
  12   0.0000       0.172231         4.6866
  13   0.0000       0.194637         5.2963

MULLIKEN ATOMIC CHARGES
-----------------------
   0 C :   -0.000436
   1 O :    0.000004
   2 H :   -0.000000
   3 H :   -0.000087
   4 H :    0.000003
   5 H :   -0.000384
   6 C :   -0.154305
   7 O :   -0.468831
   8 H :    0.312473
   9 H :    0.101354
  10 H :    0.089676
  11 H :    0.120534
Sum of atomic charges:    0.0000000

LOEWDIN ATOMIC CHARGES
----------------------
   0 C :   -0.000586
   1 O :   -0.000007
   2 H :   -0.000002
   3 H :   -0.000034
   4 H :   -0.000019
   5 H :   -0.000756
   6 C :   -0.388456
   7 O :   -0.069364
   8 H :    0.178358
   9 H :    0.089208
  10 H :    0.091841
  11 H :    0.099819

  Mayer bond orders larger than 0.1
B(  6-C ,  7-O ) :   1.0033 B(  6-C ,  9-H ) :   0.9808 B(  6-C , 10-H ) :   0.9743
B(  6-C , 11-H ) :   0.9776 B(  7-O ,  8-H ) :   0.8997

Dispersion correction           -0.000228042
FINAL SINGLE POINT ENERGY      -115.733773256741

DIPOLE MOMENT
-------------
                                X             Y             Z
Electronic contribution:      0.90711      -1.07747      -1.24194
Nuclear contribution   :     -1.52073       1.40911       1.18095
                        -----------------------------------------
Total Dipole Moment    :     -0.61362       0.33163      -0.06099
                        -----------------------------------------
Magnitude (a.u.)       :      0.70016
Magnitude (Debye)      :      1.77967

Rotational constants in cm-1:     4.490197     0.846907     0.809336
Rotational constants in MHz : 134612.712971 25389.633509 24263.273220

                             ****ORCA TERMINATED NORMALLY****
TOTAL RUN TIME: 0 days 0 hours 5 minutes 58 seconds 887 msec
