                         Program Version 4.1.2  - RELEASE  -
|  1> #Run DFT-D3 single point of the dimer
|  2> ! wB97X-D3 def2-TZVP TIGHTSCF CHELPG PMODEL PAL8
|  3>
|  4> %base "10-35_DFT_AB"
|  5>
|  6> %scf
|  7> MaxIter 1000
|  8> end
|  9>
| 10> * xyz 0 1
| 11>   C                      -0.107336            -6.761295            -6.715591
| 12>   O                      -0.840736            -7.925506            -6.762882
| 13>   H                      -0.625648            -8.537022            -6.098598
| 14>   H                      0.918834             -6.900276            -6.443235
| 15>   H                      -0.136207            -6.196261            -7.628469
| 16>   H                      -0.460480            -6.062073            -5.931819
| 17>   C                      3.153078             -7.645306            -3.207908
| 18>   O                      2.836734             -6.398947            -3.647315
| 19>   H                      3.203133             -6.282440            -4.503657
| 20>   H                      4.238093             -7.697912            -2.989028
| 21>   H                      2.670314             -7.902382            -2.312206
| 22>   H                      2.984515             -8.353490            -4.071394
| 23> *
| 24>
| 25> #Run DFT-D3 single point of the molecule with dimer basis set
| 26> $new_job
| 27> %base "10-35_DFT_A"
| 28> ! wB97X-D3 def2-TZVP TIGHTSCF CHELPG PMODEL
| 29>
| 30> %scf
| 31> MaxIter 1000
| 32> end
| 33>
| 34> * xyz 0 1
| 35>   C                      -0.107336            -6.761295            -6.715591
| 36>   O                      -0.840736            -7.925506            -6.762882
| 37>   H                      -0.625648            -8.537022            -6.098598
| 38>   H                      0.918834             -6.900276            -6.443235
| 39>   H                      -0.136207            -6.196261            -7.628469
| 40>   H                      -0.460480            -6.062073            -5.931819
| 41>   C                    : 3.153078             -7.645306            -3.207908
| 42>   O                    : 2.836734             -6.398947            -3.647315
| 43>   H                    : 3.203133             -6.282440            -4.503657
| 44>   H                    : 4.238093             -7.697912            -2.989028
| 45>   H                    : 2.670314             -7.902382            -2.312206
| 46>   H                    : 2.984515             -8.353490            -4.071394
| 47> *
| 48>
| 49> #Run DFT-D3 single point of the particle with dimer basis set
| 50> $new_job
| 51> %base "10-35_DFT_B"
| 52> ! wB97X-D3 def2-TZVP TIGHTSCF CHELPG PMODEL
| 53>
| 54> %scf
| 55> MaxIter 1000
| 56> end
| 57>
| 58> * xyz 0 1
| 59>   C                    : -0.107336            -6.761295            -6.715591
| 60>   O                    : -0.840736            -7.925506            -6.762882
| 61>   H                    : -0.625648            -8.537022            -6.098598
| 62>   H                    : 0.918834             -6.900276            -6.443235
| 63>   H                    : -0.136207            -6.196261            -7.628469
| 64>   H                    : -0.460480            -6.062073            -5.931819
| 65>   C                      3.153078             -7.645306            -3.207908
| 66>   O                      2.836734             -6.398947            -3.647315
| 67>   H                      3.203133             -6.282440            -4.503657
| 68>   H                      4.238093             -7.697912            -2.989028
| 69>   H                      2.670314             -7.902382            -2.312206
| 70>   H                      2.984515             -8.353490            -4.071394
| 71> *
| 72>
| 73>                          ****END OF INPUT****
 Total Charge           Charge          ....    0
 Multiplicity           Mult            ....    1
 Number of Electrons    NEL             ....   36
Dispersion correction           -0.001105441
FINAL SINGLE POINT ENERGY      -231.463228902430
Dispersion correction           -0.000241885
FINAL SINGLE POINT ENERGY      -115.732581591833

CARTESIAN COORDINATES (ANGSTROEM)
---------------------------------
  C     -0.107336   -6.761295   -6.715591
  O     -0.840736   -7.925506   -6.762882
  H     -0.625648   -8.537022   -6.098598
  H      0.918834   -6.900276   -6.443235
  H     -0.136207   -6.196261   -7.628469
  H     -0.460480   -6.062073   -5.931819
  C      3.153078   -7.645306   -3.207908
  O      2.836734   -6.398947   -3.647315
  H      3.203133   -6.282440   -4.503657
  H      4.238093   -7.697912   -2.989028
  H      2.670314   -7.902382   -2.312206
  H      2.984515   -8.353490   -4.071394

 Multiplicity           Mult            ....    1
 Number of Electrons    NEL             ....   18
 Basis Dimension        Dim             ....  172

ORBITAL ENERGIES
----------------

  NO   OCC          E(Eh)            E(eV)
   0   2.0000     -19.226619      -523.1829
   1   2.0000     -10.309331      -280.5312
   2   2.0000      -1.158778       -31.5320
   3   2.0000      -0.795864       -21.6565
   4   2.0000      -0.622215       -16.9313
   5   2.0000      -0.551122       -14.9968
   6   2.0000      -0.539877       -14.6908
   7   2.0000      -0.432483       -11.7685
   8   2.0000      -0.365132        -9.9358
   9   0.0000       0.082609         2.2479
  10   0.0000       0.122721         3.3394
  11   0.0000       0.153224         4.1694
  12   0.0000       0.172203         4.6859
  13   0.0000       0.192040         5.2257

MULLIKEN ATOMIC CHARGES
-----------------------
   0 C :    0.002818
   1 O :   -0.000001
   2 H :   -0.000040
   3 H :   -0.005538
   4 H :   -0.000291
   5 H :   -0.000757
   6 C :   -0.155513
   7 O :   -0.456462
   8 H :    0.315535
   9 H :    0.089872
  10 H :    0.119520
  11 H :    0.090856
Sum of atomic charges:    0.0000000

LOEWDIN ATOMIC CHARGES
----------------------
   0 C :   -0.001145
   1 O :   -0.000025
   2 H :   -0.000026
   3 H :   -0.001742
   4 H :   -0.000019
   5 H :   -0.000316
   6 C :   -0.421299
   7 O :   -0.026544
   8 H :    0.161038
   9 H :    0.093248
  10 H :    0.097099
  11 H :    0.099731

  Mayer bond orders larger than 0.1
B(  6-C ,  7-O ) :   1.0023 B(  6-C ,  9-H ) :   0.9813 B(  6-C , 10-H ) :   0.9709
B(  6-C , 11-H ) :   0.9874 B(  7-O ,  8-H ) :   0.9004

Dispersion correction           -0.000201219
FINAL SINGLE POINT ENERGY      -115.729946982326

DIPOLE MOMENT
-------------
                                X             Y             Z
Electronic contribution:     -0.63624       1.67589      -0.32895
Nuclear contribution   :      0.98692      -2.04339      -0.03616
                        -----------------------------------------
Total Dipole Moment    :      0.35068      -0.36750      -0.36511
                        -----------------------------------------
Magnitude (a.u.)       :      0.62557
Magnitude (Debye)      :      1.59007

Rotational constants in cm-1:     4.283478     0.896305     0.857074
Rotational constants in MHz : 128415.440460 26870.556181 25694.419033

                             ****ORCA TERMINATED NORMALLY****
TOTAL RUN TIME: 0 days 0 hours 1 minutes 5 seconds 336 msec
