                         Program Version 4.1.2  - RELEASE  -
|  1> #Run DFT-D3 single point of the dimer
|  2> ! wB97X-D3 def2-TZVP TIGHTSCF CHELPG PMODEL PAL8
|  3>
|  4> %base "21-74_DFT_AB"
|  5>
|  6> %scf
|  7> MaxIter 1000
|  8> end
|  9>
| 10> * xyz 0 1
| 11>   C                      3.842016             6.695679             2.250202
| 12>   O                      2.873278             7.246164             1.343030
| 13>   H                      3.031708             6.919436             0.425400
| 14>   H                      3.817862             5.565453             2.173094
| 15>   H                      4.822762             6.953849             1.878522
| 16>   H                      3.663193             7.138407             3.241986
| 17>   C                      3.339832             1.269287             2.736079
| 18>   O                      4.575399             1.102023             2.148196
| 19>   H                      4.625842             1.343581             1.242459
| 20>   H                      2.622136             0.497492             2.359557
| 21>   H                      3.320272             1.094356             3.836294
| 22>   H                      2.955265             2.273138             2.563413
| 23> *
| 24>
| 25> #Run DFT-D3 single point of the molecule with dimer basis set
| 26> $new_job
| 27> %base "21-74_DFT_A"
| 28> ! wB97X-D3 def2-TZVP TIGHTSCF CHELPG PMODEL
| 29>
| 30> %scf
| 31> MaxIter 1000
| 32> end
| 33>
| 34> * xyz 0 1
| 35>   C                      3.842016             6.695679             2.250202
| 36>   O                      2.873278             7.246164             1.343030
| 37>   H                      3.031708             6.919436             0.425400
| 38>   H                      3.817862             5.565453             2.173094
| 39>   H                      4.822762             6.953849             1.878522
| 40>   H                      3.663193             7.138407             3.241986
| 41>   C                    : 3.339832             1.269287             2.736079
| 42>   O                    : 4.575399             1.102023             2.148196
| 43>   H                    : 4.625842             1.343581             1.242459
| 44>   H                    : 2.622136             0.497492             2.359557
| 45>   H                    : 3.320272             1.094356             3.836294
| 46>   H                    : 2.955265             2.273138             2.563413
| 47> *
| 48>
| 49> #Run DFT-D3 single point of the particle with dimer basis set
| 50> $new_job
| 51> %base "21-74_DFT_B"
| 52> ! wB97X-D3 def2-TZVP TIGHTSCF CHELPG PMODEL
| 53>
| 54> %scf
| 55> MaxIter 1000
| 56> end
| 57>
| 58> * xyz 0 1
| 59>   C                    : 3.842016             6.695679             2.250202
| 60>   O                    : 2.873278             7.246164             1.343030
| 61>   H                    : 3.031708             6.919436             0.425400
| 62>   H                    : 3.817862             5.565453             2.173094
| 63>   H                    : 4.822762             6.953849             1.878522
| 64>   H                    : 3.663193             7.138407             3.241986
| 65>   C                      3.339832             1.269287             2.736079
| 66>   O                      4.575399             1.102023             2.148196
| 67>   H                      4.625842             1.343581             1.242459
| 68>   H                      2.622136             0.497492             2.359557
| 69>   H                      3.320272             1.094356             3.836294
| 70>   H                      2.955265             2.273138             2.563413
| 71> *
| 72>
| 73>                          ****END OF INPUT****
 Total Charge           Charge          ....    0
 Multiplicity           Mult            ....    1
 Number of Electrons    NEL             ....   36
Dispersion correction           -0.000730951
FINAL SINGLE POINT ENERGY      -231.464704573026
Dispersion correction           -0.000238932
FINAL SINGLE POINT ENERGY      -115.731952597422

CARTESIAN COORDINATES (ANGSTROEM)
---------------------------------
  C      3.842016    6.695679    2.250202
  O      2.873278    7.246164    1.343030
  H      3.031708    6.919436    0.425400
  H      3.817862    5.565453    2.173094
  H      4.822762    6.953849    1.878522
  H      3.663193    7.138407    3.241986
  C      3.339832    1.269287    2.736079
  O      4.575399    1.102023    2.148196
  H      4.625842    1.343581    1.242459
  H      2.622136    0.497492    2.359557
  H      3.320272    1.094356    3.836294
  H      2.955265    2.273138    2.563413

 Multiplicity           Mult            ....    1
 Number of Electrons    NEL             ....   18
 Basis Dimension        Dim             ....  172

ORBITAL ENERGIES
----------------

  NO   OCC          E(Eh)            E(eV)
   0   2.0000     -19.225621      -523.1557
   1   2.0000     -10.315228      -280.6916
   2   2.0000      -1.146841       -31.2071
   3   2.0000      -0.797627       -21.7045
   4   2.0000      -0.619752       -16.8643
   5   2.0000      -0.546951       -14.8833
   6   2.0000      -0.532403       -14.4874
   7   2.0000      -0.418618       -11.3912
   8   2.0000      -0.370968       -10.0945
   9   0.0000       0.083432         2.2703
  10   0.0000       0.119068         3.2400
  11   0.0000       0.152409         4.1473
  12   0.0000       0.164014         4.4630
  13   0.0000       0.182812         4.9746

MULLIKEN ATOMIC CHARGES
-----------------------
   0 C :   -0.000498
   1 O :    0.000016
   2 H :    0.000004
   3 H :    0.000796
   4 H :    0.000011
   5 H :    0.000017
   6 C :   -0.151134
   7 O :   -0.479776
   8 H :    0.318452
   9 H :    0.095055
  10 H :    0.118038
  11 H :    0.099020
Sum of atomic charges:   -0.0000000

LOEWDIN ATOMIC CHARGES
----------------------
   0 C :   -0.000085
   1 O :   -0.000001
   2 H :   -0.000000
   3 H :   -0.000164
   4 H :   -0.000001
   5 H :   -0.000001
   6 C :   -0.413396
   7 O :   -0.044123
   8 H :    0.157188
   9 H :    0.096542
  10 H :    0.112391
  11 H :    0.091649

  Mayer bond orders larger than 0.1
B(  6-C ,  7-O ) :   0.9977 B(  6-C ,  9-H ) :   0.9812 B(  6-C , 10-H ) :   0.9683
B(  6-C , 11-H ) :   0.9785 B(  7-O ,  8-H ) :   0.8946

Dispersion correction           -0.000245719
FINAL SINGLE POINT ENERGY      -115.732575767677

DIPOLE MOMENT
-------------
                                X             Y             Z
Electronic contribution:      1.73125      -0.18625      -0.68808
Nuclear contribution   :     -2.17145       0.41990       0.32461
                        -----------------------------------------
Total Dipole Moment    :     -0.44020       0.23365      -0.36347
                        -----------------------------------------
Magnitude (a.u.)       :      0.61683
Magnitude (Debye)      :      1.56786

Rotational constants in cm-1:     4.415139     0.846643     0.824924
Rotational constants in MHz : 132362.537887 25381.727391 24730.600995

                             ****ORCA TERMINATED NORMALLY****
TOTAL RUN TIME: 0 days 0 hours 1 minutes 1 seconds 175 msec
