                         Program Version 4.1.2  - RELEASE  -
|  1> #Run DFT-D3 single point of the dimer
|  2> ! wB97X-D3 def2-TZVP TIGHTSCF CHELPG PMODEL PAL8
|  3>
|  4> %base "17-96_DFT_AB"
|  5>
|  6> %scf
|  7> MaxIter 1000
|  8> end
|  9>
| 10> * xyz 0 1
| 11>   C                      6.352193             4.195746             -4.190666
| 12>   O                      5.100575             4.500113             -4.616961
| 13>   H                      4.495087             4.304367             -3.860152
| 14>   H                      7.093230             4.700914             -4.815245
| 15>   H                      6.551793             4.589563             -3.174605
| 16>   H                      6.623159             3.143777             -4.209572
| 17>   C                      7.302571             4.012486             -8.007550
| 18>   O                      7.142943             4.331260             -9.334639
| 19>   H                      7.873511             3.952714             -9.854235
| 20>   H                      6.618049             4.719513             -7.414799
| 21>   H                      6.986579             2.965346             -7.801783
| 22>   H                      8.339281             4.107312             -7.628392
| 23> *
| 24>
| 25> #Run DFT-D3 single point of the molecule with dimer basis set
| 26> $new_job
| 27> %base "17-96_DFT_A"
| 28> ! wB97X-D3 def2-TZVP TIGHTSCF CHELPG PMODEL
| 29>
| 30> %scf
| 31> MaxIter 1000
| 32> end
| 33>
| 34> * xyz 0 1
| 35>   C                      6.352193             4.195746             -4.190666
| 36>   O                      5.100575             4.500113             -4.616961
| 37>   H                      4.495087             4.304367             -3.860152
| 38>   H                      7.093230             4.700914             -4.815245
| 39>   H                      6.551793             4.589563             -3.174605
| 40>   H                      6.623159             3.143777             -4.209572
| 41>   C                    : 7.302571             4.012486             -8.007550
| 42>   O                    : 7.142943             4.331260             -9.334639
| 43>   H                    : 7.873511             3.952714             -9.854235
| 44>   H                    : 6.618049             4.719513             -7.414799
| 45>   H                    : 6.986579             2.965346             -7.801783
| 46>   H                    : 8.339281             4.107312             -7.628392
| 47> *
| 48>
| 49> #Run DFT-D3 single point of the particle with dimer basis set
| 50> $new_job
| 51> %base "17-96_DFT_B"
| 52> ! wB97X-D3 def2-TZVP TIGHTSCF CHELPG PMODEL
| 53>
| 54> %scf
| 55> MaxIter 1000
| 56> end
| 57>
| 58> * xyz 0 1
| 59>   C                    : 6.352193             4.195746             -4.190666
| 60>   O                    : 5.100575             4.500113             -4.616961
| 61>   H                    : 4.495087             4.304367             -3.860152
| 62>   H                    : 7.093230             4.700914             -4.815245
| 63>   H                    : 6.551793             4.589563             -3.174605
| 64>   H                    : 6.623159             3.143777             -4.209572
| 65>   C                      7.302571             4.012486             -8.007550
| 66>   O                      7.142943             4.331260             -9.334639
| 67>   H                      7.873511             3.952714             -9.854235
| 68>   H                      6.618049             4.719513             -7.414799
| 69>   H                      6.986579             2.965346             -7.801783
| 70>   H                      8.339281             4.107312             -7.628392
| 71> *
| 72>
| 73>                          ****END OF INPUT****
 Total Charge           Charge          ....    0
 Multiplicity           Mult            ....    1
 Number of Electrons    NEL             ....   36
Dispersion correction           -0.001496795
FINAL SINGLE POINT ENERGY      -231.468030882812
Dispersion correction           -0.000226117
FINAL SINGLE POINT ENERGY      -115.733242177360

CARTESIAN COORDINATES (ANGSTROEM)
---------------------------------
  C      6.352193    4.195746   -4.190666
  O      5.100575    4.500113   -4.616961
  H      4.495087    4.304367   -3.860152
  H      7.093230    4.700914   -4.815245
  H      6.551793    4.589563   -3.174605
  H      6.623159    3.143777   -4.209572
  C      7.302571    4.012486   -8.007550
  O      7.142943    4.331260   -9.334639
  H      7.873511    3.952714   -9.854235
  H      6.618049    4.719513   -7.414799
  H      6.986579    2.965346   -7.801783
  H      8.339281    4.107312   -7.628392

 Multiplicity           Mult            ....    1
 Number of Electrons    NEL             ....   18
 Basis Dimension        Dim             ....  172

ORBITAL ENERGIES
----------------

  NO   OCC          E(Eh)            E(eV)
   0   2.0000     -19.232188      -523.3344
   1   2.0000     -10.318667      -280.7852
   2   2.0000      -1.146985       -31.2110
   3   2.0000      -0.786835       -21.4109
   4   2.0000      -0.619073       -16.8458
   5   2.0000      -0.540846       -14.7172
   6   2.0000      -0.525832       -14.3086
   7   2.0000      -0.428775       -11.6676
   8   2.0000      -0.370070       -10.0701
   9   0.0000       0.084372         2.2959
  10   0.0000       0.113967         3.1012
  11   0.0000       0.149776         4.0756
  12   0.0000       0.166404         4.5281
  13   0.0000       0.184884         5.0310

MULLIKEN ATOMIC CHARGES
-----------------------
   0 C :    0.000958
   1 O :    0.000008
   2 H :    0.000011
   3 H :   -0.002061
   4 H :    0.000022
   5 H :   -0.000072
   6 C :   -0.151385
   7 O :   -0.463817
   8 H :    0.317330
   9 H :    0.112804
  10 H :    0.090182
  11 H :    0.096020
Sum of atomic charges:   -0.0000000

LOEWDIN ATOMIC CHARGES
----------------------
   0 C :   -0.002883
   1 O :   -0.000464
   2 H :   -0.000020
   3 H :   -0.002349
   4 H :   -0.000014
   5 H :   -0.000136
   6 C :   -0.426964
   7 O :   -0.053219
   8 H :    0.179227
   9 H :    0.119584
  10 H :    0.093533
  11 H :    0.093704

  Mayer bond orders larger than 0.1
B(  6-C ,  7-O ) :   1.0118 B(  6-C ,  9-H ) :   0.9727 B(  6-C , 10-H ) :   0.9717
B(  6-C , 11-H ) :   0.9733 B(  7-O ,  8-H ) :   0.8930

Dispersion correction           -0.000242261
FINAL SINGLE POINT ENERGY      -115.733877380607

DIPOLE MOMENT
-------------
                                X             Y             Z
Electronic contribution:     -0.25859       0.49580      -1.78993
Nuclear contribution   :      0.79557      -0.84499       1.92848
                        -----------------------------------------
Total Dipole Moment    :      0.53698      -0.34920       0.13855
                        -----------------------------------------
Magnitude (a.u.)       :      0.65535
Magnitude (Debye)      :      1.66576

Rotational constants in cm-1:     4.117589     0.864804     0.827061
Rotational constants in MHz : 123442.199478 25926.179768 24794.670467

                             ****ORCA TERMINATED NORMALLY****
TOTAL RUN TIME: 0 days 0 hours 1 minutes 8 seconds 307 msec
