                         Program Version 4.1.2  - RELEASE  -
|  1> #Run DFT-D3 single point of the dimer
|  2> ! wB97X-D3 def2-TZVP TIGHTSCF CHELPG PMODEL PAL8
|  3>
|  4> %base "9-174_DFT_AB"
|  5>
|  6> %scf
|  7> MaxIter 1000
|  8> end
|  9>
| 10> * xyz 0 1
| 11>   C                      -10.846831           6.292560             -5.177887
| 12>   O                      -10.666266           5.180192             -5.989174
| 13>   H                      -9.727146            5.190849             -6.148971
| 14>   H                      -10.607147           7.196297             -5.730053
| 15>   H                      -11.874322           6.440431             -4.953512
| 16>   H                      -10.417366           6.159813             -4.139783
| 17>   C                      -7.709008            5.724465             -7.041858
| 18>   O                      -7.893009            5.397264             -5.706339
| 19>   H                      -7.470461            4.539697             -5.561548
| 20>   H                      -8.301419            5.232286             -7.798056
| 21>   H                      -7.925926            6.759924             -7.241924
| 22>   H                      -6.721848            5.612300             -7.397646
| 23> *
| 24>
| 25> #Run DFT-D3 single point of the molecule with dimer basis set
| 26> $new_job
| 27> %base "9-174_DFT_A"
| 28> ! wB97X-D3 def2-TZVP TIGHTSCF CHELPG PMODEL
| 29>
| 30> %scf
| 31> MaxIter 1000
| 32> end
| 33>
| 34> * xyz 0 1
| 35>   C                      -10.846831           6.292560             -5.177887
| 36>   O                      -10.666266           5.180192             -5.989174
| 37>   H                      -9.727146            5.190849             -6.148971
| 38>   H                      -10.607147           7.196297             -5.730053
| 39>   H                      -11.874322           6.440431             -4.953512
| 40>   H                      -10.417366           6.159813             -4.139783
| 41>   C                    : -7.709008            5.724465             -7.041858
| 42>   O                    : -7.893009            5.397264             -5.706339
| 43>   H                    : -7.470461            4.539697             -5.561548
| 44>   H                    : -8.301419            5.232286             -7.798056
| 45>   H                    : -7.925926            6.759924             -7.241924
| 46>   H                    : -6.721848            5.612300             -7.397646
| 47> *
| 48>
| 49> #Run DFT-D3 single point of the particle with dimer basis set
| 50> $new_job
| 51> %base "9-174_DFT_B"
| 52> ! wB97X-D3 def2-TZVP TIGHTSCF CHELPG PMODEL
| 53>
| 54> %scf
| 55> MaxIter 1000
| 56> end
| 57>
| 58> * xyz 0 1
| 59>   C                    : -10.846831           6.292560             -5.177887
| 60>   O                    : -10.666266           5.180192             -5.989174
| 61>   H                    : -9.727146            5.190849             -6.148971
| 62>   H                    : -10.607147           7.196297             -5.730053
| 63>   H                    : -11.874322           6.440431             -4.953512
| 64>   H                    : -10.417366           6.159813             -4.139783
| 65>   C                      -7.709008            5.724465             -7.041858
| 66>   O                      -7.893009            5.397264             -5.706339
| 67>   H                      -7.470461            4.539697             -5.561548
| 68>   H                      -8.301419            5.232286             -7.798056
| 69>   H                      -7.925926            6.759924             -7.241924
| 70>   H                      -6.721848            5.612300             -7.397646
| 71> *
| 72>
| 73>                          ****END OF INPUT****
 Total Charge           Charge          ....    0
 Multiplicity           Mult            ....    1
 Number of Electrons    NEL             ....   36
Dispersion correction           -0.002213894
FINAL SINGLE POINT ENERGY      -231.467235424770
Dispersion correction           -0.000222755
FINAL SINGLE POINT ENERGY      -115.730856174116

CARTESIAN COORDINATES (ANGSTROEM)
---------------------------------
  C    -10.846831    6.292560   -5.177887
  O    -10.666266    5.180192   -5.989174
  H     -9.727146    5.190849   -6.148971
  H    -10.607147    7.196297   -5.730053
  H    -11.874322    6.440431   -4.953512
  H    -10.417366    6.159813   -4.139783
  C     -7.709008    5.724465   -7.041858
  O     -7.893009    5.397264   -5.706339
  H     -7.470461    4.539697   -5.561548
  H     -8.301419    5.232286   -7.798056
  H     -7.925926    6.759924   -7.241924
  H     -6.721848    5.612300   -7.397646

 Multiplicity           Mult            ....    1
 Number of Electrons    NEL             ....   18
 Basis Dimension        Dim             ....  172

ORBITAL ENERGIES
----------------

  NO   OCC          E(Eh)            E(eV)
   0   2.0000     -19.237691      -523.4842
   1   2.0000     -10.302466      -280.3444
   2   2.0000      -1.146521       -31.1984
   3   2.0000      -0.803883       -21.8748
   4   2.0000      -0.623293       -16.9607
   5   2.0000      -0.541997       -14.7485
   6   2.0000      -0.532185       -14.4815
   7   2.0000      -0.435226       -11.8431
   8   2.0000      -0.376465       -10.2441
   9   0.0000       0.099520         2.7081
  10   0.0000       0.130148         3.5415
  11   0.0000       0.148550         4.0423
  12   0.0000       0.184777         5.0280
  13   0.0000       0.197384         5.3711

MULLIKEN ATOMIC CHARGES
-----------------------
   0 C :    0.010480
   1 O :   -0.000872
   2 H :   -0.008716
   3 H :   -0.001720
   4 H :   -0.000048
   5 H :   -0.004071
   6 C :   -0.168410
   7 O :   -0.465152
   8 H :    0.317175
   9 H :    0.095669
  10 H :    0.114814
  11 H :    0.110851
Sum of atomic charges:   -0.0000000

LOEWDIN ATOMIC CHARGES
----------------------
   0 C :   -0.011101
   1 O :   -0.007080
   2 H :   -0.041257
   3 H :   -0.000655
   4 H :   -0.000117
   5 H :   -0.002258
   6 C :   -0.400235
   7 O :   -0.009117
   8 H :    0.179750
   9 H :    0.094068
  10 H :    0.108429
  11 H :    0.089573

  Mayer bond orders larger than 0.1
B(  6-C ,  7-O ) :   0.9961 B(  6-C ,  9-H ) :   0.9754 B(  6-C , 10-H ) :   0.9792
B(  6-C , 11-H ) :   0.9802 B(  7-O ,  8-H ) :   0.8957

Dispersion correction           -0.000245513
FINAL SINGLE POINT ENERGY      -115.732110209567

DIPOLE MOMENT
-------------
                                X             Y             Z
Electronic contribution:     -0.32058      -0.39604       1.92968
Nuclear contribution   :      0.68470      -0.00706      -2.35466
                        -----------------------------------------
Total Dipole Moment    :      0.36412      -0.40310      -0.42498
                        -----------------------------------------
Magnitude (a.u.)       :      0.68970
Magnitude (Debye)      :      1.75307

Rotational constants in cm-1:     4.693568     0.844820     0.812938
Rotational constants in MHz : 140709.628158 25327.059749 24371.262018

                             ****ORCA TERMINATED NORMALLY****
TOTAL RUN TIME: 0 days 0 hours 0 minutes 50 seconds 580 msec
