                         Program Version 4.1.2  - RELEASE  -
|  1> #Run DFT-D3 single point of the dimer
|  2> ! wB97X-D3 def2-TZVP TIGHTSCF CHELPG PMODEL PAL8
|  3>
|  4> %base "21-108_DFT_AB"
|  5>
|  6> %scf
|  7> MaxIter 1000
|  8> end
|  9>
| 10> * xyz 0 1
| 11>   C                      4.061097             9.985144             -6.070502
| 12>   O                      3.441151             9.246290             -7.049608
| 13>   H                      2.507525             9.449036             -6.878413
| 14>   H                      5.166325             9.778828             -5.975345
| 15>   H                      4.055554             11.054834            -6.343649
| 16>   H                      3.619307             9.736825             -5.105719
| 17>   C                      3.238427             6.178181             -9.426286
| 18>   O                      4.048945             5.033788             -9.056436
| 19>   H                      4.846479             5.325362             -8.628553
| 20>   H                      2.895541             6.731841             -8.572065
| 21>   H                      3.792113             6.883283             -9.977120
| 22>   H                      2.425263             5.892164             -10.025981
| 23> *
| 24>
| 25> #Run DFT-D3 single point of the molecule with dimer basis set
| 26> $new_job
| 27> %base "21-108_DFT_A"
| 28> ! wB97X-D3 def2-TZVP TIGHTSCF CHELPG PMODEL
| 29>
| 30> %scf
| 31> MaxIter 1000
| 32> end
| 33>
| 34> * xyz 0 1
| 35>   C                      4.061097             9.985144             -6.070502
| 36>   O                      3.441151             9.246290             -7.049608
| 37>   H                      2.507525             9.449036             -6.878413
| 38>   H                      5.166325             9.778828             -5.975345
| 39>   H                      4.055554             11.054834            -6.343649
| 40>   H                      3.619307             9.736825             -5.105719
| 41>   C                    : 3.238427             6.178181             -9.426286
| 42>   O                    : 4.048945             5.033788             -9.056436
| 43>   H                    : 4.846479             5.325362             -8.628553
| 44>   H                    : 2.895541             6.731841             -8.572065
| 45>   H                    : 3.792113             6.883283             -9.977120
| 46>   H                    : 2.425263             5.892164             -10.025981
| 47> *
| 48>
| 49> #Run DFT-D3 single point of the particle with dimer basis set
| 50> $new_job
| 51> %base "21-108_DFT_B"
| 52> ! wB97X-D3 def2-TZVP TIGHTSCF CHELPG PMODEL
| 53>
| 54> %scf
| 55> MaxIter 1000
| 56> end
| 57>
| 58> * xyz 0 1
| 59>   C                    : 4.061097             9.985144             -6.070502
| 60>   O                    : 3.441151             9.246290             -7.049608
| 61>   H                    : 2.507525             9.449036             -6.878413
| 62>   H                    : 5.166325             9.778828             -5.975345
| 63>   H                    : 4.055554             11.054834            -6.343649
| 64>   H                    : 3.619307             9.736825             -5.105719
| 65>   C                      3.238427             6.178181             -9.426286
| 66>   O                      4.048945             5.033788             -9.056436
| 67>   H                      4.846479             5.325362             -8.628553
| 68>   H                      2.895541             6.731841             -8.572065
| 69>   H                      3.792113             6.883283             -9.977120
| 70>   H                      2.425263             5.892164             -10.025981
| 71> *
| 72>
| 73>                          ****END OF INPUT****
 Total Charge           Charge          ....    0
 Multiplicity           Mult            ....    1
 Number of Electrons    NEL             ....   36
Dispersion correction           -0.001062657
FINAL SINGLE POINT ENERGY      -231.464970999456
Dispersion correction           -0.000209741
FINAL SINGLE POINT ENERGY      -115.730700004394

CARTESIAN COORDINATES (ANGSTROEM)
---------------------------------
  C      4.061097    9.985144   -6.070502
  O      3.441151    9.246290   -7.049608
  H      2.507525    9.449036   -6.878413
  H      5.166325    9.778828   -5.975345
  H      4.055554   11.054834   -6.343649
  H      3.619307    9.736825   -5.105719
  C      3.238427    6.178181   -9.426286
  O      4.048945    5.033788   -9.056436
  H      4.846479    5.325362   -8.628553
  H      2.895541    6.731841   -8.572065
  H      3.792113    6.883283   -9.977120
  H      2.425263    5.892164  -10.025981

 Multiplicity           Mult            ....    1
 Number of Electrons    NEL             ....   18
 Basis Dimension        Dim             ....  172

ORBITAL ENERGIES
----------------

  NO   OCC          E(Eh)            E(eV)
   0   2.0000     -19.227171      -523.1979
   1   2.0000     -10.305170      -280.4179
   2   2.0000      -1.124648       -30.6032
   3   2.0000      -0.808115       -21.9899
   4   2.0000      -0.609366       -16.5817
   5   2.0000      -0.537879       -14.6364
   6   2.0000      -0.530259       -14.4291
   7   2.0000      -0.438196       -11.9239
   8   2.0000      -0.374128       -10.1805
   9   0.0000       0.080636         2.1942
  10   0.0000       0.118251         3.2178
  11   0.0000       0.142971         3.8904
  12   0.0000       0.174193         4.7400
  13   0.0000       0.194352         5.2886

MULLIKEN ATOMIC CHARGES
-----------------------
   0 C :   -0.000071
   1 O :   -0.000116
   2 H :   -0.000257
   3 H :    0.000006
   4 H :   -0.000000
   5 H :   -0.000010
   6 C :   -0.160119
   7 O :   -0.489579
   8 H :    0.312419
   9 H :    0.103985
  10 H :    0.106960
  11 H :    0.126782
Sum of atomic charges:    0.0000000

LOEWDIN ATOMIC CHARGES
----------------------
   0 C :   -0.000114
   1 O :   -0.001416
   2 H :   -0.000519
   3 H :   -0.000003
   4 H :   -0.000003
   5 H :   -0.000004
   6 C :   -0.342417
   7 O :   -0.098005
   8 H :    0.158738
   9 H :    0.093772
  10 H :    0.088938
  11 H :    0.101032

  Mayer bond orders larger than 0.1
B(  6-C ,  7-O ) :   0.9903 B(  6-C ,  9-H ) :   0.9778 B(  6-C , 10-H ) :   0.9809
B(  6-C , 11-H ) :   0.9732 B(  7-O ,  8-H ) :   0.9015

Dispersion correction           -0.000246425
FINAL SINGLE POINT ENERGY      -115.732592813151

DIPOLE MOMENT
-------------
                                X             Y             Z
Electronic contribution:      0.85306      -1.54043       0.37908
Nuclear contribution   :     -0.68841       2.23416      -0.27928
                        -----------------------------------------
Total Dipole Moment    :      0.16465       0.69373       0.09980
                        -----------------------------------------
Magnitude (a.u.)       :      0.71996
Magnitude (Debye)      :      1.82998

Rotational constants in cm-1:     4.608683     0.799926     0.770096
Rotational constants in MHz : 138164.854590 23981.165030 23086.906955

                             ****ORCA TERMINATED NORMALLY****
TOTAL RUN TIME: 0 days 0 hours 0 minutes 59 seconds 202 msec
