                         Program Version 4.1.2  - RELEASE  -
|  1> #Run DFT-D3 single point of the dimer
|  2> ! wB97X-D3 def2-TZVP TIGHTSCF CHELPG PMODEL PAL8
|  3>
|  4> %base "15-171_DFT_AB"
|  5>
|  6> %scf
|  7> MaxIter 1000
|  8> end
|  9>
| 10> * xyz 0 1
| 11>   C                      -2.661434            0.095099             -1.013179
| 12>   O                      -3.238537            1.069245             -1.880660
| 13>   H                      -2.525407            1.523243             -2.362530
| 14>   H                      -3.455402            -0.406456            -0.357671
| 15>   H                      -2.118193            -0.664322            -1.552945
| 16>   H                      -2.095586            0.597081             -0.237835
| 17>   C                      -0.551110            2.556942             -4.659170
| 18>   O                      -0.753359            1.832857             -3.530496
| 19>   H                      0.096590             1.377903             -3.395706
| 20>   H                      -0.745508            1.953462             -5.556128
| 21>   H                      -1.176390            3.437342             -4.720906
| 22>   H                      0.463277             2.828281             -4.739293
| 23> *
| 24>
| 25> #Run DFT-D3 single point of the molecule with dimer basis set
| 26> $new_job
| 27> %base "15-171_DFT_A"
| 28> ! wB97X-D3 def2-TZVP TIGHTSCF CHELPG PMODEL
| 29>
| 30> %scf
| 31> MaxIter 1000
| 32> end
| 33>
| 34> * xyz 0 1
| 35>   C                      -2.661434            0.095099             -1.013179
| 36>   O                      -3.238537            1.069245             -1.880660
| 37>   H                      -2.525407            1.523243             -2.362530
| 38>   H                      -3.455402            -0.406456            -0.357671
| 39>   H                      -2.118193            -0.664322            -1.552945
| 40>   H                      -2.095586            0.597081             -0.237835
| 41>   C                    : -0.551110            2.556942             -4.659170
| 42>   O                    : -0.753359            1.832857             -3.530496
| 43>   H                    : 0.096590             1.377903             -3.395706
| 44>   H                    : -0.745508            1.953462             -5.556128
| 45>   H                    : -1.176390            3.437342             -4.720906
| 46>   H                    : 0.463277             2.828281             -4.739293
| 47> *
| 48>
| 49> #Run DFT-D3 single point of the particle with dimer basis set
| 50> $new_job
| 51> %base "15-171_DFT_B"
| 52> ! wB97X-D3 def2-TZVP TIGHTSCF CHELPG PMODEL
| 53>
| 54> %scf
| 55> MaxIter 1000
| 56> end
| 57>
| 58> * xyz 0 1
| 59>   C                    : -2.661434            0.095099             -1.013179
| 60>   O                    : -3.238537            1.069245             -1.880660
| 61>   H                    : -2.525407            1.523243             -2.362530
| 62>   H                    : -3.455402            -0.406456            -0.357671
| 63>   H                    : -2.118193            -0.664322            -1.552945
| 64>   H                    : -2.095586            0.597081             -0.237835
| 65>   C                      -0.551110            2.556942             -4.659170
| 66>   O                      -0.753359            1.832857             -3.530496
| 67>   H                      0.096590             1.377903             -3.395706
| 68>   H                      -0.745508            1.953462             -5.556128
| 69>   H                      -1.176390            3.437342             -4.720906
| 70>   H                      0.463277             2.828281             -4.739293
| 71> *
| 72>
| 73>                          ****END OF INPUT****
 Total Charge           Charge          ....    0
 Multiplicity           Mult            ....    1
 Number of Electrons    NEL             ....   36
Dispersion correction           -0.001523628
FINAL SINGLE POINT ENERGY      -231.470151734851
Dispersion correction           -0.000250741
FINAL SINGLE POINT ENERGY      -115.732389264365

CARTESIAN COORDINATES (ANGSTROEM)
---------------------------------
  C     -2.661434    0.095099   -1.013179
  O     -3.238537    1.069245   -1.880660
  H     -2.525407    1.523243   -2.362530
  H     -3.455402   -0.406456   -0.357671
  H     -2.118193   -0.664322   -1.552945
  H     -2.095586    0.597081   -0.237835
  C     -0.551110    2.556942   -4.659170
  O     -0.753359    1.832857   -3.530496
  H      0.096590    1.377903   -3.395706
  H     -0.745508    1.953462   -5.556128
  H     -1.176390    3.437342   -4.720906
  H      0.463277    2.828281   -4.739293

 Multiplicity           Mult            ....    1
 Number of Electrons    NEL             ....   18
 Basis Dimension        Dim             ....  172

ORBITAL ENERGIES
----------------

  NO   OCC          E(Eh)            E(eV)
   0   2.0000     -19.232160      -523.3337
   1   2.0000     -10.302332      -280.3407
   2   2.0000      -1.157137       -31.4873
   3   2.0000      -0.792946       -21.5771
   4   2.0000      -0.626157       -17.0386
   5   2.0000      -0.545878       -14.8541
   6   2.0000      -0.539977       -14.6935
   7   2.0000      -0.437207       -11.8970
   8   2.0000      -0.367995       -10.0136
   9   0.0000       0.096610         2.6289
  10   0.0000       0.120413         3.2766
  11   0.0000       0.158397         4.3102
  12   0.0000       0.185456         5.0465
  13   0.0000       0.203444         5.5360

MULLIKEN ATOMIC CHARGES
-----------------------
   0 C :    0.002119
   1 O :    0.000574
   2 H :   -0.010338
   3 H :   -0.000130
   4 H :   -0.001978
   5 H :   -0.000624
   6 C :   -0.149817
   7 O :   -0.448204
   8 H :    0.317215
   9 H :    0.085433
  10 H :    0.111068
  11 H :    0.094683
Sum of atomic charges:   -0.0000000

LOEWDIN ATOMIC CHARGES
----------------------
   0 C :   -0.003171
   1 O :   -0.002702
   2 H :   -0.026684
   3 H :   -0.000036
   4 H :   -0.000709
   5 H :   -0.000168
   6 C :   -0.425966
   7 O :   -0.012199
   8 H :    0.187707
   9 H :    0.092967
  10 H :    0.103615
  11 H :    0.087345

  Mayer bond orders larger than 0.1
B(  6-C ,  7-O ) :   1.0053 B(  6-C ,  9-H ) :   0.9754 B(  6-C , 10-H ) :   0.9771
B(  6-C , 11-H ) :   0.9868 B(  7-O ,  8-H ) :   0.8945

Dispersion correction           -0.000200121
FINAL SINGLE POINT ENERGY      -115.730669972696

DIPOLE MOMENT
-------------
                                X             Y             Z
Electronic contribution:     -0.43184      -0.83857       1.60777
Nuclear contribution   :      1.06796       0.83439      -1.92239
                        -----------------------------------------
Total Dipole Moment    :      0.63612      -0.00418      -0.31462
                        -----------------------------------------
Magnitude (a.u.)       :      0.70969
Magnitude (Debye)      :      1.80388

Rotational constants in cm-1:     4.368333     0.900178     0.859605
Rotational constants in MHz : 130959.325158 26986.644856 25770.322529

                             ****ORCA TERMINATED NORMALLY****
TOTAL RUN TIME: 0 days 0 hours 1 minutes 6 seconds 639 msec
