                         Program Version 4.1.2  - RELEASE  -
|  1> #Run DFT-D3 single point of the dimer
|  2> ! wB97X-D3 def2-TZVP TIGHTSCF CHELPG PMODEL PAL8
|  3>
|  4> %base "9-30_DFT_AB"
|  5>
|  6> %scf
|  7> MaxIter 1000
|  8> end
|  9>
| 10> * xyz 0 1
| 11>   C                      -2.236262            -7.219065            -3.038028
| 12>   O                      -2.089203            -8.488530            -3.702297
| 13>   H                      -2.620605            -8.479153            -4.503310
| 14>   H                      -1.906942            -6.405743            -3.624474
| 15>   H                      -3.225869            -6.961767            -2.730361
| 16>   H                      -1.644495            -7.133655            -2.155844
| 17>   C                      -5.665758            -4.689822            -2.360224
| 18>   O                      -6.884275            -4.148201            -2.717216
| 19>   H                      -7.629676            -4.652212            -2.280680
| 20>   H                      -4.944511            -4.627288            -3.154112
| 21>   H                      -5.203577            -4.051282            -1.505271
| 22>   H                      -5.827950            -5.648376            -1.913046
| 23> *
| 24>
| 25> #Run DFT-D3 single point of the molecule with dimer basis set
| 26> $new_job
| 27> %base "9-30_DFT_A"
| 28> ! wB97X-D3 def2-TZVP TIGHTSCF CHELPG PMODEL
| 29>
| 30> %scf
| 31> MaxIter 1000
| 32> end
| 33>
| 34> * xyz 0 1
| 35>   C                      -2.236262            -7.219065            -3.038028
| 36>   O                      -2.089203            -8.488530            -3.702297
| 37>   H                      -2.620605            -8.479153            -4.503310
| 38>   H                      -1.906942            -6.405743            -3.624474
| 39>   H                      -3.225869            -6.961767            -2.730361
| 40>   H                      -1.644495            -7.133655            -2.155844
| 41>   C                    : -5.665758            -4.689822            -2.360224
| 42>   O                    : -6.884275            -4.148201            -2.717216
| 43>   H                    : -7.629676            -4.652212            -2.280680
| 44>   H                    : -4.944511            -4.627288            -3.154112
| 45>   H                    : -5.203577            -4.051282            -1.505271
| 46>   H                    : -5.827950            -5.648376            -1.913046
| 47> *
| 48>
| 49> #Run DFT-D3 single point of the particle with dimer basis set
| 50> $new_job
| 51> %base "9-30_DFT_B"
| 52> ! wB97X-D3 def2-TZVP TIGHTSCF CHELPG PMODEL
| 53>
| 54> %scf
| 55> MaxIter 1000
| 56> end
| 57>
| 58> * xyz 0 1
| 59>   C                    : -2.236262            -7.219065            -3.038028
| 60>   O                    : -2.089203            -8.488530            -3.702297
| 61>   H                    : -2.620605            -8.479153            -4.503310
| 62>   H                    : -1.906942            -6.405743            -3.624474
| 63>   H                    : -3.225869            -6.961767            -2.730361
| 64>   H                    : -1.644495            -7.133655            -2.155844
| 65>   C                      -5.665758            -4.689822            -2.360224
| 66>   O                      -6.884275            -4.148201            -2.717216
| 67>   H                      -7.629676            -4.652212            -2.280680
| 68>   H                      -4.944511            -4.627288            -3.154112
| 69>   H                      -5.203577            -4.051282            -1.505271
| 70>   H                      -5.827950            -5.648376            -1.913046
| 71> *
| 72>
| 73>                          ****END OF INPUT****
 Total Charge           Charge          ....    0
 Multiplicity           Mult            ....    1
 Number of Electrons    NEL             ....   36
Dispersion correction           -0.001157387
FINAL SINGLE POINT ENERGY      -231.460646115514
Dispersion correction           -0.000258077
FINAL SINGLE POINT ENERGY      -115.732177353443

CARTESIAN COORDINATES (ANGSTROEM)
---------------------------------
  C     -2.236262   -7.219065   -3.038028
  O     -2.089203   -8.488530   -3.702297
  H     -2.620605   -8.479153   -4.503310
  H     -1.906942   -6.405743   -3.624474
  H     -3.225869   -6.961767   -2.730361
  H     -1.644495   -7.133655   -2.155844
  C     -5.665758   -4.689822   -2.360224
  O     -6.884275   -4.148201   -2.717216
  H     -7.629676   -4.652212   -2.280680
  H     -4.944511   -4.627288   -3.154112
  H     -5.203577   -4.051282   -1.505271
  H     -5.827950   -5.648376   -1.913046

 Multiplicity           Mult            ....    1
 Number of Electrons    NEL             ....   18
 Basis Dimension        Dim             ....  172

ORBITAL ENERGIES
----------------

  NO   OCC          E(Eh)            E(eV)
   0   2.0000     -19.231632      -523.3193
   1   2.0000     -10.312657      -280.6217
   2   2.0000      -1.139139       -30.9975
   3   2.0000      -0.789015       -21.4702
   4   2.0000      -0.616732       -16.7821
   5   2.0000      -0.544461       -14.8155
   6   2.0000      -0.527687       -14.3591
   7   2.0000      -0.432495       -11.7688
   8   2.0000      -0.362303        -9.8588
   9   0.0000       0.084056         2.2873
  10   0.0000       0.107084         2.9139
  11   0.0000       0.147720         4.0197
  12   0.0000       0.167211         4.5501
  13   0.0000       0.182157         4.9567

MULLIKEN ATOMIC CHARGES
-----------------------
   0 C :    0.002436
   1 O :   -0.000018
   2 H :   -0.000022
   3 H :   -0.000307
   4 H :   -0.004029
   5 H :   -0.000145
   6 C :   -0.150579
   7 O :   -0.469538
   8 H :    0.321534
   9 H :    0.117515
  10 H :    0.081330
  11 H :    0.101821
Sum of atomic charges:   -0.0000000

LOEWDIN ATOMIC CHARGES
----------------------
   0 C :   -0.000778
   1 O :   -0.000006
   2 H :   -0.000002
   3 H :   -0.000127
   4 H :   -0.001883
   5 H :   -0.000006
   6 C :   -0.413371
   7 O :   -0.071951
   8 H :    0.195408
   9 H :    0.099540
  10 H :    0.102172
  11 H :    0.091004

  Mayer bond orders larger than 0.1
B(  6-C ,  7-O ) :   1.0193 B(  6-C ,  9-H ) :   0.9723 B(  6-C , 10-H ) :   0.9726
B(  6-C , 11-H ) :   0.9880 B(  7-O ,  8-H ) :   0.8901

Dispersion correction           -0.000235587
FINAL SINGLE POINT ENERGY      -115.727869451891

DIPOLE MOMENT
-------------
                                X             Y             Z
Electronic contribution:     -1.54295       0.64020      -0.75316
Nuclear contribution   :      1.50153      -1.19108       1.14806
                        -----------------------------------------
Total Dipole Moment    :     -0.04142      -0.55089       0.39491
                        -----------------------------------------
Magnitude (a.u.)       :      0.67908
Magnitude (Debye)      :      1.72608

Rotational constants in cm-1:     4.183952     0.864684     0.825307
Rotational constants in MHz : 125431.737186 25922.563183 24742.085584

                             ****ORCA TERMINATED NORMALLY****
TOTAL RUN TIME: 0 days 0 hours 0 minutes 39 seconds 527 msec
