                         Program Version 4.1.2  - RELEASE  -
|  1> #Run DFT-D3 single point of the dimer
|  2> ! wB97X-D3 def2-TZVP TIGHTSCF CHELPG PMODEL PAL8
|  3>
|  4> %base "9-27_DFT_AB"
|  5>
|  6> %scf
|  7> MaxIter 1000
|  8> end
|  9>
| 10> * xyz 0 1
| 11>   C                      -2.236262            -7.219065            -3.038028
| 12>   O                      -2.089203            -8.488530            -3.702297
| 13>   H                      -2.620605            -8.479153            -4.503310
| 14>   H                      -1.906942            -6.405743            -3.624474
| 15>   H                      -3.225869            -6.961767            -2.730361
| 16>   H                      -1.644495            -7.133655            -2.155844
| 17>   C                      -0.644259            -10.288811           -0.613577
| 18>   O                      0.403820             -9.855791            0.193845
| 19>   H                      0.055486             -9.356534            0.947444
| 20>   H                      -1.065645            -11.179136           -0.133979
| 21>   H                      -1.357217            -9.505382            -0.921732
| 22>   H                      -0.289226            -10.785823           -1.502527
| 23> *
| 24>
| 25> #Run DFT-D3 single point of the molecule with dimer basis set
| 26> $new_job
| 27> %base "9-27_DFT_A"
| 28> ! wB97X-D3 def2-TZVP TIGHTSCF CHELPG PMODEL
| 29>
| 30> %scf
| 31> MaxIter 1000
| 32> end
| 33>
| 34> * xyz 0 1
| 35>   C                      -2.236262            -7.219065            -3.038028
| 36>   O                      -2.089203            -8.488530            -3.702297
| 37>   H                      -2.620605            -8.479153            -4.503310
| 38>   H                      -1.906942            -6.405743            -3.624474
| 39>   H                      -3.225869            -6.961767            -2.730361
| 40>   H                      -1.644495            -7.133655            -2.155844
| 41>   C                    : -0.644259            -10.288811           -0.613577
| 42>   O                    : 0.403820             -9.855791            0.193845
| 43>   H                    : 0.055486             -9.356534            0.947444
| 44>   H                    : -1.065645            -11.179136           -0.133979
| 45>   H                    : -1.357217            -9.505382            -0.921732
| 46>   H                    : -0.289226            -10.785823           -1.502527
| 47> *
| 48>
| 49> #Run DFT-D3 single point of the particle with dimer basis set
| 50> $new_job
| 51> %base "9-27_DFT_B"
| 52> ! wB97X-D3 def2-TZVP TIGHTSCF CHELPG PMODEL
| 53>
| 54> %scf
| 55> MaxIter 1000
| 56> end
| 57>
| 58> * xyz 0 1
| 59>   C                    : -2.236262            -7.219065            -3.038028
| 60>   O                    : -2.089203            -8.488530            -3.702297
| 61>   H                    : -2.620605            -8.479153            -4.503310
| 62>   H                    : -1.906942            -6.405743            -3.624474
| 63>   H                    : -3.225869            -6.961767            -2.730361
| 64>   H                    : -1.644495            -7.133655            -2.155844
| 65>   C                      -0.644259            -10.288811           -0.613577
| 66>   O                      0.403820             -9.855791            0.193845
| 67>   H                      0.055486             -9.356534            0.947444
| 68>   H                      -1.065645            -11.179136           -0.133979
| 69>   H                      -1.357217            -9.505382            -0.921732
| 70>   H                      -0.289226            -10.785823           -1.502527
| 71> *
| 72>
| 73>                          ****END OF INPUT****
 Total Charge           Charge          ....    0
 Multiplicity           Mult            ....    1
 Number of Electrons    NEL             ....   36
Dispersion correction           -0.001409401
FINAL SINGLE POINT ENERGY      -231.464274441572
Dispersion correction           -0.000258077
FINAL SINGLE POINT ENERGY      -115.732317500754

CARTESIAN COORDINATES (ANGSTROEM)
---------------------------------
  C     -2.236262   -7.219065   -3.038028
  O     -2.089203   -8.488530   -3.702297
  H     -2.620605   -8.479153   -4.503310
  H     -1.906942   -6.405743   -3.624474
  H     -3.225869   -6.961767   -2.730361
  H     -1.644495   -7.133655   -2.155844
  C     -0.644259  -10.288811   -0.613577
  O      0.403820   -9.855791    0.193845
  H      0.055486   -9.356534    0.947444
  H     -1.065645  -11.179136   -0.133979
  H     -1.357217   -9.505382   -0.921732
  H     -0.289226  -10.785823   -1.502527

 Multiplicity           Mult            ....    1
 Number of Electrons    NEL             ....   18
 Basis Dimension        Dim             ....  172

ORBITAL ENERGIES
----------------

  NO   OCC          E(Eh)            E(eV)
   0   2.0000     -19.229474      -523.2606
   1   2.0000     -10.309822      -280.5445
   2   2.0000      -1.139753       -31.0142
   3   2.0000      -0.796863       -21.6837
   4   2.0000      -0.609235       -16.5781
   5   2.0000      -0.552388       -15.0313
   6   2.0000      -0.529403       -14.4058
   7   2.0000      -0.424176       -11.5424
   8   2.0000      -0.370580       -10.0840
   9   0.0000       0.082448         2.2435
  10   0.0000       0.118085         3.2133
  11   0.0000       0.152677         4.1545
  12   0.0000       0.165530         4.5043
  13   0.0000       0.189445         5.1551

MULLIKEN ATOMIC CHARGES
-----------------------
   0 C :   -0.002481
   1 O :   -0.000146
   2 H :   -0.000078
   3 H :    0.000104
   4 H :    0.000168
   5 H :    0.002591
   6 C :   -0.163495
   7 O :   -0.475841
   8 H :    0.318845
   9 H :    0.101576
  10 H :    0.104841
  11 H :    0.113917
Sum of atomic charges:   -0.0000000

LOEWDIN ATOMIC CHARGES
----------------------
   0 C :   -0.003120
   1 O :   -0.000854
   2 H :   -0.000056
   3 H :   -0.000037
   4 H :   -0.000061
   5 H :   -0.001173
   6 C :   -0.408012
   7 O :   -0.066287
   8 H :    0.175973
   9 H :    0.097830
  10 H :    0.099416
  11 H :    0.106380

  Mayer bond orders larger than 0.1
B(  6-C ,  7-O ) :   1.0024 B(  6-C ,  9-H ) :   0.9853 B(  6-C , 10-H ) :   0.9711
B(  6-C , 11-H ) :   0.9718 B(  7-O ,  8-H ) :   0.8940

Dispersion correction           -0.000240899
FINAL SINGLE POINT ENERGY      -115.730793929575

DIPOLE MOMENT
-------------
                                X             Y             Z
Electronic contribution:      1.41247       0.66898       0.96220
Nuclear contribution   :     -2.02132      -0.53903      -0.81556
                        -----------------------------------------
Total Dipole Moment    :     -0.60886       0.12996       0.14664
                        -----------------------------------------
Magnitude (a.u.)       :      0.63961
Magnitude (Debye)      :      1.62575

Rotational constants in cm-1:     4.365911     0.845613     0.819168
Rotational constants in MHz : 130886.710380 25350.846370 24558.051242

                             ****ORCA TERMINATED NORMALLY****
TOTAL RUN TIME: 0 days 0 hours 0 minutes 41 seconds 26 msec
