                         Program Version 4.1.2  - RELEASE  -
|  1> #Run DFT-D3 single point of the dimer
|  2> ! wB97X-D3 def2-TZVP TIGHTSCF CHELPG PMODEL PAL8
|  3>
|  4> %base "16-57_DFT_AB"
|  5>
|  6> %scf
|  7> MaxIter 1000
|  8> end
|  9>
| 10> * xyz 0 1
| 11>   C                      3.918612             -5.045741            2.896027
| 12>   O                      4.275113             -3.748419            2.773380
| 13>   H                      5.177996             -3.619790            2.820687
| 14>   H                      3.911424             -5.560728            1.980114
| 15>   H                      4.669848             -5.508734            3.468600
| 16>   H                      2.869578             -5.280809            3.312576
| 17>   C                      7.044460             -8.555838            4.250525
| 18>   O                      8.427938             -8.312662            4.214939
| 19>   H                      8.527758             -7.683992            4.984987
| 20>   H                      6.586191             -8.085614            5.164987
| 21>   H                      6.645034             -8.034134            3.466934
| 22>   H                      6.790780             -9.623085            4.091890
| 23> *
| 24>
| 25> #Run DFT-D3 single point of the molecule with dimer basis set
| 26> $new_job
| 27> %base "16-57_DFT_A"
| 28> ! wB97X-D3 def2-TZVP TIGHTSCF CHELPG PMODEL
| 29>
| 30> %scf
| 31> MaxIter 1000
| 32> end
| 33>
| 34> * xyz 0 1
| 35>   C                      3.918612             -5.045741            2.896027
| 36>   O                      4.275113             -3.748419            2.773380
| 37>   H                      5.177996             -3.619790            2.820687
| 38>   H                      3.911424             -5.560728            1.980114
| 39>   H                      4.669848             -5.508734            3.468600
| 40>   H                      2.869578             -5.280809            3.312576
| 41>   C                    : 7.044460             -8.555838            4.250525
| 42>   O                    : 8.427938             -8.312662            4.214939
| 43>   H                    : 8.527758             -7.683992            4.984987
| 44>   H                    : 6.586191             -8.085614            5.164987
| 45>   H                    : 6.645034             -8.034134            3.466934
| 46>   H                    : 6.790780             -9.623085            4.091890
| 47> *
| 48>
| 49> #Run DFT-D3 single point of the particle with dimer basis set
| 50> $new_job
| 51> %base "16-57_DFT_B"
| 52> ! wB97X-D3 def2-TZVP TIGHTSCF CHELPG PMODEL
| 53>
| 54> %scf
| 55> MaxIter 1000
| 56> end
| 57>
| 58> * xyz 0 1
| 59>   C                    : 3.918612             -5.045741            2.896027
| 60>   O                    : 4.275113             -3.748419            2.773380
| 61>   H                    : 5.177996             -3.619790            2.820687
| 62>   H                    : 3.911424             -5.560728            1.980114
| 63>   H                    : 4.669848             -5.508734            3.468600
| 64>   H                    : 2.869578             -5.280809            3.312576
| 65>   C                      7.044460             -8.555838            4.250525
| 66>   O                      8.427938             -8.312662            4.214939
| 67>   H                      8.527758             -7.683992            4.984987
| 68>   H                      6.586191             -8.085614            5.164987
| 69>   H                      6.645034             -8.034134            3.466934
| 70>   H                      6.790780             -9.623085            4.091890
| 71> *
| 72>
| 73>                          ****END OF INPUT****
 Total Charge           Charge          ....    0
 Multiplicity           Mult            ....    1
 Number of Electrons    NEL             ....   36
Dispersion correction           -0.000850392
FINAL SINGLE POINT ENERGY      -231.446970084358
Dispersion correction           -0.000218031
FINAL SINGLE POINT ENERGY      -115.721957308251

CARTESIAN COORDINATES (ANGSTROEM)
---------------------------------
  C      3.918612   -5.045741    2.896027
  O      4.275113   -3.748419    2.773380
  H      5.177996   -3.619790    2.820687
  H      3.911424   -5.560728    1.980114
  H      4.669848   -5.508734    3.468600
  H      2.869578   -5.280809    3.312576
  C      7.044460   -8.555838    4.250525
  O      8.427938   -8.312662    4.214939
  H      8.527758   -7.683992    4.984987
  H      6.586191   -8.085614    5.164987
  H      6.645034   -8.034134    3.466934
  H      6.790780   -9.623085    4.091890

 Multiplicity           Mult            ....    1
 Number of Electrons    NEL             ....   18
 Basis Dimension        Dim             ....  172

ORBITAL ENERGIES
----------------

  NO   OCC          E(Eh)            E(eV)
   0   2.0000     -19.231923      -523.3272
   1   2.0000     -10.308489      -280.5083
   2   2.0000      -1.135948       -30.9107
   3   2.0000      -0.790890       -21.5212
   4   2.0000      -0.607970       -16.5437
   5   2.0000      -0.544193       -14.8082
   6   2.0000      -0.528172       -14.3723
   7   2.0000      -0.438755       -11.9391
   8   2.0000      -0.369211       -10.0467
   9   0.0000       0.082071         2.2333
  10   0.0000       0.106379         2.8947
  11   0.0000       0.151120         4.1122
  12   0.0000       0.164222         4.4687
  13   0.0000       0.185945         5.0598

MULLIKEN ATOMIC CHARGES
-----------------------
   0 C :    0.000446
   1 O :   -0.000014
   2 H :   -0.000008
   3 H :   -0.000113
   4 H :   -0.000869
   5 H :   -0.000008
   6 C :   -0.171284
   7 O :   -0.463997
   8 H :    0.318686
   9 H :    0.094316
  10 H :    0.114585
  11 H :    0.108258
Sum of atomic charges:   -0.0000000

LOEWDIN ATOMIC CHARGES
----------------------
   0 C :   -0.000346
   1 O :   -0.000005
   2 H :   -0.000001
   3 H :   -0.000048
   4 H :   -0.000569
   5 H :   -0.000002
   6 C :   -0.395133
   7 O :   -0.090204
   8 H :    0.197043
   9 H :    0.102467
  10 H :    0.081203
  11 H :    0.105595

  Mayer bond orders larger than 0.1
B(  6-C ,  7-O ) :   1.0116 B(  6-C ,  9-H ) :   0.9919 B(  6-C , 10-H ) :   0.9809
B(  6-C , 11-H ) :   0.9711 B(  7-O ,  8-H ) :   0.8982

Dispersion correction           -0.000217801
FINAL SINGLE POINT ENERGY      -115.724706464608

DIPOLE MOMENT
-------------
                                X             Y             Z
Electronic contribution:      1.80510       0.11903      -0.18547
Nuclear contribution   :     -2.27723       0.19902       0.64567
                        -----------------------------------------
Total Dipole Moment    :     -0.47214       0.31805       0.46020
                        -----------------------------------------
Magnitude (a.u.)       :      0.73202
Magnitude (Debye)      :      1.86065

Rotational constants in cm-1:     4.173072     0.863116     0.810437
Rotational constants in MHz : 125105.564514 25875.578758 24296.286284

                             ****ORCA TERMINATED NORMALLY****
TOTAL RUN TIME: 0 days 0 hours 1 minutes 0 seconds 552 msec
