                         Program Version 4.1.2  - RELEASE  -
|  1> #Run DFT-D3 single point of the dimer
|  2> ! wB97X-D3 def2-TZVP TIGHTSCF CHELPG PMODEL PAL8
|  3>
|  4> %base "16-47_DFT_AB"
|  5>
|  6> %scf
|  7> MaxIter 1000
|  8> end
|  9>
| 10> * xyz 0 1
| 11>   C                      3.918612             -5.045741            2.896027
| 12>   O                      4.275113             -3.748419            2.773380
| 13>   H                      5.177996             -3.619790            2.820687
| 14>   H                      3.911424             -5.560728            1.980114
| 15>   H                      4.669848             -5.508734            3.468600
| 16>   H                      2.869578             -5.280809            3.312576
| 17>   C                      0.088638             -8.580864            3.565834
| 18>   O                      -0.416962            -9.781214            4.042133
| 19>   H                      0.283125             -10.405969           4.167854
| 20>   H                      0.607699             -8.089374            4.431848
| 21>   H                      0.832034             -8.764775            2.845523
| 22>   H                      -0.634273            -7.836461            3.171717
| 23> *
| 24>
| 25> #Run DFT-D3 single point of the molecule with dimer basis set
| 26> $new_job
| 27> %base "16-47_DFT_A"
| 28> ! wB97X-D3 def2-TZVP TIGHTSCF CHELPG PMODEL
| 29>
| 30> %scf
| 31> MaxIter 1000
| 32> end
| 33>
| 34> * xyz 0 1
| 35>   C                      3.918612             -5.045741            2.896027
| 36>   O                      4.275113             -3.748419            2.773380
| 37>   H                      5.177996             -3.619790            2.820687
| 38>   H                      3.911424             -5.560728            1.980114
| 39>   H                      4.669848             -5.508734            3.468600
| 40>   H                      2.869578             -5.280809            3.312576
| 41>   C                    : 0.088638             -8.580864            3.565834
| 42>   O                    : -0.416962            -9.781214            4.042133
| 43>   H                    : 0.283125             -10.405969           4.167854
| 44>   H                    : 0.607699             -8.089374            4.431848
| 45>   H                    : 0.832034             -8.764775            2.845523
| 46>   H                    : -0.634273            -7.836461            3.171717
| 47> *
| 48>
| 49> #Run DFT-D3 single point of the particle with dimer basis set
| 50> $new_job
| 51> %base "16-47_DFT_B"
| 52> ! wB97X-D3 def2-TZVP TIGHTSCF CHELPG PMODEL
| 53>
| 54> %scf
| 55> MaxIter 1000
| 56> end
| 57>
| 58> * xyz 0 1
| 59>   C                    : 3.918612             -5.045741            2.896027
| 60>   O                    : 4.275113             -3.748419            2.773380
| 61>   H                    : 5.177996             -3.619790            2.820687
| 62>   H                    : 3.911424             -5.560728            1.980114
| 63>   H                    : 4.669848             -5.508734            3.468600
| 64>   H                    : 2.869578             -5.280809            3.312576
| 65>   C                      0.088638             -8.580864            3.565834
| 66>   O                      -0.416962            -9.781214            4.042133
| 67>   H                      0.283125             -10.405969           4.167854
| 68>   H                      0.607699             -8.089374            4.431848
| 69>   H                      0.832034             -8.764775            2.845523
| 70>   H                      -0.634273            -7.836461            3.171717
| 71> *
| 72>
| 73>                          ****END OF INPUT****
 Total Charge           Charge          ....    0
 Multiplicity           Mult            ....    1
 Number of Electrons    NEL             ....   36
Dispersion correction           -0.000676945
FINAL SINGLE POINT ENERGY      -231.452315814730
Dispersion correction           -0.000218031
FINAL SINGLE POINT ENERGY      -115.721934697697

CARTESIAN COORDINATES (ANGSTROEM)
---------------------------------
  C      3.918612   -5.045741    2.896027
  O      4.275113   -3.748419    2.773380
  H      5.177996   -3.619790    2.820687
  H      3.911424   -5.560728    1.980114
  H      4.669848   -5.508734    3.468600
  H      2.869578   -5.280809    3.312576
  C      0.088638   -8.580864    3.565834
  O     -0.416962   -9.781214    4.042133
  H      0.283125  -10.405969    4.167854
  H      0.607699   -8.089374    4.431848
  H      0.832034   -8.764775    2.845523
  H     -0.634273   -7.836461    3.171717

 Multiplicity           Mult            ....    1
 Number of Electrons    NEL             ....   18
 Basis Dimension        Dim             ....  172

ORBITAL ENERGIES
----------------

  NO   OCC          E(Eh)            E(eV)
   0   2.0000     -19.226190      -523.1712
   1   2.0000     -10.310849      -280.5725
   2   2.0000      -1.145668       -31.1752
   3   2.0000      -0.796148       -21.6643
   4   2.0000      -0.619392       -16.8545
   5   2.0000      -0.541918       -14.7463
   6   2.0000      -0.537306       -14.6209
   7   2.0000      -0.428857       -11.6698
   8   2.0000      -0.366942        -9.9850
   9   0.0000       0.083154         2.2627
  10   0.0000       0.115805         3.1512
  11   0.0000       0.138204         3.7607
  12   0.0000       0.175053         4.7634
  13   0.0000       0.189970         5.1693

MULLIKEN ATOMIC CHARGES
-----------------------
   0 C :    0.000074
   1 O :   -0.000002
   2 H :   -0.000000
   3 H :   -0.000026
   4 H :   -0.000006
   5 H :   -0.000207
   6 C :   -0.165687
   7 O :   -0.472112
   8 H :    0.316779
   9 H :    0.092280
  10 H :    0.106221
  11 H :    0.122686
Sum of atomic charges:    0.0000000

LOEWDIN ATOMIC CHARGES
----------------------
   0 C :   -0.000065
   1 O :   -0.000001
   2 H :   -0.000000
   3 H :   -0.000010
   4 H :   -0.000002
   5 H :   -0.000188
   6 C :   -0.404009
   7 O :   -0.054945
   8 H :    0.163750
   9 H :    0.098528
  10 H :    0.084800
  11 H :    0.112142

  Mayer bond orders larger than 0.1
B(  6-C ,  7-O ) :   0.9935 B(  6-C ,  9-H ) :   0.9856 B(  6-C , 10-H ) :   0.9828
B(  6-C , 11-H ) :   0.9662 B(  7-O ,  8-H ) :   0.8972

Dispersion correction           -0.000221305
FINAL SINGLE POINT ENERGY      -115.730220350913

DIPOLE MOMENT
-------------
                                X             Y             Z
Electronic contribution:     -0.88934      -1.55278       0.46953
Nuclear contribution   :      1.54529       1.60660      -0.59912
                        -----------------------------------------
Total Dipole Moment    :      0.65595       0.05382      -0.12959
                        -----------------------------------------
Magnitude (a.u.)       :      0.67079
Magnitude (Debye)      :      1.70501

Rotational constants in cm-1:     4.400664     0.854128     0.823027
Rotational constants in MHz : 131928.589009 25606.099634 24673.716338

                             ****ORCA TERMINATED NORMALLY****
TOTAL RUN TIME: 0 days 0 hours 1 minutes 4 seconds 499 msec
