                         Program Version 4.1.2  - RELEASE  -
|  1> #Run DFT-D3 single point of the dimer
|  2> ! wB97X-D3 def2-TZVP TIGHTSCF CHELPG PMODEL PAL8
|  3>
|  4> %base "13-173_DFT_AB"
|  5>
|  6> %scf
|  7> MaxIter 1000
|  8> end
|  9>
| 10> * xyz 0 1
| 11>   C                      7.836181             7.529676             0.058781
| 12>   O                      7.949878             8.883040             0.619364
| 13>   H                      7.217825             9.387910             0.332448
| 14>   H                      7.332988             7.589105             -0.945049
| 15>   H                      8.811352             6.978332             0.054858
| 16>   H                      7.241459             6.823541             0.671581
| 17>   C                      4.872271             10.573081            -0.495823
| 18>   O                      6.140193             11.241732            -0.408092
| 19>   H                      6.243924             11.699267            -1.281338
| 20>   H                      4.096894             11.111086            0.093814
| 21>   H                      4.567243             10.452010            -1.490677
| 22>   H                      5.037265             9.518633             -0.131387
| 23> *
| 24>
| 25> #Run DFT-D3 single point of the molecule with dimer basis set
| 26> $new_job
| 27> %base "13-173_DFT_A"
| 28> ! wB97X-D3 def2-TZVP TIGHTSCF CHELPG PMODEL
| 29>
| 30> %scf
| 31> MaxIter 1000
| 32> end
| 33>
| 34> * xyz 0 1
| 35>   C                      7.836181             7.529676             0.058781
| 36>   O                      7.949878             8.883040             0.619364
| 37>   H                      7.217825             9.387910             0.332448
| 38>   H                      7.332988             7.589105             -0.945049
| 39>   H                      8.811352             6.978332             0.054858
| 40>   H                      7.241459             6.823541             0.671581
| 41>   C                    : 4.872271             10.573081            -0.495823
| 42>   O                    : 6.140193             11.241732            -0.408092
| 43>   H                    : 6.243924             11.699267            -1.281338
| 44>   H                    : 4.096894             11.111086            0.093814
| 45>   H                    : 4.567243             10.452010            -1.490677
| 46>   H                    : 5.037265             9.518633             -0.131387
| 47> *
| 48>
| 49> #Run DFT-D3 single point of the particle with dimer basis set
| 50> $new_job
| 51> %base "13-173_DFT_B"
| 52> ! wB97X-D3 def2-TZVP TIGHTSCF CHELPG PMODEL
| 53>
| 54> %scf
| 55> MaxIter 1000
| 56> end
| 57>
| 58> * xyz 0 1
| 59>   C                    : 7.836181             7.529676             0.058781
| 60>   O                    : 7.949878             8.883040             0.619364
| 61>   H                    : 7.217825             9.387910             0.332448
| 62>   H                    : 7.332988             7.589105             -0.945049
| 63>   H                    : 8.811352             6.978332             0.054858
| 64>   H                    : 7.241459             6.823541             0.671581
| 65>   C                      4.872271             10.573081            -0.495823
| 66>   O                      6.140193             11.241732            -0.408092
| 67>   H                      6.243924             11.699267            -1.281338
| 68>   H                      4.096894             11.111086            0.093814
| 69>   H                      4.567243             10.452010            -1.490677
| 70>   H                      5.037265             9.518633             -0.131387
| 71> *
| 72>
| 73>                          ****END OF INPUT****
 Total Charge           Charge          ....    0
 Multiplicity           Mult            ....    1
 Number of Electrons    NEL             ....   36
Dispersion correction           -0.001817097
FINAL SINGLE POINT ENERGY      -231.465042159733
Dispersion correction           -0.000284559
FINAL SINGLE POINT ENERGY      -115.729252841818

CARTESIAN COORDINATES (ANGSTROEM)
---------------------------------
  C      7.836181    7.529676    0.058781
  O      7.949878    8.883040    0.619364
  H      7.217825    9.387910    0.332448
  H      7.332988    7.589105   -0.945049
  H      8.811352    6.978332    0.054858
  H      7.241459    6.823541    0.671581
  C      4.872271   10.573081   -0.495823
  O      6.140193   11.241732   -0.408092
  H      6.243924   11.699267   -1.281338
  H      4.096894   11.111086    0.093814
  H      4.567243   10.452010   -1.490677
  H      5.037265    9.518633   -0.131387

 Multiplicity           Mult            ....    1
 Number of Electrons    NEL             ....   18
 Basis Dimension        Dim             ....  172

ORBITAL ENERGIES
----------------

  NO   OCC          E(Eh)            E(eV)
   0   2.0000     -19.233046      -523.3578
   1   2.0000     -10.314677      -280.6766
   2   2.0000      -1.125758       -30.6334
   3   2.0000      -0.791532       -21.5387
   4   2.0000      -0.607169       -16.5219
   5   2.0000      -0.542266       -14.7558
   6   2.0000      -0.515154       -14.0181
   7   2.0000      -0.437683       -11.9100
   8   2.0000      -0.374138       -10.1808
   9   0.0000       0.090937         2.4745
  10   0.0000       0.116781         3.1778
  11   0.0000       0.154053         4.1920
  12   0.0000       0.182988         4.9794
  13   0.0000       0.196625         5.3504

MULLIKEN ATOMIC CHARGES
-----------------------
   0 C :   -0.001092
   1 O :   -0.001695
   2 H :    0.000782
   3 H :   -0.000101
   4 H :   -0.000039
   5 H :   -0.000125
   6 C :   -0.171358
   7 O :   -0.473382
   8 H :    0.314208
   9 H :    0.108947
  10 H :    0.112420
  11 H :    0.111434
Sum of atomic charges:    0.0000000

LOEWDIN ATOMIC CHARGES
----------------------
   0 C :   -0.001538
   1 O :   -0.002825
   2 H :   -0.018945
   3 H :   -0.000293
   4 H :   -0.000009
   5 H :   -0.000078
   6 C :   -0.369965
   7 O :   -0.092949
   8 H :    0.185707
   9 H :    0.102352
  10 H :    0.085422
  11 H :    0.113121

  Mayer bond orders larger than 0.1
B(  6-C ,  7-O ) :   0.9974 B(  6-C ,  9-H ) :   0.9719 B(  6-C , 10-H ) :   0.9809
B(  6-C , 11-H ) :   0.9802 B(  7-O ,  8-H ) :   0.8982

Dispersion correction           -0.000248196
FINAL SINGLE POINT ENERGY      -115.731620553595

DIPOLE MOMENT
-------------
                                X             Y             Z
Electronic contribution:      1.55252       0.86105       0.22037
Nuclear contribution   :     -1.99245      -0.84741      -0.84102
                        -----------------------------------------
Total Dipole Moment    :     -0.43993       0.01364      -0.62064
                        -----------------------------------------
Magnitude (a.u.)       :      0.76087
Magnitude (Debye)      :      1.93398

Rotational constants in cm-1:     4.145054     0.811338     0.790841
Rotational constants in MHz : 124265.582632 24323.310585 23708.807020

                             ****ORCA TERMINATED NORMALLY****
TOTAL RUN TIME: 0 days 0 hours 1 minutes 10 seconds 6 msec
