                         Program Version 4.1.2  - RELEASE  -
|  1> #Run DFT-D3 single point of the dimer
|  2> ! wB97X-D3 def2-TZVP TIGHTSCF CHELPG PMODEL PAL8
|  3>
|  4> %base "17-177_DFT_AB"
|  5>
|  6> %scf
|  7> MaxIter 1000
|  8> end
|  9>
| 10> * xyz 0 1
| 11>   C                      -7.515037            5.582148             -3.315397
| 12>   O                      -6.525730            6.413087             -2.809489
| 13>   H                      -7.074586            7.115565             -2.361742
| 14>   H                      -8.167895            5.167696             -2.554163
| 15>   H                      -8.144789            6.128681             -3.981779
| 16>   H                      -7.049836            4.735349             -3.887886
| 17>   C                      -5.029409            7.140307             0.230645
| 18>   O                      -4.528668            6.399500             -0.843343
| 19>   H                      -5.133241            6.355944             -1.571770
| 20>   H                      -4.607579            8.125163             0.355896
| 21>   H                      -6.080625            7.279738             -0.019512
| 22>   H                      -5.097532            6.494888             1.135845
| 23> *
| 24>
| 25> #Run DFT-D3 single point of the molecule with dimer basis set
| 26> $new_job
| 27> %base "17-177_DFT_A"
| 28> ! wB97X-D3 def2-TZVP TIGHTSCF CHELPG PMODEL
| 29>
| 30> %scf
| 31> MaxIter 1000
| 32> end
| 33>
| 34> * xyz 0 1
| 35>   C                      -7.515037            5.582148             -3.315397
| 36>   O                      -6.525730            6.413087             -2.809489
| 37>   H                      -7.074586            7.115565             -2.361742
| 38>   H                      -8.167895            5.167696             -2.554163
| 39>   H                      -8.144789            6.128681             -3.981779
| 40>   H                      -7.049836            4.735349             -3.887886
| 41>   C                    : -5.029409            7.140307             0.230645
| 42>   O                    : -4.528668            6.399500             -0.843343
| 43>   H                    : -5.133241            6.355944             -1.571770
| 44>   H                    : -4.607579            8.125163             0.355896
| 45>   H                    : -6.080625            7.279738             -0.019512
| 46>   H                    : -5.097532            6.494888             1.135845
| 47> *
| 48>
| 49> #Run DFT-D3 single point of the particle with dimer basis set
| 50> $new_job
| 51> %base "17-177_DFT_B"
| 52> ! wB97X-D3 def2-TZVP TIGHTSCF CHELPG PMODEL
| 53>
| 54> %scf
| 55> MaxIter 1000
| 56> end
| 57>
| 58> * xyz 0 1
| 59>   C                    : -7.515037            5.582148             -3.315397
| 60>   O                    : -6.525730            6.413087             -2.809489
| 61>   H                    : -7.074586            7.115565             -2.361742
| 62>   H                    : -8.167895            5.167696             -2.554163
| 63>   H                    : -8.144789            6.128681             -3.981779
| 64>   H                    : -7.049836            4.735349             -3.887886
| 65>   C                      -5.029409            7.140307             0.230645
| 66>   O                      -4.528668            6.399500             -0.843343
| 67>   H                      -5.133241            6.355944             -1.571770
| 68>   H                      -4.607579            8.125163             0.355896
| 69>   H                      -6.080625            7.279738             -0.019512
| 70>   H                      -5.097532            6.494888             1.135845
| 71> *
| 72>
| 73>                          ****END OF INPUT****
 Total Charge           Charge          ....    0
 Multiplicity           Mult            ....    1
 Number of Electrons    NEL             ....   36
Dispersion correction           -0.001722287
FINAL SINGLE POINT ENERGY      -231.468639847421
Dispersion correction           -0.000208847
FINAL SINGLE POINT ENERGY      -115.732853037539

CARTESIAN COORDINATES (ANGSTROEM)
---------------------------------
  C     -7.515037    5.582148   -3.315397
  O     -6.525730    6.413087   -2.809489
  H     -7.074586    7.115565   -2.361742
  H     -8.167895    5.167696   -2.554163
  H     -8.144789    6.128681   -3.981779
  H     -7.049836    4.735349   -3.887886
  C     -5.029409    7.140307    0.230645
  O     -4.528668    6.399500   -0.843343
  H     -5.133241    6.355944   -1.571770
  H     -4.607579    8.125163    0.355896
  H     -6.080625    7.279738   -0.019512
  H     -5.097532    6.494888    1.135845

 Multiplicity           Mult            ....    1
 Number of Electrons    NEL             ....   18
 Basis Dimension        Dim             ....  172

ORBITAL ENERGIES
----------------

  NO   OCC          E(Eh)            E(eV)
   0   2.0000     -19.224994      -523.1387
   1   2.0000     -10.312554      -280.6189
   2   2.0000      -1.140526       -31.0353
   3   2.0000      -0.797048       -21.6888
   4   2.0000      -0.617111       -16.7924
   5   2.0000      -0.553975       -15.0744
   6   2.0000      -0.526692       -14.3320
   7   2.0000      -0.414394       -11.2762
   8   2.0000      -0.376919       -10.2565
   9   0.0000       0.068447         1.8625
  10   0.0000       0.130747         3.5578
  11   0.0000       0.151996         4.1360
  12   0.0000       0.171548         4.6680
  13   0.0000       0.189614         5.1596

MULLIKEN ATOMIC CHARGES
-----------------------
   0 C :   -0.002016
   1 O :   -0.006772
   2 H :   -0.000169
   3 H :    0.000044
   4 H :    0.000006
   5 H :    0.000229
   6 C :   -0.148928
   7 O :   -0.481778
   8 H :    0.321644
   9 H :    0.111551
  10 H :    0.095541
  11 H :    0.110650
Sum of atomic charges:   -0.0000000

LOEWDIN ATOMIC CHARGES
----------------------
   0 C :   -0.002519
   1 O :   -0.024063
   2 H :   -0.003666
   3 H :   -0.000089
   4 H :   -0.000084
   5 H :   -0.000070
   6 C :   -0.389734
   7 O :   -0.052414
   8 H :    0.171134
   9 H :    0.095843
  10 H :    0.097644
  11 H :    0.108018

  Mayer bond orders larger than 0.1
B(  6-C ,  7-O ) :   0.9895 B(  6-C ,  9-H ) :   0.9663 B(  6-C , 10-H ) :   0.9961
B(  6-C , 11-H ) :   0.9735 B(  7-O ,  8-H ) :   0.9046

Dispersion correction           -0.000235888
FINAL SINGLE POINT ENERGY      -115.729066965042

DIPOLE MOMENT
-------------
                                X             Y             Z
Electronic contribution:      0.95170      -0.86313      -1.23323
Nuclear contribution   :     -1.59139       1.13222       1.16667
                        -----------------------------------------
Total Dipole Moment    :     -0.63969       0.26909      -0.06655
                        -----------------------------------------
Magnitude (a.u.)       :      0.69717
Magnitude (Debye)      :      1.77206

Rotational constants in cm-1:     4.345943     0.839692     0.825770
Rotational constants in MHz : 130288.098870 25173.338235 24755.950354

                             ****ORCA TERMINATED NORMALLY****
TOTAL RUN TIME: 0 days 0 hours 1 minutes 6 seconds 193 msec
