                         Program Version 4.1.2  - RELEASE  -
|  1> #Run DFT-D3 single point of the dimer
|  2> ! wB97X-D3 def2-TZVP TIGHTSCF CHELPG PMODEL PAL8
|  3>
|  4> %base "6-134_DFT_AB"
|  5>
|  6> %scf
|  7> MaxIter 1000
|  8> end
|  9>
| 10> * xyz 0 1
| 11>   C                      5.799702             10.013961            -6.139659
| 12>   O                      6.314410             9.354648             -5.022214
| 13>   H                      6.679682             8.539401             -5.378463
| 14>   H                      5.031475             9.459829             -6.584512
| 15>   H                      5.568476             11.039382            -5.914100
| 16>   H                      6.622979             10.145301            -6.957438
| 17>   C                      7.979355             10.539657            -1.674180
| 18>   O                      7.395987             11.167816            -2.753438
| 19>   H                      6.620178             10.684902            -2.962992
| 20>   H                      7.322620             10.332398            -0.809915
| 21>   H                      8.598384             9.662640             -1.905952
| 22>   H                      8.736570             11.278372            -1.358240
| 23> *
| 24>
| 25> #Run DFT-D3 single point of the molecule with dimer basis set
| 26> $new_job
| 27> %base "6-134_DFT_A"
| 28> ! wB97X-D3 def2-TZVP TIGHTSCF CHELPG PMODEL
| 29>
| 30> %scf
| 31> MaxIter 1000
| 32> end
| 33>
| 34> * xyz 0 1
| 35>   C                      5.799702             10.013961            -6.139659
| 36>   O                      6.314410             9.354648             -5.022214
| 37>   H                      6.679682             8.539401             -5.378463
| 38>   H                      5.031475             9.459829             -6.584512
| 39>   H                      5.568476             11.039382            -5.914100
| 40>   H                      6.622979             10.145301            -6.957438
| 41>   C                    : 7.979355             10.539657            -1.674180
| 42>   O                    : 7.395987             11.167816            -2.753438
| 43>   H                    : 6.620178             10.684902            -2.962992
| 44>   H                    : 7.322620             10.332398            -0.809915
| 45>   H                    : 8.598384             9.662640             -1.905952
| 46>   H                    : 8.736570             11.278372            -1.358240
| 47> *
| 48>
| 49> #Run DFT-D3 single point of the particle with dimer basis set
| 50> $new_job
| 51> %base "6-134_DFT_B"
| 52> ! wB97X-D3 def2-TZVP TIGHTSCF CHELPG PMODEL
| 53>
| 54> %scf
| 55> MaxIter 1000
| 56> end
| 57>
| 58> * xyz 0 1
| 59>   C                    : 5.799702             10.013961            -6.139659
| 60>   O                    : 6.314410             9.354648             -5.022214
| 61>   H                    : 6.679682             8.539401             -5.378463
| 62>   H                    : 5.031475             9.459829             -6.584512
| 63>   H                    : 5.568476             11.039382            -5.914100
| 64>   H                    : 6.622979             10.145301            -6.957438
| 65>   C                      7.979355             10.539657            -1.674180
| 66>   O                      7.395987             11.167816            -2.753438
| 67>   H                      6.620178             10.684902            -2.962992
| 68>   H                      7.322620             10.332398            -0.809915
| 69>   H                      8.598384             9.662640             -1.905952
| 70>   H                      8.736570             11.278372            -1.358240
| 71> *
| 72>
| 73>                          ****END OF INPUT****
 Total Charge           Charge          ....    0
 Multiplicity           Mult            ....    1
 Number of Electrons    NEL             ....   36
Dispersion correction           -0.001445080
FINAL SINGLE POINT ENERGY      -231.466926352380
Dispersion correction           -0.000218250
FINAL SINGLE POINT ENERGY      -115.730455870000

CARTESIAN COORDINATES (ANGSTROEM)
---------------------------------
  C      5.799702   10.013961   -6.139659
  O      6.314410    9.354648   -5.022214
  H      6.679682    8.539401   -5.378463
  H      5.031475    9.459829   -6.584512
  H      5.568476   11.039382   -5.914100
  H      6.622979   10.145301   -6.957438
  C      7.979355   10.539657   -1.674180
  O      7.395987   11.167816   -2.753438
  H      6.620178   10.684902   -2.962992
  H      7.322620   10.332398   -0.809915
  H      8.598384    9.662640   -1.905952
  H      8.736570   11.278372   -1.358240

 Multiplicity           Mult            ....    1
 Number of Electrons    NEL             ....   18
 Basis Dimension        Dim             ....  172

ORBITAL ENERGIES
----------------

  NO   OCC          E(Eh)            E(eV)
   0   2.0000     -19.232830      -523.3519
   1   2.0000     -10.311397      -280.5874
   2   2.0000      -1.155382       -31.4395
   3   2.0000      -0.795779       -21.6542
   4   2.0000      -0.621903       -16.9228
   5   2.0000      -0.546922       -14.8825
   6   2.0000      -0.526145       -14.3171
   7   2.0000      -0.432682       -11.7739
   8   2.0000      -0.376245       -10.2382
   9   0.0000       0.080334         2.1860
  10   0.0000       0.126909         3.4534
  11   0.0000       0.153821         4.1857
  12   0.0000       0.167046         4.5456
  13   0.0000       0.194861         5.3024

MULLIKEN ATOMIC CHARGES
-----------------------
   0 C :   -0.003396
   1 O :   -0.002183
   2 H :   -0.000221
   3 H :    0.000018
   4 H :   -0.000040
   5 H :    0.000217
   6 C :   -0.170127
   7 O :   -0.449503
   8 H :    0.310266
   9 H :    0.103215
  10 H :    0.096763
  11 H :    0.114990
Sum of atomic charges:    0.0000000

LOEWDIN ATOMIC CHARGES
----------------------
   0 C :   -0.002237
   1 O :   -0.007390
   2 H :   -0.000453
   3 H :   -0.000052
   4 H :   -0.000314
   5 H :   -0.000038
   6 C :   -0.421999
   7 O :   -0.027857
   8 H :    0.157238
   9 H :    0.096040
  10 H :    0.093374
  11 H :    0.113688

  Mayer bond orders larger than 0.1
B(  6-C ,  7-O ) :   1.0143 B(  6-C ,  9-H ) :   0.9745 B(  6-C , 10-H ) :   0.9663
B(  6-C , 11-H ) :   0.9802 B(  7-O ,  8-H ) :   0.9047

Dispersion correction           -0.000241047
FINAL SINGLE POINT ENERGY      -115.733269616617

DIPOLE MOMENT
-------------
                                X             Y             Z
Electronic contribution:     -0.83598       0.82145      -1.46367
Nuclear contribution   :      0.56447      -1.33657       1.73530
                        -----------------------------------------
Total Dipole Moment    :     -0.27150      -0.51511       0.27164
                        -----------------------------------------
Magnitude (a.u.)       :      0.64253
Magnitude (Debye)      :      1.63318

Rotational constants in cm-1:     4.336340     0.863894     0.833433
Rotational constants in MHz : 130000.190730 25898.887153 24985.702553

                             ****ORCA TERMINATED NORMALLY****
TOTAL RUN TIME: 0 days 0 hours 1 minutes 4 seconds 684 msec
