                         Program Version 4.1.2  - RELEASE  -
|  1> #Run DFT-D3 single point of the dimer
|  2> ! wB97X-D3 def2-TZVP TIGHTSCF CHELPG PMODEL PAL8
|  3>
|  4> %base "3-37_DFT_AB"
|  5>
|  6> %scf
|  7> MaxIter 1000
|  8> end
|  9>
| 10> * xyz 0 1
| 11>   C                      -4.983724            -1.861540            -7.037725
| 12>   O                      -5.308556            -0.500746            -6.993364
| 13>   H                      -5.230599            -0.272961            -7.890385
| 14>   H                      -4.141318            -2.148880            -7.659056
| 15>   H                      -4.764248            -2.337265            -6.067641
| 16>   H                      -5.873911            -2.396272            -7.501663
| 17>   C                      -4.685835            -4.218706            -1.905755
| 18>   O                      -5.620403            -4.875687            -1.045612
| 19>   H                      -6.175920            -5.416958            -1.549472
| 20>   H                      -3.776749            -4.781768            -1.666579
| 21>   H                      -4.911927            -4.250010            -2.974445
| 22>   H                      -4.583469            -3.144852            -1.605303
| 23> *
| 24>
| 25> #Run DFT-D3 single point of the molecule with dimer basis set
| 26> $new_job
| 27> %base "3-37_DFT_A"
| 28> ! wB97X-D3 def2-TZVP TIGHTSCF CHELPG PMODEL
| 29>
| 30> %scf
| 31> MaxIter 1000
| 32> end
| 33>
| 34> * xyz 0 1
| 35>   C                      -4.983724            -1.861540            -7.037725
| 36>   O                      -5.308556            -0.500746            -6.993364
| 37>   H                      -5.230599            -0.272961            -7.890385
| 38>   H                      -4.141318            -2.148880            -7.659056
| 39>   H                      -4.764248            -2.337265            -6.067641
| 40>   H                      -5.873911            -2.396272            -7.501663
| 41>   C                    : -4.685835            -4.218706            -1.905755
| 42>   O                    : -5.620403            -4.875687            -1.045612
| 43>   H                    : -6.175920            -5.416958            -1.549472
| 44>   H                    : -3.776749            -4.781768            -1.666579
| 45>   H                    : -4.911927            -4.250010            -2.974445
| 46>   H                    : -4.583469            -3.144852            -1.605303
| 47> *
| 48>
| 49> #Run DFT-D3 single point of the particle with dimer basis set
| 50> $new_job
| 51> %base "3-37_DFT_B"
| 52> ! wB97X-D3 def2-TZVP TIGHTSCF CHELPG PMODEL
| 53>
| 54> %scf
| 55> MaxIter 1000
| 56> end
| 57>
| 58> * xyz 0 1
| 59>   C                    : -4.983724            -1.861540            -7.037725
| 60>   O                    : -5.308556            -0.500746            -6.993364
| 61>   H                    : -5.230599            -0.272961            -7.890385
| 62>   H                    : -4.141318            -2.148880            -7.659056
| 63>   H                    : -4.764248            -2.337265            -6.067641
| 64>   H                    : -5.873911            -2.396272            -7.501663
| 65>   C                      -4.685835            -4.218706            -1.905755
| 66>   O                      -5.620403            -4.875687            -1.045612
| 67>   H                      -6.175920            -5.416958            -1.549472
| 68>   H                      -3.776749            -4.781768            -1.666579
| 69>   H                      -4.911927            -4.250010            -2.974445
| 70>   H                      -4.583469            -3.144852            -1.605303
| 71> *
| 72>
| 73>                          ****END OF INPUT****
 Total Charge           Charge          ....    0
 Multiplicity           Mult            ....    1
 Number of Electrons    NEL             ....   36
Dispersion correction           -0.000640087
FINAL SINGLE POINT ENERGY      -231.460045783966
Dispersion correction           -0.000226256
FINAL SINGLE POINT ENERGY      -115.729571717200

CARTESIAN COORDINATES (ANGSTROEM)
---------------------------------
  C     -4.983724   -1.861540   -7.037725
  O     -5.308556   -0.500746   -6.993364
  H     -5.230599   -0.272961   -7.890385
  H     -4.141318   -2.148880   -7.659056
  H     -4.764248   -2.337265   -6.067641
  H     -5.873911   -2.396272   -7.501663
  C     -4.685835   -4.218706   -1.905755
  O     -5.620403   -4.875687   -1.045612
  H     -6.175920   -5.416958   -1.549472
  H     -3.776749   -4.781768   -1.666579
  H     -4.911927   -4.250010   -2.974445
  H     -4.583469   -3.144852   -1.605303

 Multiplicity           Mult            ....    1
 Number of Electrons    NEL             ....   18
 Basis Dimension        Dim             ....  172

ORBITAL ENERGIES
----------------

  NO   OCC          E(Eh)            E(eV)
   0   2.0000     -19.222625      -523.0742
   1   2.0000     -10.316382      -280.7230
   2   2.0000      -1.136453       -30.9244
   3   2.0000      -0.796185       -21.6653
   4   2.0000      -0.612582       -16.6692
   5   2.0000      -0.542297       -14.7566
   6   2.0000      -0.517770       -14.0892
   7   2.0000      -0.437681       -11.9099
   8   2.0000      -0.369322       -10.0498
   9   0.0000       0.082121         2.2346
  10   0.0000       0.117362         3.1936
  11   0.0000       0.142067         3.8658
  12   0.0000       0.170226         4.6321
  13   0.0000       0.185772         5.0551

MULLIKEN ATOMIC CHARGES
-----------------------
   0 C :    0.000114
   1 O :   -0.000001
   2 H :    0.000000
   3 H :   -0.000007
   4 H :   -0.000293
   5 H :   -0.000006
   6 C :   -0.175985
   7 O :   -0.473506
   8 H :    0.306629
   9 H :    0.115055
  10 H :    0.113252
  11 H :    0.114747
Sum of atomic charges:   -0.0000000

LOEWDIN ATOMIC CHARGES
----------------------
   0 C :   -0.000032
   1 O :   -0.000001
   2 H :   -0.000000
   3 H :   -0.000000
   4 H :   -0.000220
   5 H :   -0.000001
   6 C :   -0.372709
   7 O :   -0.076923
   8 H :    0.141152
   9 H :    0.103880
  10 H :    0.095840
  11 H :    0.109013

  Mayer bond orders larger than 0.1
B(  6-C ,  7-O ) :   0.9878 B(  6-C ,  9-H ) :   0.9860 B(  6-C , 10-H ) :   0.9726
B(  6-C , 11-H ) :   0.9703 B(  7-O ,  8-H ) :   0.9099

Dispersion correction           -0.000245941
FINAL SINGLE POINT ENERGY      -115.730407318083

DIPOLE MOMENT
-------------
                                X             Y             Z
Electronic contribution:     -1.16469      -0.73036       1.04996
Nuclear contribution   :      1.16662       0.63703      -1.74697
                        -----------------------------------------
Total Dipole Moment    :      0.00193      -0.09332      -0.69701
                        -----------------------------------------
Magnitude (a.u.)       :      0.70323
Magnitude (Debye)      :      1.78747

Rotational constants in cm-1:     4.251637     0.820546     0.795518
Rotational constants in MHz : 127460.866542 24599.336858 23849.031440

                             ****ORCA TERMINATED NORMALLY****
TOTAL RUN TIME: 0 days 0 hours 6 minutes 7 seconds 27 msec
