                         Program Version 4.1.2  - RELEASE  -
|  1> #Run DFT-D3 single point of the dimer
|  2> ! wB97X-D3 def2-TZVP TIGHTSCF CHELPG PMODEL PAL8
|  3>
|  4> %base "20-42_DFT_AB"
|  5>
|  6> %scf
|  7> MaxIter 1000
|  8> end
|  9>
| 10> * xyz 0 1
| 11>   C                      -6.460874            11.317236            1.150653
| 12>   O                      -5.386241            11.510456            1.972449
| 13>   H                      -4.744983            10.797700            1.904435
| 14>   H                      -6.718436            10.244920            1.063984
| 15>   H                      -7.330148            11.972840            1.477804
| 16>   H                      -6.265406            11.552220            0.117566
| 17>   C                      -9.444903            7.118559             2.009416
| 18>   O                      -9.564462            7.870914             0.833202
| 19>   H                      -10.191301           8.543669             0.980895
| 20>   H                      -10.220304           7.259219             2.739813
| 21>   H                      -9.396842            6.043823             1.817411
| 22>   H                      -8.487909            7.302932             2.560824
| 23> *
| 24>
| 25> #Run DFT-D3 single point of the molecule with dimer basis set
| 26> $new_job
| 27> %base "20-42_DFT_A"
| 28> ! wB97X-D3 def2-TZVP TIGHTSCF CHELPG PMODEL
| 29>
| 30> %scf
| 31> MaxIter 1000
| 32> end
| 33>
| 34> * xyz 0 1
| 35>   C                      -6.460874            11.317236            1.150653
| 36>   O                      -5.386241            11.510456            1.972449
| 37>   H                      -4.744983            10.797700            1.904435
| 38>   H                      -6.718436            10.244920            1.063984
| 39>   H                      -7.330148            11.972840            1.477804
| 40>   H                      -6.265406            11.552220            0.117566
| 41>   C                    : -9.444903            7.118559             2.009416
| 42>   O                    : -9.564462            7.870914             0.833202
| 43>   H                    : -10.191301           8.543669             0.980895
| 44>   H                    : -10.220304           7.259219             2.739813
| 45>   H                    : -9.396842            6.043823             1.817411
| 46>   H                    : -8.487909            7.302932             2.560824
| 47> *
| 48>
| 49> #Run DFT-D3 single point of the particle with dimer basis set
| 50> $new_job
| 51> %base "20-42_DFT_B"
| 52> ! wB97X-D3 def2-TZVP TIGHTSCF CHELPG PMODEL
| 53>
| 54> %scf
| 55> MaxIter 1000
| 56> end
| 57>
| 58> * xyz 0 1
| 59>   C                    : -6.460874            11.317236            1.150653
| 60>   O                    : -5.386241            11.510456            1.972449
| 61>   H                    : -4.744983            10.797700            1.904435
| 62>   H                    : -6.718436            10.244920            1.063984
| 63>   H                    : -7.330148            11.972840            1.477804
| 64>   H                    : -6.265406            11.552220            0.117566
| 65>   C                      -9.444903            7.118559             2.009416
| 66>   O                      -9.564462            7.870914             0.833202
| 67>   H                      -10.191301           8.543669             0.980895
| 68>   H                      -10.220304           7.259219             2.739813
| 69>   H                      -9.396842            6.043823             1.817411
| 70>   H                      -8.487909            7.302932             2.560824
| 71> *
| 72>
| 73>                          ****END OF INPUT****
 Total Charge           Charge          ....    0
 Multiplicity           Mult            ....    1
 Number of Electrons    NEL             ....   36
Dispersion correction           -0.000861221
FINAL SINGLE POINT ENERGY      -231.465838364707
Dispersion correction           -0.000234421
FINAL SINGLE POINT ENERGY      -115.731539621449

CARTESIAN COORDINATES (ANGSTROEM)
---------------------------------
  C     -6.460874   11.317236    1.150653
  O     -5.386241   11.510456    1.972449
  H     -4.744983   10.797700    1.904435
  H     -6.718436   10.244920    1.063984
  H     -7.330148   11.972840    1.477804
  H     -6.265406   11.552220    0.117566
  C     -9.444903    7.118559    2.009416
  O     -9.564462    7.870914    0.833202
  H    -10.191301    8.543669    0.980895
  H    -10.220304    7.259219    2.739813
  H     -9.396842    6.043823    1.817411
  H     -8.487909    7.302932    2.560824

 Multiplicity           Mult            ....    1
 Number of Electrons    NEL             ....   18
 Basis Dimension        Dim             ....  172

ORBITAL ENERGIES
----------------

  NO   OCC          E(Eh)            E(eV)
   0   2.0000     -19.231954      -523.3281
   1   2.0000     -10.312744      -280.6240
   2   2.0000      -1.147827       -31.2340
   3   2.0000      -0.800041       -21.7702
   4   2.0000      -0.623321       -16.9614
   5   2.0000      -0.533830       -14.5263
   6   2.0000      -0.531769       -14.4702
   7   2.0000      -0.439202       -11.9513
   8   2.0000      -0.373050       -10.1512
   9   0.0000       0.089297         2.4299
  10   0.0000       0.119462         3.2507
  11   0.0000       0.150299         4.0898
  12   0.0000       0.170905         4.6506
  13   0.0000       0.185275         5.0416

MULLIKEN ATOMIC CHARGES
-----------------------
   0 C :    0.000801
   1 O :   -0.000015
   2 H :   -0.000003
   3 H :   -0.002579
   4 H :    0.000024
   5 H :   -0.000088
   6 C :   -0.180317
   7 O :   -0.458430
   8 H :    0.313184
   9 H :    0.111118
  10 H :    0.116117
  11 H :    0.100189
Sum of atomic charges:    0.0000000

LOEWDIN ATOMIC CHARGES
----------------------
   0 C :   -0.000383
   1 O :   -0.000009
   2 H :   -0.000002
   3 H :   -0.001003
   4 H :   -0.000016
   5 H :   -0.000004
   6 C :   -0.399857
   7 O :   -0.048213
   8 H :    0.153433
   9 H :    0.092172
  10 H :    0.103216
  11 H :    0.100666

  Mayer bond orders larger than 0.1
B(  6-C ,  7-O ) :   1.0142 B(  6-C ,  9-H ) :   0.9803 B(  6-C , 10-H ) :   0.9762
B(  6-C , 11-H ) :   0.9752 B(  7-O ,  8-H ) :   0.9051

Dispersion correction           -0.000257791
FINAL SINGLE POINT ENERGY      -115.733435625907

DIPOLE MOMENT
-------------
                                X             Y             Z
Electronic contribution:     -0.19718       0.99416      -1.69006
Nuclear contribution   :     -0.20041      -0.85057       2.24548
                        -----------------------------------------
Total Dipole Moment    :     -0.39759       0.14359       0.55542
                        -----------------------------------------
Magnitude (a.u.)       :      0.69799
Magnitude (Debye)      :      1.77415

Rotational constants in cm-1:     4.503482     0.831609     0.802269
Rotational constants in MHz : 135011.003007 24931.016539 24051.424977

                             ****ORCA TERMINATED NORMALLY****
TOTAL RUN TIME: 0 days 0 hours 1 minutes 8 seconds 24 msec
