                         Program Version 4.1.2  - RELEASE  -
|  1> #Run DFT-D3 single point of the dimer
|  2> ! wB97X-D3 def2-TZVP TIGHTSCF CHELPG PMODEL PAL8
|  3>
|  4> %base "12-133_DFT_AB"
|  5>
|  6> %scf
|  7> MaxIter 1000
|  8> end
|  9>
| 10> * xyz 0 1
| 11>   C                      -7.696293            1.609487             -5.820513
| 12>   O                      -7.350262            2.091528             -7.094658
| 13>   H                      -6.480464            1.701876             -7.237686
| 14>   H                      -8.568349            0.985886             -5.933055
| 15>   H                      -6.828819            0.999782             -5.470952
| 16>   H                      -7.973765            2.364178             -5.127782
| 17>   C                      -7.819457            0.426416             -10.315546
| 18>   O                      -7.990569            1.743504             -9.793378
| 19>   H                      -8.515047            1.698552             -8.973592
| 20>   H                      -6.998953            -0.118980            -9.874243
| 21>   H                      -8.737981            -0.115613            -10.095287
| 22>   H                      -7.639506            0.411101             -11.368478
| 23> *
| 24>
| 25> #Run DFT-D3 single point of the molecule with dimer basis set
| 26> $new_job
| 27> %base "12-133_DFT_A"
| 28> ! wB97X-D3 def2-TZVP TIGHTSCF CHELPG PMODEL
| 29>
| 30> %scf
| 31> MaxIter 1000
| 32> end
| 33>
| 34> * xyz 0 1
| 35>   C                      -7.696293            1.609487             -5.820513
| 36>   O                      -7.350262            2.091528             -7.094658
| 37>   H                      -6.480464            1.701876             -7.237686
| 38>   H                      -8.568349            0.985886             -5.933055
| 39>   H                      -6.828819            0.999782             -5.470952
| 40>   H                      -7.973765            2.364178             -5.127782
| 41>   C                    : -7.819457            0.426416             -10.315546
| 42>   O                    : -7.990569            1.743504             -9.793378
| 43>   H                    : -8.515047            1.698552             -8.973592
| 44>   H                    : -6.998953            -0.118980            -9.874243
| 45>   H                    : -8.737981            -0.115613            -10.095287
| 46>   H                    : -7.639506            0.411101             -11.368478
| 47> *
| 48>
| 49> #Run DFT-D3 single point of the particle with dimer basis set
| 50> $new_job
| 51> %base "12-133_DFT_B"
| 52> ! wB97X-D3 def2-TZVP TIGHTSCF CHELPG PMODEL
| 53>
| 54> %scf
| 55> MaxIter 1000
| 56> end
| 57>
| 58> * xyz 0 1
| 59>   C                    : -7.696293            1.609487             -5.820513
| 60>   O                    : -7.350262            2.091528             -7.094658
| 61>   H                    : -6.480464            1.701876             -7.237686
| 62>   H                    : -8.568349            0.985886             -5.933055
| 63>   H                    : -6.828819            0.999782             -5.470952
| 64>   H                    : -7.973765            2.364178             -5.127782
| 65>   C                      -7.819457            0.426416             -10.315546
| 66>   O                      -7.990569            1.743504             -9.793378
| 67>   H                      -8.515047            1.698552             -8.973592
| 68>   H                      -6.998953            -0.118980            -9.874243
| 69>   H                      -8.737981            -0.115613            -10.095287
| 70>   H                      -7.639506            0.411101             -11.368478
| 71> *
| 72>
| 73>                          ****END OF INPUT****
 Total Charge           Charge          ....    0
 Multiplicity           Mult            ....    1
 Number of Electrons    NEL             ....   36
Dispersion correction           -0.001685802
FINAL SINGLE POINT ENERGY      -231.467584415805
Dispersion correction           -0.000219909
FINAL SINGLE POINT ENERGY      -115.731070516498

CARTESIAN COORDINATES (ANGSTROEM)
---------------------------------
  C     -7.696293    1.609487   -5.820513
  O     -7.350262    2.091528   -7.094658
  H     -6.480464    1.701876   -7.237686
  H     -8.568349    0.985886   -5.933055
  H     -6.828819    0.999782   -5.470952
  H     -7.973765    2.364178   -5.127782
  C     -7.819457    0.426416  -10.315546
  O     -7.990569    1.743504   -9.793378
  H     -8.515047    1.698552   -8.973592
  H     -6.998953   -0.118980   -9.874243
  H     -8.737981   -0.115613  -10.095287
  H     -7.639506    0.411101  -11.368478

 Multiplicity           Mult            ....    1
 Number of Electrons    NEL             ....   18
 Basis Dimension        Dim             ....  172

ORBITAL ENERGIES
----------------

  NO   OCC          E(Eh)            E(eV)
   0   2.0000     -19.231140      -523.3059
   1   2.0000     -10.310117      -280.5526
   2   2.0000      -1.128949       -30.7203
   3   2.0000      -0.799494       -21.7553
   4   2.0000      -0.607380       -16.5277
   5   2.0000      -0.542163       -14.7530
   6   2.0000      -0.533584       -14.5196
   7   2.0000      -0.431366       -11.7381
   8   2.0000      -0.373759       -10.1705
   9   0.0000       0.076002         2.0681
  10   0.0000       0.128325         3.4919
  11   0.0000       0.150716         4.1012
  12   0.0000       0.167354         4.5539
  13   0.0000       0.198587         5.4038

MULLIKEN ATOMIC CHARGES
-----------------------
   0 C :   -0.001855
   1 O :   -0.006530
   2 H :   -0.002691
   3 H :   -0.000202
   4 H :    0.000166
   5 H :    0.000053
   6 C :   -0.168443
   7 O :   -0.474885
   8 H :    0.320849
   9 H :    0.103787
  10 H :    0.106294
  11 H :    0.123458
Sum of atomic charges:   -0.0000000

LOEWDIN ATOMIC CHARGES
----------------------
   0 C :   -0.002195
   1 O :   -0.016625
   2 H :   -0.003811
   3 H :   -0.000346
   4 H :   -0.000027
   5 H :   -0.000049
   6 C :   -0.369281
   7 O :   -0.079689
   8 H :    0.179958
   9 H :    0.092383
  10 H :    0.097833
  11 H :    0.101850

  Mayer bond orders larger than 0.1
B(  6-C ,  7-O ) :   1.0062 B(  6-C ,  9-H ) :   0.9693 B(  6-C , 10-H ) :   0.9919
B(  6-C , 11-H ) :   0.9731 B(  7-O ,  8-H ) :   0.8945

Dispersion correction           -0.000242458
FINAL SINGLE POINT ENERGY      -115.734411923802

DIPOLE MOMENT
-------------
                                X             Y             Z
Electronic contribution:     -0.08614       1.74125       0.47249
Nuclear contribution   :     -0.18363      -2.31933      -0.19541
                        -----------------------------------------
Total Dipole Moment    :     -0.26977      -0.57808       0.27708
                        -----------------------------------------
Magnitude (a.u.)       :      0.69550
Magnitude (Debye)      :      1.76783

Rotational constants in cm-1:     4.416994     0.819239     0.787651
Rotational constants in MHz : 132418.147112 24560.161472 23613.191530

                             ****ORCA TERMINATED NORMALLY****
TOTAL RUN TIME: 0 days 0 hours 1 minutes 9 seconds 225 msec
