                         Program Version 4.1.2  - RELEASE  -
|  1> #Run DFT-D3 single point of the dimer
|  2> ! wB97X-D3 def2-TZVP TIGHTSCF CHELPG PMODEL PAL8
|  3>
|  4> %base "14-41_DFT_AB"
|  5>
|  6> %scf
|  7> MaxIter 1000
|  8> end
|  9>
| 10> * xyz 0 1
| 11>   C                      10.841088            -7.127061            -6.891285
| 12>   O                      10.495546            -7.092162            -5.484353
| 13>   H                      9.956987             -6.291068            -5.245316
| 14>   H                      9.927392             -6.872766            -7.502368
| 15>   H                      11.640231            -6.359361            -7.120319
| 16>   H                      11.277844            -8.122326            -7.267426
| 17>   C                      7.607285             -5.451688            -4.193756
| 18>   O                      8.840122             -5.024464            -4.757572
| 19>   H                      9.236338             -4.323014            -4.290223
| 20>   H                      7.692302             -5.746558            -3.175119
| 21>   H                      6.876736             -4.628547            -4.298297
| 22>   H                      7.263589             -6.399799            -4.644602
| 23> *
| 24>
| 25> #Run DFT-D3 single point of the molecule with dimer basis set
| 26> $new_job
| 27> %base "14-41_DFT_A"
| 28> ! wB97X-D3 def2-TZVP TIGHTSCF CHELPG PMODEL
| 29>
| 30> %scf
| 31> MaxIter 1000
| 32> end
| 33>
| 34> * xyz 0 1
| 35>   C                      10.841088            -7.127061            -6.891285
| 36>   O                      10.495546            -7.092162            -5.484353
| 37>   H                      9.956987             -6.291068            -5.245316
| 38>   H                      9.927392             -6.872766            -7.502368
| 39>   H                      11.640231            -6.359361            -7.120319
| 40>   H                      11.277844            -8.122326            -7.267426
| 41>   C                    : 7.607285             -5.451688            -4.193756
| 42>   O                    : 8.840122             -5.024464            -4.757572
| 43>   H                    : 9.236338             -4.323014            -4.290223
| 44>   H                    : 7.692302             -5.746558            -3.175119
| 45>   H                    : 6.876736             -4.628547            -4.298297
| 46>   H                    : 7.263589             -6.399799            -4.644602
| 47> *
| 48>
| 49> #Run DFT-D3 single point of the particle with dimer basis set
| 50> $new_job
| 51> %base "14-41_DFT_B"
| 52> ! wB97X-D3 def2-TZVP TIGHTSCF CHELPG PMODEL
| 53>
| 54> %scf
| 55> MaxIter 1000
| 56> end
| 57>
| 58> * xyz 0 1
| 59>   C                    : 10.841088            -7.127061            -6.891285
| 60>   O                    : 10.495546            -7.092162            -5.484353
| 61>   H                    : 9.956987             -6.291068            -5.245316
| 62>   H                    : 9.927392             -6.872766            -7.502368
| 63>   H                    : 11.640231            -6.359361            -7.120319
| 64>   H                    : 11.277844            -8.122326            -7.267426
| 65>   C                      7.607285             -5.451688            -4.193756
| 66>   O                      8.840122             -5.024464            -4.757572
| 67>   H                      9.236338             -4.323014            -4.290223
| 68>   H                      7.692302             -5.746558            -3.175119
| 69>   H                      6.876736             -4.628547            -4.298297
| 70>   H                      7.263589             -6.399799            -4.644602
| 71> *
| 72>
| 73>                          ****END OF INPUT****
 Total Charge           Charge          ....    0
 Multiplicity           Mult            ....    1
 Number of Electrons    NEL             ....   36
Dispersion correction           -0.001741136
FINAL SINGLE POINT ENERGY      -231.471619829231
Dispersion correction           -0.000287305
FINAL SINGLE POINT ENERGY      -115.728682893592

CARTESIAN COORDINATES (ANGSTROEM)
---------------------------------
  C     10.841088   -7.127061   -6.891285
  O     10.495546   -7.092162   -5.484353
  H      9.956987   -6.291068   -5.245316
  H      9.927392   -6.872766   -7.502368
  H     11.640231   -6.359361   -7.120319
  H     11.277844   -8.122326   -7.267426
  C      7.607285   -5.451688   -4.193756
  O      8.840122   -5.024464   -4.757572
  H      9.236338   -4.323014   -4.290223
  H      7.692302   -5.746558   -3.175119
  H      6.876736   -4.628547   -4.298297
  H      7.263589   -6.399799   -4.644602

 Multiplicity           Mult            ....    1
 Number of Electrons    NEL             ....   18
 Basis Dimension        Dim             ....  172

ORBITAL ENERGIES
----------------

  NO   OCC          E(Eh)            E(eV)
   0   2.0000     -19.225356      -523.1485
   1   2.0000     -10.313912      -280.6558
   2   2.0000      -1.136005       -30.9123
   3   2.0000      -0.802397       -21.8343
   4   2.0000      -0.613582       -16.6964
   5   2.0000      -0.550171       -14.9709
   6   2.0000      -0.522868       -14.2280
   7   2.0000      -0.425985       -11.5916
   8   2.0000      -0.375216       -10.2101
   9   0.0000       0.100877         2.7450
  10   0.0000       0.126747         3.4490
  11   0.0000       0.152147         4.1401
  12   0.0000       0.191273         5.2048
  13   0.0000       0.201651         5.4872

MULLIKEN ATOMIC CHARGES
-----------------------
   0 C :    0.001973
   1 O :    0.000156
   2 H :   -0.011872
   3 H :   -0.001363
   4 H :   -0.000492
   5 H :   -0.000057
   6 C :   -0.149268
   7 O :   -0.481551
   8 H :    0.312358
   9 H :    0.105501
  10 H :    0.104528
  11 H :    0.120088
Sum of atomic charges:   -0.0000000

LOEWDIN ATOMIC CHARGES
----------------------
   0 C :   -0.002625
   1 O :   -0.008297
   2 H :   -0.066695
   3 H :   -0.000497
   4 H :   -0.000107
   5 H :   -0.000037
   6 C :   -0.368622
   7 O :   -0.005577
   8 H :    0.148321
   9 H :    0.089121
  10 H :    0.101002
  11 H :    0.114013

  Mayer bond orders larger than 0.1
B(  6-C ,  7-O ) :   0.9746 B(  6-C ,  9-H ) :   0.9753 B(  6-C , 10-H ) :   0.9764
B(  6-C , 11-H ) :   0.9754 B(  7-O ,  8-H ) :   0.8996

Dispersion correction           -0.000248627
FINAL SINGLE POINT ENERGY      -115.732916631121

DIPOLE MOMENT
-------------
                                X             Y             Z
Electronic contribution:      1.52372       0.47984      -0.78605
Nuclear contribution   :     -1.77650      -0.21636       1.35293
                        -----------------------------------------
Total Dipole Moment    :     -0.25278       0.26348       0.56687
                        -----------------------------------------
Magnitude (a.u.)       :      0.67429
Magnitude (Debye)      :      1.71390

Rotational constants in cm-1:     4.437682     0.817390     0.793686
Rotational constants in MHz : 133038.352889 24504.745398 23794.105559

                             ****ORCA TERMINATED NORMALLY****
TOTAL RUN TIME: 0 days 0 hours 1 minutes 4 seconds 258 msec
