                         Program Version 4.1.2  - RELEASE  -
|  1> #Run DFT-D3 single point of the dimer
|  2> ! wB97X-D3 def2-TZVP TIGHTSCF CHELPG PMODEL PAL8
|  3>
|  4> %base "14-104_DFT_AB"
|  5>
|  6> %scf
|  7> MaxIter 1000
|  8> end
|  9>
| 10> * xyz 0 1
| 11>   C                      -9.038120            -4.940039            -9.359622
| 12>   O                      -8.941771            -4.116648            -10.481134
| 13>   H                      -8.041680            -3.849883            -10.587867
| 14>   H                      -9.704550            -5.762499            -9.452539
| 15>   H                      -8.020437            -5.364017            -9.158092
| 16>   H                      -9.342854            -4.350569            -8.499982
| 17>   C                      -6.434173            0.024591             -8.359033
| 18>   O                      -7.570625            -0.647804            -7.851217
| 19>   H                      -8.348332            -0.035865            -8.046611
| 20>   H                      -6.472714            1.133618             -8.227095
| 21>   H                      -5.556411            -0.407620            -7.961578
| 22>   H                      -6.436764            -0.065187            -9.452756
| 23> *
| 24>
| 25> #Run DFT-D3 single point of the molecule with dimer basis set
| 26> $new_job
| 27> %base "14-104_DFT_A"
| 28> ! wB97X-D3 def2-TZVP TIGHTSCF CHELPG PMODEL
| 29>
| 30> %scf
| 31> MaxIter 1000
| 32> end
| 33>
| 34> * xyz 0 1
| 35>   C                      -9.038120            -4.940039            -9.359622
| 36>   O                      -8.941771            -4.116648            -10.481134
| 37>   H                      -8.041680            -3.849883            -10.587867
| 38>   H                      -9.704550            -5.762499            -9.452539
| 39>   H                      -8.020437            -5.364017            -9.158092
| 40>   H                      -9.342854            -4.350569            -8.499982
| 41>   C                    : -6.434173            0.024591             -8.359033
| 42>   O                    : -7.570625            -0.647804            -7.851217
| 43>   H                    : -8.348332            -0.035865            -8.046611
| 44>   H                    : -6.472714            1.133618             -8.227095
| 45>   H                    : -5.556411            -0.407620            -7.961578
| 46>   H                    : -6.436764            -0.065187            -9.452756
| 47> *
| 48>
| 49> #Run DFT-D3 single point of the particle with dimer basis set
| 50> $new_job
| 51> %base "14-104_DFT_B"
| 52> ! wB97X-D3 def2-TZVP TIGHTSCF CHELPG PMODEL
| 53>
| 54> %scf
| 55> MaxIter 1000
| 56> end
| 57>
| 58> * xyz 0 1
| 59>   C                    : -9.038120            -4.940039            -9.359622
| 60>   O                    : -8.941771            -4.116648            -10.481134
| 61>   H                    : -8.041680            -3.849883            -10.587867
| 62>   H                    : -9.704550            -5.762499            -9.452539
| 63>   H                    : -8.020437            -5.364017            -9.158092
| 64>   H                    : -9.342854            -4.350569            -8.499982
| 65>   C                      -6.434173            0.024591             -8.359033
| 66>   O                      -7.570625            -0.647804            -7.851217
| 67>   H                      -8.348332            -0.035865            -8.046611
| 68>   H                      -6.472714            1.133618             -8.227095
| 69>   H                      -5.556411            -0.407620            -7.961578
| 70>   H                      -6.436764            -0.065187            -9.452756
| 71> *
| 72>
| 73>                          ****END OF INPUT****
 Total Charge           Charge          ....    0
 Multiplicity           Mult            ....    1
 Number of Electrons    NEL             ....   36
Dispersion correction           -0.000766704
FINAL SINGLE POINT ENERGY      -231.465432474586
Dispersion correction           -0.000228417
FINAL SINGLE POINT ENERGY      -115.733017682049

CARTESIAN COORDINATES (ANGSTROEM)
---------------------------------
  C     -9.038120   -4.940039   -9.359622
  O     -8.941771   -4.116648  -10.481134
  H     -8.041680   -3.849883  -10.587867
  H     -9.704550   -5.762499   -9.452539
  H     -8.020437   -5.364017   -9.158092
  H     -9.342854   -4.350569   -8.499982
  C     -6.434173    0.024591   -8.359033
  O     -7.570625   -0.647804   -7.851217
  H     -8.348332   -0.035865   -8.046611
  H     -6.472714    1.133618   -8.227095
  H     -5.556411   -0.407620   -7.961578
  H     -6.436764   -0.065187   -9.452756

 Multiplicity           Mult            ....    1
 Number of Electrons    NEL             ....   18
 Basis Dimension        Dim             ....  172

ORBITAL ENERGIES
----------------

  NO   OCC          E(Eh)            E(eV)
   0   2.0000     -19.234614      -523.4004
   1   2.0000     -10.311597      -280.5928
   2   2.0000      -1.129130       -30.7252
   3   2.0000      -0.791361       -21.5340
   4   2.0000      -0.608522       -16.5587
   5   2.0000      -0.536283       -14.5930
   6   2.0000      -0.526706       -14.3324
   7   2.0000      -0.442280       -12.0350
   8   2.0000      -0.367734       -10.0066
   9   0.0000       0.092186         2.5085
  10   0.0000       0.110464         3.0059
  11   0.0000       0.153641         4.1808
  12   0.0000       0.171406         4.6642
  13   0.0000       0.197914         5.3855

MULLIKEN ATOMIC CHARGES
-----------------------
   0 C :   -0.000274
   1 O :    0.000047
   2 H :   -0.000235
   3 H :   -0.000053
   4 H :    0.000074
   5 H :   -0.000636
   6 C :   -0.170426
   7 O :   -0.470013
   8 H :    0.316030
   9 H :    0.101672
  10 H :    0.122571
  11 H :    0.101243
Sum of atomic charges:   -0.0000000

LOEWDIN ATOMIC CHARGES
----------------------
   0 C :   -0.000364
   1 O :   -0.000042
   2 H :   -0.000182
   3 H :   -0.000014
   4 H :   -0.000004
   5 H :   -0.000286
   6 C :   -0.389377
   7 O :   -0.098995
   8 H :    0.197929
   9 H :    0.098410
  10 H :    0.098492
  11 H :    0.094433

  Mayer bond orders larger than 0.1
B(  6-C ,  7-O ) :   0.9990 B(  6-C ,  9-H ) :   0.9764 B(  6-C , 10-H ) :   0.9739
B(  6-C , 11-H ) :   0.9779 B(  7-O ,  8-H ) :   0.8946

Dispersion correction           -0.000230843
FINAL SINGLE POINT ENERGY      -115.731549118791

DIPOLE MOMENT
-------------
                                X             Y             Z
Electronic contribution:     -1.26453      -1.04846       0.83969
Nuclear contribution   :      1.23784       1.68655      -1.15425
                        -----------------------------------------
Total Dipole Moment    :     -0.02669       0.63809      -0.31456
                        -----------------------------------------
Magnitude (a.u.)       :      0.71192
Magnitude (Debye)      :      1.80954

Rotational constants in cm-1:     4.186332     0.839760     0.796696
Rotational constants in MHz : 125503.076854 25175.366414 23884.352421

                             ****ORCA TERMINATED NORMALLY****
TOTAL RUN TIME: 0 days 0 hours 0 minutes 56 seconds 457 msec
