                         Program Version 4.1.2  - RELEASE  -
|  1> #Run DFT-D3 single point of the dimer
|  2> ! wB97X-D3 def2-TZVP TIGHTSCF CHELPG PMODEL PAL8
|  3>
|  4> %base "12-11_DFT_AB"
|  5>
|  6> %scf
|  7> MaxIter 1000
|  8> end
|  9>
| 10> * xyz 0 1
| 11>   C                      -3.318311            -0.619609            -4.975786
| 12>   O                      -2.848868            -0.188945            -3.711665
| 13>   H                      -2.709265            0.711760             -3.772373
| 14>   H                      -2.662649            -0.195860            -5.703031
| 15>   H                      -3.228268            -1.702189            -5.124246
| 16>   H                      -4.392851            -0.308560            -5.145854
| 17>   C                      -4.796835            4.220593             -3.241438
| 18>   O                      -3.623748            3.536145             -3.223031
| 19>   H                      -2.971808            4.116737             -2.850805
| 20>   H                      -5.639609            3.584267             -3.211431
| 21>   H                      -4.869373            4.911366             -2.405323
| 22>   H                      -4.833303            4.912710             -4.107537
| 23> *
| 24>
| 25> #Run DFT-D3 single point of the molecule with dimer basis set
| 26> $new_job
| 27> %base "12-11_DFT_A"
| 28> ! wB97X-D3 def2-TZVP TIGHTSCF CHELPG PMODEL
| 29>
| 30> %scf
| 31> MaxIter 1000
| 32> end
| 33>
| 34> * xyz 0 1
| 35>   C                      -3.318311            -0.619609            -4.975786
| 36>   O                      -2.848868            -0.188945            -3.711665
| 37>   H                      -2.709265            0.711760             -3.772373
| 38>   H                      -2.662649            -0.195860            -5.703031
| 39>   H                      -3.228268            -1.702189            -5.124246
| 40>   H                      -4.392851            -0.308560            -5.145854
| 41>   C                    : -4.796835            4.220593             -3.241438
| 42>   O                    : -3.623748            3.536145             -3.223031
| 43>   H                    : -2.971808            4.116737             -2.850805
| 44>   H                    : -5.639609            3.584267             -3.211431
| 45>   H                    : -4.869373            4.911366             -2.405323
| 46>   H                    : -4.833303            4.912710             -4.107537
| 47> *
| 48>
| 49> #Run DFT-D3 single point of the particle with dimer basis set
| 50> $new_job
| 51> %base "12-11_DFT_B"
| 52> ! wB97X-D3 def2-TZVP TIGHTSCF CHELPG PMODEL
| 53>
| 54> %scf
| 55> MaxIter 1000
| 56> end
| 57>
| 58> * xyz 0 1
| 59>   C                    : -3.318311            -0.619609            -4.975786
| 60>   O                    : -2.848868            -0.188945            -3.711665
| 61>   H                    : -2.709265            0.711760             -3.772373
| 62>   H                    : -2.662649            -0.195860            -5.703031
| 63>   H                    : -3.228268            -1.702189            -5.124246
| 64>   H                    : -4.392851            -0.308560            -5.145854
| 65>   C                      -4.796835            4.220593             -3.241438
| 66>   O                      -3.623748            3.536145             -3.223031
| 67>   H                      -2.971808            4.116737             -2.850805
| 68>   H                      -5.639609            3.584267             -3.211431
| 69>   H                      -4.869373            4.911366             -2.405323
| 70>   H                      -4.833303            4.912710             -4.107537
| 71> *
| 72>
| 73>                          ****END OF INPUT****
 Total Charge           Charge          ....    0
 Multiplicity           Mult            ....    1
 Number of Electrons    NEL             ....   36
Dispersion correction           -0.001000852
FINAL SINGLE POINT ENERGY      -231.466594816560
Dispersion correction           -0.000229502
FINAL SINGLE POINT ENERGY      -115.731617827581

CARTESIAN COORDINATES (ANGSTROEM)
---------------------------------
  C     -3.318311   -0.619609   -4.975786
  O     -2.848868   -0.188945   -3.711665
  H     -2.709265    0.711760   -3.772373
  H     -2.662649   -0.195860   -5.703031
  H     -3.228268   -1.702189   -5.124246
  H     -4.392851   -0.308560   -5.145854
  C     -4.796835    4.220593   -3.241438
  O     -3.623748    3.536145   -3.223031
  H     -2.971808    4.116737   -2.850805
  H     -5.639609    3.584267   -3.211431
  H     -4.869373    4.911366   -2.405323
  H     -4.833303    4.912710   -4.107537

 Multiplicity           Mult            ....    1
 Number of Electrons    NEL             ....   18
 Basis Dimension        Dim             ....  172

ORBITAL ENERGIES
----------------

  NO   OCC          E(Eh)            E(eV)
   0   2.0000     -19.229399      -523.2585
   1   2.0000     -10.305636      -280.4306
   2   2.0000      -1.158306       -31.5191
   3   2.0000      -0.796602       -21.6766
   4   2.0000      -0.627233       -17.0679
   5   2.0000      -0.549824       -14.9615
   6   2.0000      -0.535437       -14.5700
   7   2.0000      -0.435191       -11.8422
   8   2.0000      -0.368178       -10.0186
   9   0.0000       0.097269         2.6468
  10   0.0000       0.116505         3.1703
  11   0.0000       0.159166         4.3311
  12   0.0000       0.184181         5.0118
  13   0.0000       0.199056         5.4166

MULLIKEN ATOMIC CHARGES
-----------------------
   0 C :   -0.000087
   1 O :    0.000381
   2 H :   -0.004245
   3 H :    0.000020
   4 H :   -0.000027
   5 H :   -0.000080
   6 C :   -0.146780
   7 O :   -0.454697
   8 H :    0.315112
   9 H :    0.115135
  10 H :    0.090586
  11 H :    0.084680
Sum of atomic charges:   -0.0000000

LOEWDIN ATOMIC CHARGES
----------------------
   0 C :   -0.000248
   1 O :   -0.000279
   2 H :   -0.004790
   3 H :   -0.000013
   4 H :   -0.000006
   5 H :   -0.000022
   6 C :   -0.422809
   7 O :   -0.025882
   8 H :    0.169741
   9 H :    0.098047
  10 H :    0.091868
  11 H :    0.094393

  Mayer bond orders larger than 0.1
B(  6-C ,  7-O ) :   1.0044 B(  6-C ,  9-H ) :   0.9752 B(  6-C , 10-H ) :   0.9861
B(  6-C , 11-H ) :   0.9768 B(  7-O ,  8-H ) :   0.8995

Dispersion correction           -0.000206876
FINAL SINGLE POINT ENERGY      -115.731958849148

DIPOLE MOMENT
-------------
                                X             Y             Z
Electronic contribution:      1.46255      -1.18062      -0.01923
Nuclear contribution   :     -1.47365       1.80423       0.28585
                        -----------------------------------------
Total Dipole Moment    :     -0.01111       0.62362       0.26661
                        -----------------------------------------
Magnitude (a.u.)       :      0.67831
Magnitude (Debye)      :      1.72412

Rotational constants in cm-1:     4.393827     0.891764     0.855777
Rotational constants in MHz : 131723.612475 26734.404052 25655.538423

                             ****ORCA TERMINATED NORMALLY****
TOTAL RUN TIME: 0 days 0 hours 0 minutes 59 seconds 919 msec
