                         Program Version 4.1.2  - RELEASE  -
|  1> #Run DFT-D3 single point of the dimer
|  2> ! wB97X-D3 def2-TZVP TIGHTSCF CHELPG PMODEL PAL8
|  3>
|  4> %base "15-128_DFT_AB"
|  5>
|  6> %scf
|  7> MaxIter 1000
|  8> end
|  9>
| 10> * xyz 0 1
| 11>   C                      0.512501             8.461024             -0.689806
| 12>   O                      -0.712721            7.890156             -0.211231
| 13>   H                      -0.662369            6.949089             -0.202390
| 14>   H                      0.578281             8.470859             -1.785892
| 15>   H                      0.672981             9.551212             -0.568216
| 16>   H                      1.340160             7.905085             -0.222265
| 17>   C                      -0.864257            9.282511             2.973942
| 18>   O                      -1.675985            10.298137            3.457449
| 19>   H                      -1.283712            11.111861            3.195173
| 20>   H                      -0.078117            8.978090             3.680979
| 21>   H                      -1.401807            8.349232             2.753786
| 22>   H                      -0.348053            9.605425             2.014177
| 23> *
| 24>
| 25> #Run DFT-D3 single point of the molecule with dimer basis set
| 26> $new_job
| 27> %base "15-128_DFT_A"
| 28> ! wB97X-D3 def2-TZVP TIGHTSCF CHELPG PMODEL
| 29>
| 30> %scf
| 31> MaxIter 1000
| 32> end
| 33>
| 34> * xyz 0 1
| 35>   C                      0.512501             8.461024             -0.689806
| 36>   O                      -0.712721            7.890156             -0.211231
| 37>   H                      -0.662369            6.949089             -0.202390
| 38>   H                      0.578281             8.470859             -1.785892
| 39>   H                      0.672981             9.551212             -0.568216
| 40>   H                      1.340160             7.905085             -0.222265
| 41>   C                    : -0.864257            9.282511             2.973942
| 42>   O                    : -1.675985            10.298137            3.457449
| 43>   H                    : -1.283712            11.111861            3.195173
| 44>   H                    : -0.078117            8.978090             3.680979
| 45>   H                    : -1.401807            8.349232             2.753786
| 46>   H                    : -0.348053            9.605425             2.014177
| 47> *
| 48>
| 49> #Run DFT-D3 single point of the particle with dimer basis set
| 50> $new_job
| 51> %base "15-128_DFT_B"
| 52> ! wB97X-D3 def2-TZVP TIGHTSCF CHELPG PMODEL
| 53>
| 54> %scf
| 55> MaxIter 1000
| 56> end
| 57>
| 58> * xyz 0 1
| 59>   C                    : 0.512501             8.461024             -0.689806
| 60>   O                    : -0.712721            7.890156             -0.211231
| 61>   H                    : -0.662369            6.949089             -0.202390
| 62>   H                    : 0.578281             8.470859             -1.785892
| 63>   H                    : 0.672981             9.551212             -0.568216
| 64>   H                    : 1.340160             7.905085             -0.222265
| 65>   C                      -0.864257            9.282511             2.973942
| 66>   O                      -1.675985            10.298137            3.457449
| 67>   H                      -1.283712            11.111861            3.195173
| 68>   H                      -0.078117            8.978090             3.680979
| 69>   H                      -1.401807            8.349232             2.753786
| 70>   H                      -0.348053            9.605425             2.014177
| 71> *
| 72>
| 73>                          ****END OF INPUT****
 Total Charge           Charge          ....    0
 Multiplicity           Mult            ....    1
 Number of Electrons    NEL             ....   36
Dispersion correction           -0.001721040
FINAL SINGLE POINT ENERGY      -231.463069132798
Dispersion correction           -0.000264612
FINAL SINGLE POINT ENERGY      -115.728358311647

CARTESIAN COORDINATES (ANGSTROEM)
---------------------------------
  C      0.512501    8.461024   -0.689806
  O     -0.712721    7.890156   -0.211231
  H     -0.662369    6.949089   -0.202390
  H      0.578281    8.470859   -1.785892
  H      0.672981    9.551212   -0.568216
  H      1.340160    7.905085   -0.222265
  C     -0.864257    9.282511    2.973942
  O     -1.675985   10.298137    3.457449
  H     -1.283712   11.111861    3.195173
  H     -0.078117    8.978090    3.680979
  H     -1.401807    8.349232    2.753786
  H     -0.348053    9.605425    2.014177

 Multiplicity           Mult            ....    1
 Number of Electrons    NEL             ....   18
 Basis Dimension        Dim             ....  172

ORBITAL ENERGIES
----------------

  NO   OCC          E(Eh)            E(eV)
   0   2.0000     -19.231379      -523.3124
   1   2.0000     -10.317165      -280.7443
   2   2.0000      -1.150973       -31.3196
   3   2.0000      -0.793048       -21.5799
   4   2.0000      -0.618131       -16.8202
   5   2.0000      -0.540315       -14.7027
   6   2.0000      -0.535188       -14.5632
   7   2.0000      -0.431121       -11.7314
   8   2.0000      -0.373176       -10.1546
   9   0.0000       0.080362         2.1868
  10   0.0000       0.116799         3.1783
  11   0.0000       0.148554         4.0424
  12   0.0000       0.167628         4.5614
  13   0.0000       0.190279         5.1777

MULLIKEN ATOMIC CHARGES
-----------------------
   0 C :   -0.000803
   1 O :   -0.000733
   2 H :   -0.000210
   3 H :   -0.000081
   4 H :   -0.000292
   5 H :    0.000045
   6 C :   -0.160665
   7 O :   -0.459877
   8 H :    0.317619
   9 H :    0.097945
  10 H :    0.115706
  11 H :    0.091348
Sum of atomic charges:    0.0000000

LOEWDIN ATOMIC CHARGES
----------------------
   0 C :   -0.006046
   1 O :   -0.002581
   2 H :   -0.000430
   3 H :   -0.000081
   4 H :   -0.001489
   5 H :   -0.000248
   6 C :   -0.410895
   7 O :   -0.045589
   8 H :    0.161792
   9 H :    0.093715
  10 H :    0.106336
  11 H :    0.105514

  Mayer bond orders larger than 0.1
B(  6-C ,  7-O ) :   1.0117 B(  6-C ,  9-H ) :   0.9671 B(  6-C , 10-H ) :   0.9729
B(  6-C , 11-H ) :   0.9922 B(  7-O ,  8-H ) :   0.9011

Dispersion correction           -0.000241343
FINAL SINGLE POINT ENERGY      -115.733858854945

DIPOLE MOMENT
-------------
                                X             Y             Z
Electronic contribution:     -1.25414       1.29058       0.75627
Nuclear contribution   :      1.79805      -1.14591      -1.10867
                        -----------------------------------------
Total Dipole Moment    :      0.54391       0.14467      -0.35241
                        -----------------------------------------
Magnitude (a.u.)       :      0.66404
Magnitude (Debye)      :      1.68787

Rotational constants in cm-1:     4.292230     0.850710     0.816762
Rotational constants in MHz : 128677.822273 25503.652685 24485.916844

                             ****ORCA TERMINATED NORMALLY****
TOTAL RUN TIME: 0 days 0 hours 1 minutes 1 seconds 794 msec
