                         Program Version 4.1.2  - RELEASE  -
|  1> #Run DFT-D3 single point of the dimer
|  2> ! wB97X-D3 def2-TZVP TIGHTSCF CHELPG PMODEL PAL8
|  3>
|  4> %base "18-121_DFT_AB"
|  5>
|  6> %scf
|  7> MaxIter 1000
|  8> end
|  9>
| 10> * xyz 0 1
| 11>   C                      -5.446868            -6.427898            4.398812
| 12>   O                      -6.637437            -7.096489            4.745750
| 13>   H                      -6.687544            -8.002790            4.433937
| 14>   H                      -5.460413            -5.329283            4.727372
| 15>   H                      -4.544172            -6.930192            4.735164
| 16>   H                      -5.335296            -6.386736            3.346718
| 17>   C                      -9.629236            -6.875782            2.977081
| 18>   O                      -9.486358            -6.018210            4.080432
| 19>   H                      -8.576836            -6.037125            4.467025
| 20>   H                      -8.769483            -6.838347            2.277197
| 21>   H                      -9.773832            -7.924350            3.349965
| 22>   H                      -10.459922           -6.602737            2.346828
| 23> *
| 24>
| 25> #Run DFT-D3 single point of the molecule with dimer basis set
| 26> $new_job
| 27> %base "18-121_DFT_A"
| 28> ! wB97X-D3 def2-TZVP TIGHTSCF CHELPG PMODEL
| 29>
| 30> %scf
| 31> MaxIter 1000
| 32> end
| 33>
| 34> * xyz 0 1
| 35>   C                      -5.446868            -6.427898            4.398812
| 36>   O                      -6.637437            -7.096489            4.745750
| 37>   H                      -6.687544            -8.002790            4.433937
| 38>   H                      -5.460413            -5.329283            4.727372
| 39>   H                      -4.544172            -6.930192            4.735164
| 40>   H                      -5.335296            -6.386736            3.346718
| 41>   C                    : -9.629236            -6.875782            2.977081
| 42>   O                    : -9.486358            -6.018210            4.080432
| 43>   H                    : -8.576836            -6.037125            4.467025
| 44>   H                    : -8.769483            -6.838347            2.277197
| 45>   H                    : -9.773832            -7.924350            3.349965
| 46>   H                    : -10.459922           -6.602737            2.346828
| 47> *
| 48>
| 49> #Run DFT-D3 single point of the particle with dimer basis set
| 50> $new_job
| 51> %base "18-121_DFT_B"
| 52> ! wB97X-D3 def2-TZVP TIGHTSCF CHELPG PMODEL
| 53>
| 54> %scf
| 55> MaxIter 1000
| 56> end
| 57>
| 58> * xyz 0 1
| 59>   C                    : -5.446868            -6.427898            4.398812
| 60>   O                    : -6.637437            -7.096489            4.745750
| 61>   H                    : -6.687544            -8.002790            4.433937
| 62>   H                    : -5.460413            -5.329283            4.727372
| 63>   H                    : -4.544172            -6.930192            4.735164
| 64>   H                    : -5.335296            -6.386736            3.346718
| 65>   C                      -9.629236            -6.875782            2.977081
| 66>   O                      -9.486358            -6.018210            4.080432
| 67>   H                      -8.576836            -6.037125            4.467025
| 68>   H                      -8.769483            -6.838347            2.277197
| 69>   H                      -9.773832            -7.924350            3.349965
| 70>   H                      -10.459922           -6.602737            2.346828
| 71> *
| 72>
| 73>                          ****END OF INPUT****
 Total Charge           Charge          ....    0
 Multiplicity           Mult            ....    1
 Number of Electrons    NEL             ....   36
Dispersion correction           -0.001911372
FINAL SINGLE POINT ENERGY      -231.473397736098
Dispersion correction           -0.000254323
FINAL SINGLE POINT ENERGY      -115.732100622549

CARTESIAN COORDINATES (ANGSTROEM)
---------------------------------
  C     -5.446868   -6.427898    4.398812
  O     -6.637437   -7.096489    4.745750
  H     -6.687544   -8.002790    4.433937
  H     -5.460413   -5.329283    4.727372
  H     -4.544172   -6.930192    4.735164
  H     -5.335296   -6.386736    3.346718
  C     -9.629236   -6.875782    2.977081
  O     -9.486358   -6.018210    4.080432
  H     -8.576836   -6.037125    4.467025
  H     -8.769483   -6.838347    2.277197
  H     -9.773832   -7.924350    3.349965
  H    -10.459922   -6.602737    2.346828

 Multiplicity           Mult            ....    1
 Number of Electrons    NEL             ....   18
 Basis Dimension        Dim             ....  172

ORBITAL ENERGIES
----------------

  NO   OCC          E(Eh)            E(eV)
   0   2.0000     -19.231125      -523.3055
   1   2.0000     -10.315352      -280.6950
   2   2.0000      -1.130746       -30.7692
   3   2.0000      -0.793375       -21.5888
   4   2.0000      -0.608139       -16.5483
   5   2.0000      -0.543278       -14.7833
   6   2.0000      -0.527401       -14.3513
   7   2.0000      -0.423768       -11.5313
   8   2.0000      -0.371644       -10.1129
   9   0.0000       0.066326         1.8048
  10   0.0000       0.132395         3.6026
  11   0.0000       0.143534         3.9057
  12   0.0000       0.163831         4.4581
  13   0.0000       0.185944         5.0598

MULLIKEN ATOMIC CHARGES
-----------------------
   0 C :   -0.002984
   1 O :   -0.002093
   2 H :    0.000104
   3 H :    0.000281
   4 H :   -0.000029
   5 H :    0.000086
   6 C :   -0.160428
   7 O :   -0.483466
   8 H :    0.321981
   9 H :    0.100386
  10 H :    0.100322
  11 H :    0.125840
Sum of atomic charges:   -0.0000000

LOEWDIN ATOMIC CHARGES
----------------------
   0 C :   -0.002438
   1 O :   -0.010079
   2 H :   -0.001115
   3 H :   -0.000188
   4 H :   -0.000069
   5 H :   -0.000116
   6 C :   -0.396123
   7 O :   -0.080079
   8 H :    0.188599
   9 H :    0.096856
  10 H :    0.100503
  11 H :    0.104249

  Mayer bond orders larger than 0.1
B(  6-C ,  7-O ) :   0.9899 B(  6-C ,  9-H ) :   0.9760 B(  6-C , 10-H ) :   0.9806
B(  6-C , 11-H ) :   0.9703 B(  7-O ,  8-H ) :   0.8949

Dispersion correction           -0.000258086
FINAL SINGLE POINT ENERGY      -115.733853683241

DIPOLE MOMENT
-------------
                                X             Y             Z
Electronic contribution:      0.01469       1.19193       1.41136
Nuclear contribution   :      0.50125      -1.51812      -1.62264
                        -----------------------------------------
Total Dipole Moment    :      0.51594      -0.32619      -0.21128
                        -----------------------------------------
Magnitude (a.u.)       :      0.64593
Magnitude (Debye)      :      1.64183

Rotational constants in cm-1:     4.284373     0.823106     0.803318
Rotational constants in MHz : 128442.283328 24676.096621 24082.860986

                             ****ORCA TERMINATED NORMALLY****
TOTAL RUN TIME: 0 days 0 hours 1 minutes 7 seconds 263 msec
