                         Program Version 4.1.2  - RELEASE  -
|  1> #Run DFT-D3 single point of the dimer
|  2> ! wB97X-D3 def2-TZVP TIGHTSCF CHELPG PMODEL PAL8
|  3>
|  4> %base "13-139_DFT_AB"
|  5>
|  6> %scf
|  7> MaxIter 1000
|  8> end
|  9>
| 10> * xyz 0 1
| 11>   C                      -2.561850            8.333009             5.793317
| 12>   O                      -3.098374            7.684261             4.668960
| 13>   H                      -2.260752            7.229011             4.369283
| 14>   H                      -1.504505            8.534680             5.701477
| 15>   H                      -3.050513            9.317847             5.958538
| 16>   H                      -2.651462            7.682936             6.685952
| 17>   C                      -2.594879            8.199299             0.433839
| 18>   O                      -2.875502            6.827219             0.129060
| 19>   H                      -3.783125            6.745427             -0.117083
| 20>   H                      -1.540234            8.249601             0.733262
| 21>   H                      -2.685778            8.822723             -0.489684
| 22>   H                      -3.280828            8.560480             1.135978
| 23> *
| 24>
| 25> #Run DFT-D3 single point of the molecule with dimer basis set
| 26> $new_job
| 27> %base "13-139_DFT_A"
| 28> ! wB97X-D3 def2-TZVP TIGHTSCF CHELPG PMODEL
| 29>
| 30> %scf
| 31> MaxIter 1000
| 32> end
| 33>
| 34> * xyz 0 1
| 35>   C                      -2.561850            8.333009             5.793317
| 36>   O                      -3.098374            7.684261             4.668960
| 37>   H                      -2.260752            7.229011             4.369283
| 38>   H                      -1.504505            8.534680             5.701477
| 39>   H                      -3.050513            9.317847             5.958538
| 40>   H                      -2.651462            7.682936             6.685952
| 41>   C                    : -2.594879            8.199299             0.433839
| 42>   O                    : -2.875502            6.827219             0.129060
| 43>   H                    : -3.783125            6.745427             -0.117083
| 44>   H                    : -1.540234            8.249601             0.733262
| 45>   H                    : -2.685778            8.822723             -0.489684
| 46>   H                    : -3.280828            8.560480             1.135978
| 47> *
| 48>
| 49> #Run DFT-D3 single point of the particle with dimer basis set
| 50> $new_job
| 51> %base "13-139_DFT_B"
| 52> ! wB97X-D3 def2-TZVP TIGHTSCF CHELPG PMODEL
| 53>
| 54> %scf
| 55> MaxIter 1000
| 56> end
| 57>
| 58> * xyz 0 1
| 59>   C                    : -2.561850            8.333009             5.793317
| 60>   O                    : -3.098374            7.684261             4.668960
| 61>   H                    : -2.260752            7.229011             4.369283
| 62>   H                    : -1.504505            8.534680             5.701477
| 63>   H                    : -3.050513            9.317847             5.958538
| 64>   H                    : -2.651462            7.682936             6.685952
| 65>   C                      -2.594879            8.199299             0.433839
| 66>   O                      -2.875502            6.827219             0.129060
| 67>   H                      -3.783125            6.745427             -0.117083
| 68>   H                      -1.540234            8.249601             0.733262
| 69>   H                      -2.685778            8.822723             -0.489684
| 70>   H                      -3.280828            8.560480             1.135978
| 71> *
| 72>
| 73>                          ****END OF INPUT****
 Total Charge           Charge          ....    0
 Multiplicity           Mult            ....    1
 Number of Electrons    NEL             ....   36
Dispersion correction           -0.000891916
FINAL SINGLE POINT ENERGY      -231.465608037605
Dispersion correction           -0.000220814
FINAL SINGLE POINT ENERGY      -115.730152971879

CARTESIAN COORDINATES (ANGSTROEM)
---------------------------------
  C     -2.561850    8.333009    5.793317
  O     -3.098374    7.684261    4.668960
  H     -2.260752    7.229011    4.369283
  H     -1.504505    8.534680    5.701477
  H     -3.050513    9.317847    5.958538
  H     -2.651462    7.682936    6.685952
  C     -2.594879    8.199299    0.433839
  O     -2.875502    6.827219    0.129060
  H     -3.783125    6.745427   -0.117083
  H     -1.540234    8.249601    0.733262
  H     -2.685778    8.822723   -0.489684
  H     -3.280828    8.560480    1.135978

 Multiplicity           Mult            ....    1
 Number of Electrons    NEL             ....   18
 Basis Dimension        Dim             ....  172

ORBITAL ENERGIES
----------------

  NO   OCC          E(Eh)            E(eV)
   0   2.0000     -19.224900      -523.1361
   1   2.0000     -10.312081      -280.6060
   2   2.0000      -1.131321       -30.7848
   3   2.0000      -0.798293       -21.7227
   4   2.0000      -0.610698       -16.6179
   5   2.0000      -0.543369       -14.7858
   6   2.0000      -0.522202       -14.2098
   7   2.0000      -0.436402       -11.8751
   8   2.0000      -0.372033       -10.1235
   9   0.0000       0.086526         2.3545
  10   0.0000       0.117229         3.1900
  11   0.0000       0.152883         4.1602
  12   0.0000       0.175656         4.7798
  13   0.0000       0.184798         5.0286

MULLIKEN ATOMIC CHARGES
-----------------------
   0 C :   -0.000084
   1 O :    0.000055
   2 H :    0.000040
   3 H :    0.000006
   4 H :   -0.000006
   5 H :   -0.000001
   6 C :   -0.163472
   7 O :   -0.480875
   8 H :    0.308029
   9 H :    0.123946
  10 H :    0.099427
  11 H :    0.112934
Sum of atomic charges:    0.0000000

LOEWDIN ATOMIC CHARGES
----------------------
   0 C :   -0.000052
   1 O :   -0.000101
   2 H :   -0.000096
   3 H :   -0.000003
   4 H :   -0.000003
   5 H :   -0.000001
   6 C :   -0.362877
   7 O :   -0.086860
   8 H :    0.153848
   9 H :    0.112499
  10 H :    0.098992
  11 H :    0.084654

  Mayer bond orders larger than 0.1
B(  6-C ,  7-O ) :   0.9867 B(  6-C ,  9-H ) :   0.9735 B(  6-C , 10-H ) :   0.9772
B(  6-C , 11-H ) :   0.9762 B(  7-O ,  8-H ) :   0.9055

Dispersion correction           -0.000232951
FINAL SINGLE POINT ENERGY      -115.734259155956

DIPOLE MOMENT
-------------
                                X             Y             Z
Electronic contribution:     -0.24584      -1.69978      -0.20280
Nuclear contribution   :     -0.22251       2.21740       0.18123
                        -----------------------------------------
Total Dipole Moment    :     -0.46835       0.51762      -0.02157
                        -----------------------------------------
Magnitude (a.u.)       :      0.69839
Magnitude (Debye)      :      1.77517

Rotational constants in cm-1:     4.295980     0.822711     0.790335
Rotational constants in MHz : 128790.228792 24664.263125 23693.634729

                             ****ORCA TERMINATED NORMALLY****
TOTAL RUN TIME: 0 days 0 hours 1 minutes 6 seconds 288 msec
