                         Program Version 4.1.2  - RELEASE  -
|  1> #Run DFT-D3 single point of the dimer
|  2> ! wB97X-D3 def2-TZVP TIGHTSCF CHELPG PMODEL PAL8
|  3>
|  4> %base "14-102_DFT_AB"
|  5>
|  6> %scf
|  7> MaxIter 1000
|  8> end
|  9>
| 10> * xyz 0 1
| 11>   C                      -9.038120            -4.940039            -9.359622
| 12>   O                      -8.941771            -4.116648            -10.481134
| 13>   H                      -8.041680            -3.849883            -10.587867
| 14>   H                      -9.704550            -5.762499            -9.452539
| 15>   H                      -8.020437            -5.364017            -9.158092
| 16>   H                      -9.342854            -4.350569            -8.499982
| 17>   C                      -8.330272            -4.733725            -5.178958
| 18>   O                      -7.579750            -5.755895            -5.802438
| 19>   H                      -6.968463            -6.116029            -5.166466
| 20>   H                      -8.568165            -5.064110            -4.182647
| 21>   H                      -7.695817            -3.836312            -5.197595
| 22>   H                      -9.305360            -4.543888            -5.743510
| 23> *
| 24>
| 25> #Run DFT-D3 single point of the molecule with dimer basis set
| 26> $new_job
| 27> %base "14-102_DFT_A"
| 28> ! wB97X-D3 def2-TZVP TIGHTSCF CHELPG PMODEL
| 29>
| 30> %scf
| 31> MaxIter 1000
| 32> end
| 33>
| 34> * xyz 0 1
| 35>   C                      -9.038120            -4.940039            -9.359622
| 36>   O                      -8.941771            -4.116648            -10.481134
| 37>   H                      -8.041680            -3.849883            -10.587867
| 38>   H                      -9.704550            -5.762499            -9.452539
| 39>   H                      -8.020437            -5.364017            -9.158092
| 40>   H                      -9.342854            -4.350569            -8.499982
| 41>   C                    : -8.330272            -4.733725            -5.178958
| 42>   O                    : -7.579750            -5.755895            -5.802438
| 43>   H                    : -6.968463            -6.116029            -5.166466
| 44>   H                    : -8.568165            -5.064110            -4.182647
| 45>   H                    : -7.695817            -3.836312            -5.197595
| 46>   H                    : -9.305360            -4.543888            -5.743510
| 47> *
| 48>
| 49> #Run DFT-D3 single point of the particle with dimer basis set
| 50> $new_job
| 51> %base "14-102_DFT_B"
| 52> ! wB97X-D3 def2-TZVP TIGHTSCF CHELPG PMODEL
| 53>
| 54> %scf
| 55> MaxIter 1000
| 56> end
| 57>
| 58> * xyz 0 1
| 59>   C                    : -9.038120            -4.940039            -9.359622
| 60>   O                    : -8.941771            -4.116648            -10.481134
| 61>   H                    : -8.041680            -3.849883            -10.587867
| 62>   H                    : -9.704550            -5.762499            -9.452539
| 63>   H                    : -8.020437            -5.364017            -9.158092
| 64>   H                    : -9.342854            -4.350569            -8.499982
| 65>   C                      -8.330272            -4.733725            -5.178958
| 66>   O                      -7.579750            -5.755895            -5.802438
| 67>   H                      -6.968463            -6.116029            -5.166466
| 68>   H                      -8.568165            -5.064110            -4.182647
| 69>   H                      -7.695817            -3.836312            -5.197595
| 70>   H                      -9.305360            -4.543888            -5.743510
| 71> *
| 72>
| 73>                          ****END OF INPUT****
 Total Charge           Charge          ....    0
 Multiplicity           Mult            ....    1
 Number of Electrons    NEL             ....   36
Dispersion correction           -0.001327205
FINAL SINGLE POINT ENERGY      -231.467538476264
Dispersion correction           -0.000228417
FINAL SINGLE POINT ENERGY      -115.733019284331

CARTESIAN COORDINATES (ANGSTROEM)
---------------------------------
  C     -9.038120   -4.940039   -9.359622
  O     -8.941771   -4.116648  -10.481134
  H     -8.041680   -3.849883  -10.587867
  H     -9.704550   -5.762499   -9.452539
  H     -8.020437   -5.364017   -9.158092
  H     -9.342854   -4.350569   -8.499982
  C     -8.330272   -4.733725   -5.178958
  O     -7.579750   -5.755895   -5.802438
  H     -6.968463   -6.116029   -5.166466
  H     -8.568165   -5.064110   -4.182647
  H     -7.695817   -3.836312   -5.197595
  H     -9.305360   -4.543888   -5.743510

 Multiplicity           Mult            ....    1
 Number of Electrons    NEL             ....   18
 Basis Dimension        Dim             ....  172

ORBITAL ENERGIES
----------------

  NO   OCC          E(Eh)            E(eV)
   0   2.0000     -19.224532      -523.1261
   1   2.0000     -10.316788      -280.7341
   2   2.0000      -1.136207       -30.9178
   3   2.0000      -0.791018       -21.5247
   4   2.0000      -0.608384       -16.5550
   5   2.0000      -0.548406       -14.9229
   6   2.0000      -0.524880       -14.2827
   7   2.0000      -0.427890       -11.6435
   8   2.0000      -0.370814       -10.0903
   9   0.0000       0.094489         2.5712
  10   0.0000       0.119375         3.2484
  11   0.0000       0.153476         4.1763
  12   0.0000       0.173424         4.7191
  13   0.0000       0.199092         5.4176

MULLIKEN ATOMIC CHARGES
-----------------------
   0 C :    0.000274
   1 O :    0.000010
   2 H :    0.000006
   3 H :   -0.000109
   4 H :   -0.002356
   5 H :    0.000385
   6 C :   -0.151739
   7 O :   -0.477639
   8 H :    0.311068
   9 H :    0.102255
  10 H :    0.102285
  11 H :    0.115561
Sum of atomic charges:   -0.0000000

LOEWDIN ATOMIC CHARGES
----------------------
   0 C :   -0.001576
   1 O :   -0.000018
   2 H :   -0.000002
   3 H :   -0.000033
   4 H :   -0.001418
   5 H :   -0.001248
   6 C :   -0.383152
   7 O :   -0.079937
   8 H :    0.162381
   9 H :    0.090938
  10 H :    0.097043
  11 H :    0.117023

  Mayer bond orders larger than 0.1
B(  6-C ,  7-O ) :   0.9858 B(  6-C ,  9-H ) :   0.9828 B(  6-C , 10-H ) :   0.9800
B(  6-C , 11-H ) :   0.9692 B(  7-O ,  8-H ) :   0.9011

Dispersion correction           -0.000224235
FINAL SINGLE POINT ENERGY      -115.733074266967

DIPOLE MOMENT
-------------
                                X             Y             Z
Electronic contribution:      0.84305      -1.23182      -0.83651
Nuclear contribution   :     -0.75873       1.39510       1.51250
                        -----------------------------------------
Total Dipole Moment    :      0.08431       0.16328       0.67599
                        -----------------------------------------
Magnitude (a.u.)       :      0.70052
Magnitude (Debye)      :      1.78059

Rotational constants in cm-1:     4.146949     0.838280     0.810498
Rotational constants in MHz : 124322.410935 25130.988233 24298.113796

                             ****ORCA TERMINATED NORMALLY****
TOTAL RUN TIME: 0 days 0 hours 0 minutes 55 seconds 823 msec
