                         Program Version 4.1.2  - RELEASE  -
|  1> #Run DFT-D3 single point of the dimer
|  2> ! wB97X-D3 def2-TZVP TIGHTSCF CHELPG PMODEL PAL8
|  3>
|  4> %base "10-38_DFT_AB"
|  5>
|  6> %scf
|  7> MaxIter 1000
|  8> end
|  9>
| 10> * xyz 0 1
| 11>   C                      2.311494             -9.830904            -8.216563
| 12>   O                      3.558891             -10.484770           -8.480704
| 13>   H                      3.941405             -10.762820           -7.664795
| 14>   H                      2.383091             -9.009173            -7.449427
| 15>   H                      1.831679             -9.423599            -9.122781
| 16>   H                      1.578314             -10.570983           -7.892508
| 17>   C                      1.367923             -6.330460            -10.176826
| 18>   O                      0.599920             -7.321826            -10.790082
| 19>   H                      -0.023357            -7.777559            -10.239975
| 20>   H                      2.408693             -6.273177            -10.548830
| 21>   H                      1.022412             -5.304323            -10.160422
| 22>   H                      1.565223             -6.564865            -9.102206
| 23> *
| 24>
| 25> #Run DFT-D3 single point of the molecule with dimer basis set
| 26> $new_job
| 27> %base "10-38_DFT_A"
| 28> ! wB97X-D3 def2-TZVP TIGHTSCF CHELPG PMODEL
| 29>
| 30> %scf
| 31> MaxIter 1000
| 32> end
| 33>
| 34> * xyz 0 1
| 35>   C                      2.311494             -9.830904            -8.216563
| 36>   O                      3.558891             -10.484770           -8.480704
| 37>   H                      3.941405             -10.762820           -7.664795
| 38>   H                      2.383091             -9.009173            -7.449427
| 39>   H                      1.831679             -9.423599            -9.122781
| 40>   H                      1.578314             -10.570983           -7.892508
| 41>   C                    : 1.367923             -6.330460            -10.176826
| 42>   O                    : 0.599920             -7.321826            -10.790082
| 43>   H                    : -0.023357            -7.777559            -10.239975
| 44>   H                    : 2.408693             -6.273177            -10.548830
| 45>   H                    : 1.022412             -5.304323            -10.160422
| 46>   H                    : 1.565223             -6.564865            -9.102206
| 47> *
| 48>
| 49> #Run DFT-D3 single point of the particle with dimer basis set
| 50> $new_job
| 51> %base "10-38_DFT_B"
| 52> ! wB97X-D3 def2-TZVP TIGHTSCF CHELPG PMODEL
| 53>
| 54> %scf
| 55> MaxIter 1000
| 56> end
| 57>
| 58> * xyz 0 1
| 59>   C                    : 2.311494             -9.830904            -8.216563
| 60>   O                    : 3.558891             -10.484770           -8.480704
| 61>   H                    : 3.941405             -10.762820           -7.664795
| 62>   H                    : 2.383091             -9.009173            -7.449427
| 63>   H                    : 1.831679             -9.423599            -9.122781
| 64>   H                    : 1.578314             -10.570983           -7.892508
| 65>   C                      1.367923             -6.330460            -10.176826
| 66>   O                      0.599920             -7.321826            -10.790082
| 67>   H                      -0.023357            -7.777559            -10.239975
| 68>   H                      2.408693             -6.273177            -10.548830
| 69>   H                      1.022412             -5.304323            -10.160422
| 70>   H                      1.565223             -6.564865            -9.102206
| 71> *
| 72>
| 73>                          ****END OF INPUT****
 Total Charge           Charge          ....    0
 Multiplicity           Mult            ....    1
 Number of Electrons    NEL             ....   36
Dispersion correction           -0.001620107
FINAL SINGLE POINT ENERGY      -231.464716061966
Dispersion correction           -0.000260748
FINAL SINGLE POINT ENERGY      -115.733838829950

CARTESIAN COORDINATES (ANGSTROEM)
---------------------------------
  C      2.311494   -9.830904   -8.216563
  O      3.558891  -10.484770   -8.480704
  H      3.941405  -10.762820   -7.664795
  H      2.383091   -9.009173   -7.449427
  H      1.831679   -9.423599   -9.122781
  H      1.578314  -10.570983   -7.892508
  C      1.367923   -6.330460  -10.176826
  O      0.599920   -7.321826  -10.790082
  H     -0.023357   -7.777559  -10.239975
  H      2.408693   -6.273177  -10.548830
  H      1.022412   -5.304323  -10.160422
  H      1.565223   -6.564865   -9.102206

 Multiplicity           Mult            ....    1
 Number of Electrons    NEL             ....   18
 Basis Dimension        Dim             ....  172

ORBITAL ENERGIES
----------------

  NO   OCC          E(Eh)            E(eV)
   0   2.0000     -19.232309      -523.3377
   1   2.0000     -10.316003      -280.7127
   2   2.0000      -1.141170       -31.0528
   3   2.0000      -0.801846       -21.8193
   4   2.0000      -0.624802       -17.0017
   5   2.0000      -0.538911       -14.6645
   6   2.0000      -0.528858       -14.3910
   7   2.0000      -0.417704       -11.3663
   8   2.0000      -0.377541       -10.2734
   9   0.0000       0.081507         2.2179
  10   0.0000       0.123515         3.3610
  11   0.0000       0.145102         3.9484
  12   0.0000       0.176406         4.8003
  13   0.0000       0.188264         5.1229

MULLIKEN ATOMIC CHARGES
-----------------------
   0 C :    0.006115
   1 O :   -0.000094
   2 H :    0.000000
   3 H :   -0.000618
   4 H :   -0.013846
   5 H :   -0.000174
   6 C :   -0.165749
   7 O :   -0.481897
   8 H :    0.324865
   9 H :    0.118313
  10 H :    0.112497
  11 H :    0.100587
Sum of atomic charges:    0.0000000

LOEWDIN ATOMIC CHARGES
----------------------
   0 C :   -0.002088
   1 O :   -0.000022
   2 H :   -0.000003
   3 H :   -0.000711
   4 H :   -0.005588
   5 H :   -0.000012
   6 C :   -0.406144
   7 O :   -0.051705
   8 H :    0.163253
   9 H :    0.110090
  10 H :    0.092846
  11 H :    0.100085

  Mayer bond orders larger than 0.1
B(  6-C ,  7-O ) :   0.9940 B(  6-C ,  9-H ) :   0.9745 B(  6-C , 10-H ) :   0.9686
B(  6-C , 11-H ) :   0.9854 B(  7-O ,  8-H ) :   0.8904

Dispersion correction           -0.000277199
FINAL SINGLE POINT ENERGY      -115.730214733275

DIPOLE MOMENT
-------------
                                X             Y             Z
Electronic contribution:     -1.12407      -1.26927      -1.05695
Nuclear contribution   :      1.02460       1.36003       1.68215
                        -----------------------------------------
Total Dipole Moment    :     -0.09947       0.09077       0.62520
                        -----------------------------------------
Magnitude (a.u.)       :      0.63954
Magnitude (Debye)      :      1.62557

Rotational constants in cm-1:     4.625424     0.816915     0.795099
Rotational constants in MHz : 138666.710934 24490.486401 23836.470399

                             ****ORCA TERMINATED NORMALLY****
TOTAL RUN TIME: 0 days 0 hours 1 minutes 4 seconds 757 msec
