                         Program Version 4.1.2  - RELEASE  -
|  1> #Run DFT-D3 single point of the dimer
|  2> ! wB97X-D3 def2-TZVP TIGHTSCF CHELPG PMODEL PAL8
|  3>
|  4> %base "18-83_DFT_AB"
|  5>
|  6> %scf
|  7> MaxIter 1000
|  8> end
|  9>
| 10> * xyz 0 1
| 11>   C                      1.101496             -2.053978            7.307832
| 12>   O                      1.384987             -2.297058            5.969188
| 13>   H                      1.151471             -3.185395            5.702275
| 14>   H                      1.317104             -1.048099            7.698919
| 15>   H                      0.046442             -2.231063            7.406682
| 16>   H                      1.610017             -2.809292            7.907819
| 17>   C                      -1.190788            1.142633             6.654220
| 18>   O                      -0.403871            2.277754             7.020789
| 19>   H                      -0.822837            2.627458             7.820886
| 20>   H                      -1.397813            0.506782             7.600173
| 21>   H                      -2.133651            1.325674             6.184751
| 22>   H                      -0.679551            0.528703             5.928469
| 23> *
| 24>
| 25> #Run DFT-D3 single point of the molecule with dimer basis set
| 26> $new_job
| 27> %base "18-83_DFT_A"
| 28> ! wB97X-D3 def2-TZVP TIGHTSCF CHELPG PMODEL
| 29>
| 30> %scf
| 31> MaxIter 1000
| 32> end
| 33>
| 34> * xyz 0 1
| 35>   C                      1.101496             -2.053978            7.307832
| 36>   O                      1.384987             -2.297058            5.969188
| 37>   H                      1.151471             -3.185395            5.702275
| 38>   H                      1.317104             -1.048099            7.698919
| 39>   H                      0.046442             -2.231063            7.406682
| 40>   H                      1.610017             -2.809292            7.907819
| 41>   C                    : -1.190788            1.142633             6.654220
| 42>   O                    : -0.403871            2.277754             7.020789
| 43>   H                    : -0.822837            2.627458             7.820886
| 44>   H                    : -1.397813            0.506782             7.600173
| 45>   H                    : -2.133651            1.325674             6.184751
| 46>   H                    : -0.679551            0.528703             5.928469
| 47> *
| 48>
| 49> #Run DFT-D3 single point of the particle with dimer basis set
| 50> $new_job
| 51> %base "18-83_DFT_B"
| 52> ! wB97X-D3 def2-TZVP TIGHTSCF CHELPG PMODEL
| 53>
| 54> %scf
| 55> MaxIter 1000
| 56> end
| 57>
| 58> * xyz 0 1
| 59>   C                    : 1.101496             -2.053978            7.307832
| 60>   O                    : 1.384987             -2.297058            5.969188
| 61>   H                    : 1.151471             -3.185395            5.702275
| 62>   H                    : 1.317104             -1.048099            7.698919
| 63>   H                    : 0.046442             -2.231063            7.406682
| 64>   H                    : 1.610017             -2.809292            7.907819
| 65>   C                      -1.190788            1.142633             6.654220
| 66>   O                      -0.403871            2.277754             7.020789
| 67>   H                      -0.822837            2.627458             7.820886
| 68>   H                      -1.397813            0.506782             7.600173
| 69>   H                      -2.133651            1.325674             6.184751
| 70>   H                      -0.679551            0.528703             5.928469
| 71> *
| 72>
| 73>                          ****END OF INPUT****
 Total Charge           Charge          ....    0
 Multiplicity           Mult            ....    1
 Number of Electrons    NEL             ....   36
Dispersion correction           -0.001488756
FINAL SINGLE POINT ENERGY      -231.463727519401
Dispersion correction           -0.000215820
FINAL SINGLE POINT ENERGY      -115.730639764989

CARTESIAN COORDINATES (ANGSTROEM)
---------------------------------
  C      1.101496   -2.053978    7.307832
  O      1.384987   -2.297058    5.969188
  H      1.151471   -3.185395    5.702275
  H      1.317104   -1.048099    7.698919
  H      0.046442   -2.231063    7.406682
  H      1.610017   -2.809292    7.907819
  C     -1.190788    1.142633    6.654220
  O     -0.403871    2.277754    7.020789
  H     -0.822837    2.627458    7.820886
  H     -1.397813    0.506782    7.600173
  H     -2.133651    1.325674    6.184751
  H     -0.679551    0.528703    5.928469

 Multiplicity           Mult            ....    1
 Number of Electrons    NEL             ....   18
 Basis Dimension        Dim             ....  172

ORBITAL ENERGIES
----------------

  NO   OCC          E(Eh)            E(eV)
   0   2.0000     -19.234852      -523.4069
   1   2.0000     -10.317455      -280.7522
   2   2.0000      -1.133254       -30.8374
   3   2.0000      -0.795229       -21.6393
   4   2.0000      -0.606879       -16.5140
   5   2.0000      -0.538573       -14.6553
   6   2.0000      -0.526197       -14.3185
   7   2.0000      -0.436718       -11.8837
   8   2.0000      -0.375266       -10.2115
   9   0.0000       0.085848         2.3360
  10   0.0000       0.113828         3.0974
  11   0.0000       0.152090         4.1386
  12   0.0000       0.166134         4.5207
  13   0.0000       0.183748         5.0000

MULLIKEN ATOMIC CHARGES
-----------------------
   0 C :   -0.002492
   1 O :    0.000131
   2 H :   -0.000022
   3 H :    0.001604
   4 H :   -0.000682
   5 H :    0.000011
   6 C :   -0.177323
   7 O :   -0.469299
   8 H :    0.317306
   9 H :    0.099450
  10 H :    0.108112
  11 H :    0.123204
Sum of atomic charges:   -0.0000000

LOEWDIN ATOMIC CHARGES
----------------------
   0 C :   -0.002864
   1 O :   -0.000134
   2 H :   -0.000017
   3 H :   -0.000665
   4 H :   -0.001119
   5 H :   -0.000018
   6 C :   -0.381577
   7 O :   -0.088455
   8 H :    0.175182
   9 H :    0.107419
  10 H :    0.087789
  11 H :    0.104458

  Mayer bond orders larger than 0.1
B(  6-C ,  7-O ) :   1.0008 B(  6-C ,  9-H ) :   0.9858 B(  6-C , 10-H ) :   0.9624
B(  6-C , 11-H ) :   0.9760 B(  7-O ,  8-H ) :   0.8989

Dispersion correction           -0.000254609
FINAL SINGLE POINT ENERGY      -115.731950321639

DIPOLE MOMENT
-------------
                                X             Y             Z
Electronic contribution:      1.11968       1.55318       0.26033
Nuclear contribution   :     -1.69056      -1.77587       0.06780
                        -----------------------------------------
Total Dipole Moment    :     -0.57088      -0.22269       0.32813
                        -----------------------------------------
Magnitude (a.u.)       :      0.69510
Magnitude (Debye)      :      1.76681

Rotational constants in cm-1:     4.276742     0.814289     0.779737
Rotational constants in MHz : 128213.489064 24411.765141 23375.920549

                             ****ORCA TERMINATED NORMALLY****
TOTAL RUN TIME: 0 days 0 hours 1 minutes 5 seconds 321 msec
