                         Program Version 4.1.2  - RELEASE  -
|  1> #Run DFT-D3 single point of the dimer
|  2> ! wB97X-D3 def2-TZVP TIGHTSCF  CHELPG PAL8
|  3>
|  4> %base "99_charges"
|  5>
|  6> %scf
|  7> MaxIter 1000
|  8> end
|  9> %output
| 10>   Print[ P_Mayer ] 1
| 11>   Print[ P_NatPop ] 1
| 12>   Print[ P_Hirshfeld ] 1
| 13>   Print[ P_Mulliken ] 1
| 14>   Print [ P_Loewdin ] 1
| 15> end
| 16>
| 17> * xyz 0 1
| 18>   C                      -3.993958            -0.705394            -4.450815
| 19>   O                      -5.159962            -0.121369            -5.009932
| 20>   H                      -5.361612            -0.513829            -5.881007
| 21>   H                      -4.100488            -1.583717            -3.860684
| 22>   H                      -3.242868            -0.844641            -5.215061
| 23>   H                      -3.585811            0.041612             -3.825818
| 24> *
| 25>
| 26>                          ****END OF INPUT****

CARTESIAN COORDINATES (ANGSTROEM)
---------------------------------
  C     -3.993958   -0.705394   -4.450815
  O     -5.159962   -0.121369   -5.009932
  H     -5.361612   -0.513829   -5.881007
  H     -4.100488   -1.583717   -3.860684
  H     -3.242868   -0.844641   -5.215061
  H     -3.585811    0.041612   -3.825818

 Total Charge           Charge          ....    0
 Multiplicity           Mult            ....    1
 Number of Electrons    NEL             ....   18
 Basis Dimension        Dim             ....   86

ORBITAL ENERGIES
----------------

  NO   OCC          E(Eh)            E(eV)
   0   2.0000     -19.230021      -523.2755
   1   2.0000     -10.303478      -280.3719
   2   2.0000      -1.128984       -30.7212
   3   2.0000      -0.802575       -21.8392
   4   2.0000      -0.609433       -16.5835
   5   2.0000      -0.547468       -14.8974
   6   2.0000      -0.525802       -14.3078
   7   2.0000      -0.428571       -11.6620
   8   2.0000      -0.376112       -10.2345
   9   0.0000       0.115066         3.1311
  10   0.0000       0.155710         4.2371
  11   0.0000       0.203324         5.5327
  12   0.0000       0.213948         5.8218
  13   0.0000       0.228875         6.2280

MULLIKEN ATOMIC CHARGES
-----------------------
   0 C :   -0.156567
   1 O :   -0.486440
   2 H :    0.316951
   3 H :    0.103870
   4 H :    0.101052
   5 H :    0.121134
Sum of atomic charges:   -0.0000000

LOEWDIN ATOMIC CHARGES
----------------------
   0 C :   -0.374435
   1 O :   -0.088086
   2 H :    0.175880
   3 H :    0.089044
   4 H :    0.095143
   5 H :    0.102453

  Mayer bond orders larger than 0.1
B(  0-C ,  1-O ) :   1.0034 B(  0-C ,  3-H ) :   0.9675 B(  0-C ,  4-H ) :   0.9859
B(  0-C ,  5-H ) :   0.9790 B(  1-O ,  2-H ) :   0.8960

Dispersion correction           -0.000249987
FINAL SINGLE POINT ENERGY      -115.732704702183

DIPOLE MOMENT
-------------
                                X             Y             Z
Electronic contribution:     -1.54880       0.68623      -0.57011
Nuclear contribution   :      1.91805      -1.15476       0.24082
                        -----------------------------------------
Total Dipole Moment    :      0.36925      -0.46853      -0.32928
                        -----------------------------------------
Magnitude (a.u.)       :      0.68139
Magnitude (Debye)      :      1.73195

Rotational constants in cm-1:     4.524207     0.823764     0.798989
Rotational constants in MHz : 135632.314869 24695.825684 23953.079367

                             ****ORCA TERMINATED NORMALLY****
TOTAL RUN TIME: 0 days 0 hours 0 minutes 21 seconds 33 msec
