                         Program Version 4.1.2  - RELEASE  -
|  1> #Run DFT-D3 single point of the dimer
|  2> ! wB97X-D3 def2-TZVP TIGHTSCF CHELPG PMODEL PAL8
|  3>
|  4> %base "11-101_DFT_AB"
|  5>
|  6> %scf
|  7> MaxIter 1000
|  8> end
|  9>
| 10> * xyz 0 1
| 11>   C                      -3.641882            -6.013494            -3.653541
| 12>   O                      -3.109496            -5.033797            -2.834084
| 13>   H                      -2.177298            -4.956198            -2.865698
| 14>   H                      -3.149717            -6.980031            -3.450855
| 15>   H                      -4.734627            -6.165777            -3.567122
| 16>   H                      -3.537758            -5.813317            -4.687027
| 17>   C                      -4.737390            -2.428438            -4.177809
| 18>   O                      -4.664823            -2.781278            -2.864352
| 19>   H                      -4.455743            -3.704461            -2.714678
| 20>   H                      -5.416002            -3.120334            -4.767103
| 21>   H                      -5.202051            -1.482690            -4.351947
| 22>   H                      -3.755686            -2.566074            -4.613602
| 23> *
| 24>
| 25> #Run DFT-D3 single point of the molecule with dimer basis set
| 26> $new_job
| 27> %base "11-101_DFT_A"
| 28> ! wB97X-D3 def2-TZVP TIGHTSCF CHELPG PMODEL
| 29>
| 30> %scf
| 31> MaxIter 1000
| 32> end
| 33>
| 34> * xyz 0 1
| 35>   C                      -3.641882            -6.013494            -3.653541
| 36>   O                      -3.109496            -5.033797            -2.834084
| 37>   H                      -2.177298            -4.956198            -2.865698
| 38>   H                      -3.149717            -6.980031            -3.450855
| 39>   H                      -4.734627            -6.165777            -3.567122
| 40>   H                      -3.537758            -5.813317            -4.687027
| 41>   C                    : -4.737390            -2.428438            -4.177809
| 42>   O                    : -4.664823            -2.781278            -2.864352
| 43>   H                    : -4.455743            -3.704461            -2.714678
| 44>   H                    : -5.416002            -3.120334            -4.767103
| 45>   H                    : -5.202051            -1.482690            -4.351947
| 46>   H                    : -3.755686            -2.566074            -4.613602
| 47> *
| 48>
| 49> #Run DFT-D3 single point of the particle with dimer basis set
| 50> $new_job
| 51> %base "11-101_DFT_B"
| 52> ! wB97X-D3 def2-TZVP TIGHTSCF CHELPG PMODEL
| 53>
| 54> %scf
| 55> MaxIter 1000
| 56> end
| 57>
| 58> * xyz 0 1
| 59>   C                    : -3.641882            -6.013494            -3.653541
| 60>   O                    : -3.109496            -5.033797            -2.834084
| 61>   H                    : -2.177298            -4.956198            -2.865698
| 62>   H                    : -3.149717            -6.980031            -3.450855
| 63>   H                    : -4.734627            -6.165777            -3.567122
| 64>   H                    : -3.537758            -5.813317            -4.687027
| 65>   C                      -4.737390            -2.428438            -4.177809
| 66>   O                      -4.664823            -2.781278            -2.864352
| 67>   H                      -4.455743            -3.704461            -2.714678
| 68>   H                      -5.416002            -3.120334            -4.767103
| 69>   H                      -5.202051            -1.482690            -4.351947
| 70>   H                      -3.755686            -2.566074            -4.613602
| 71> *
| 72>
| 73>                          ****END OF INPUT****
 Total Charge           Charge          ....    0
 Multiplicity           Mult            ....    1
 Number of Electrons    NEL             ....   36
Dispersion correction           -0.002217331
FINAL SINGLE POINT ENERGY      -231.467921765796
Dispersion correction           -0.000242879
FINAL SINGLE POINT ENERGY      -115.732054000635

CARTESIAN COORDINATES (ANGSTROEM)
---------------------------------
  C     -3.641882   -6.013494   -3.653541
  O     -3.109496   -5.033797   -2.834084
  H     -2.177298   -4.956198   -2.865698
  H     -3.149717   -6.980031   -3.450855
  H     -4.734627   -6.165777   -3.567122
  H     -3.537758   -5.813317   -4.687027
  C     -4.737390   -2.428438   -4.177809
  O     -4.664823   -2.781278   -2.864352
  H     -4.455743   -3.704461   -2.714678
  H     -5.416002   -3.120334   -4.767103
  H     -5.202051   -1.482690   -4.351947
  H     -3.755686   -2.566074   -4.613602

 Multiplicity           Mult            ....    1
 Number of Electrons    NEL             ....   18
 Basis Dimension        Dim             ....  172

ORBITAL ENERGIES
----------------

  NO   OCC          E(Eh)            E(eV)
   0   2.0000     -19.227834      -523.2160
   1   2.0000     -10.309975      -280.5487
   2   2.0000      -1.149981       -31.2926
   3   2.0000      -0.797489       -21.7008
   4   2.0000      -0.621713       -16.9177
   5   2.0000      -0.558211       -15.1897
   6   2.0000      -0.529372       -14.4050
   7   2.0000      -0.422427       -11.4948
   8   2.0000      -0.367028        -9.9873
   9   0.0000       0.067274         1.8306
  10   0.0000       0.144216         3.9243
  11   0.0000       0.147196         4.0054
  12   0.0000       0.152800         4.1579
  13   0.0000       0.200081         5.4445

MULLIKEN ATOMIC CHARGES
-----------------------
   0 C :   -0.002182
   1 O :   -0.007133
   2 H :   -0.000828
   3 H :   -0.000133
   4 H :   -0.000262
   5 H :   -0.000316
   6 C :   -0.153289
   7 O :   -0.469013
   8 H :    0.322201
   9 H :    0.083286
  10 H :    0.128447
  11 H :    0.099222
Sum of atomic charges:   -0.0000000

LOEWDIN ATOMIC CHARGES
----------------------
   0 C :   -0.008345
   1 O :   -0.023542
   2 H :   -0.001608
   3 H :   -0.000153
   4 H :   -0.000948
   5 H :   -0.000458
   6 C :   -0.419170
   7 O :   -0.022321
   8 H :    0.181802
   9 H :    0.097209
  10 H :    0.104298
  11 H :    0.093237

  Mayer bond orders larger than 0.1
B(  6-C ,  7-O ) :   0.9921 B(  6-C ,  9-H ) :   0.9824 B(  6-C , 10-H ) :   0.9692
B(  6-C , 11-H ) :   0.9833 B(  7-O ,  8-H ) :   0.8975

Dispersion correction           -0.000225087
FINAL SINGLE POINT ENERGY      -115.730406815338

DIPOLE MOMENT
-------------
                                X             Y             Z
Electronic contribution:      0.13083      -0.15813       1.84519
Nuclear contribution   :     -0.03701      -0.29211      -2.23509
                        -----------------------------------------
Total Dipole Moment    :      0.09381      -0.45024      -0.38990
                        -----------------------------------------
Magnitude (a.u.)       :      0.60294
Magnitude (Debye)      :      1.53256

Rotational constants in cm-1:     4.400512     0.873618     0.843893
Rotational constants in MHz : 131924.036272 26190.405735 25299.266393

                             ****ORCA TERMINATED NORMALLY****
TOTAL RUN TIME: 0 days 0 hours 1 minutes 13 seconds 226 msec
