                         Program Version 4.1.2  - RELEASE  -
|  1> #Run DFT-D3 single point of the dimer
|  2> ! wB97X-D3 def2-TZVP TIGHTSCF  CHELPG PAL8
|  3>
|  4> %base "184_charges"
|  5>
|  6> %scf
|  7> MaxIter 1000
|  8> end
|  9> %output
| 10>   Print[ P_Mayer ] 1
| 11>   Print[ P_NatPop ] 1
| 12>   Print[ P_Hirshfeld ] 1
| 13>   Print[ P_Mulliken ] 1
| 14>   Print [ P_Loewdin ] 1
| 15> end
| 16>
| 17> * xyz 0 1
| 18>   C                      -7.613450            11.325867            4.440540
| 19>   O                      -8.751390            10.724378            3.756887
| 20>   H                      -8.537857            9.823327             3.460299
| 21>   H                      -7.029626            10.510673            4.880368
| 22>   H                      -6.958832            11.863758            3.684337
| 23>   H                      -7.906773            12.114624            5.159086
| 24> *
| 25>
| 26>                          ****END OF INPUT****

CARTESIAN COORDINATES (ANGSTROEM)
---------------------------------
  C     -7.613450   11.325867    4.440540
  O     -8.751390   10.724378    3.756887
  H     -8.537857    9.823327    3.460299
  H     -7.029626   10.510673    4.880368
  H     -6.958832   11.863758    3.684337
  H     -7.906773   12.114624    5.159086

 Total Charge           Charge          ....    0
 Multiplicity           Mult            ....    1
 Number of Electrons    NEL             ....   18
 Basis Dimension        Dim             ....   86

ORBITAL ENERGIES
----------------

  NO   OCC          E(Eh)            E(eV)
   0   2.0000     -19.228219      -523.2265
   1   2.0000     -10.323851      -280.9263
   2   2.0000      -1.118653       -30.4401
   3   2.0000      -0.792233       -21.5578
   4   2.0000      -0.600456       -16.3392
   5   2.0000      -0.534849       -14.5540
   6   2.0000      -0.523792       -14.2531
   7   2.0000      -0.431365       -11.7380
   8   2.0000      -0.369996       -10.0681
   9   0.0000       0.111864         3.0440
  10   0.0000       0.149305         4.0628
  11   0.0000       0.196783         5.3547
  12   0.0000       0.202486         5.5099
  13   0.0000       0.222142         6.0448

MULLIKEN ATOMIC CHARGES
-----------------------
   0 C :   -0.169744
   1 O :   -0.490679
   2 H :    0.317416
   3 H :    0.111544
   4 H :    0.103146
   5 H :    0.128318
Sum of atomic charges:   -0.0000000

LOEWDIN ATOMIC CHARGES
----------------------
   0 C :   -0.359288
   1 O :   -0.120852
   2 H :    0.171441
   3 H :    0.097321
   4 H :    0.102121
   5 H :    0.109258

  Mayer bond orders larger than 0.1
B(  0-C ,  1-O ) :   0.9938 B(  0-C ,  3-H ) :   0.9823 B(  0-C ,  4-H ) :   0.9732
B(  0-C ,  5-H ) :   0.9687 B(  1-O ,  2-H ) :   0.8959

Dispersion correction           -0.000266889
FINAL SINGLE POINT ENERGY      -115.731419488741

DIPOLE MOMENT
-------------
                                X             Y             Z
Electronic contribution:     -1.52219      -0.63725      -0.68911
Nuclear contribution   :      2.14080       0.31025       0.80213
                        -----------------------------------------
Total Dipole Moment    :      0.61860      -0.32700       0.11302
                        -----------------------------------------
Magnitude (a.u.)       :      0.70878
Magnitude (Debye)      :      1.80157

Rotational constants in cm-1:     4.170164     0.788225     0.757125
Rotational constants in MHz : 125018.371329 23630.405856 22698.025927

                             ****ORCA TERMINATED NORMALLY****
TOTAL RUN TIME: 0 days 0 hours 0 minutes 44 seconds 214 msec
