                         Program Version 4.1.2  - RELEASE  -
|  1> #Run DFT-D3 single point of the dimer
|  2> ! wB97X-D3 def2-TZVP TIGHTSCF CHELPG PMODEL PAL8
|  3>
|  4> %base "13-11_DFT_AB"
|  5>
|  6> %scf
|  7> MaxIter 1000
|  8> end
|  9>
| 10> * xyz 0 1
| 11>   C                      -2.257604            -6.993449            -0.918277
| 12>   O                      -2.080523            -8.395982            -0.827367
| 13>   H                      -2.059170            -8.743386            0.111713
| 14>   H                      -1.423130            -6.407729            -0.539471
| 15>   H                      -2.370768            -6.724110            -2.003700
| 16>   H                      -3.147931            -6.621619            -0.383193
| 17>   C                      -1.708168            -6.745225            3.942439
| 18>   O                      -2.101679            -5.421923            4.243975
| 19>   H                      -1.984440            -5.247799            5.187823
| 20>   H                      -2.537170            -7.464061            4.247987
| 21>   H                      -1.615068            -6.857520            2.852533
| 22>   H                      -0.770799            -7.131770            4.409028
| 23> *
| 24>
| 25> #Run DFT-D3 single point of the molecule with dimer basis set
| 26> $new_job
| 27> %base "13-11_DFT_A"
| 28> ! wB97X-D3 def2-TZVP TIGHTSCF CHELPG PMODEL
| 29>
| 30> %scf
| 31> MaxIter 1000
| 32> end
| 33>
| 34> * xyz 0 1
| 35>   C                      -2.257604            -6.993449            -0.918277
| 36>   O                      -2.080523            -8.395982            -0.827367
| 37>   H                      -2.059170            -8.743386            0.111713
| 38>   H                      -1.423130            -6.407729            -0.539471
| 39>   H                      -2.370768            -6.724110            -2.003700
| 40>   H                      -3.147931            -6.621619            -0.383193
| 41>   C                    : -1.708168            -6.745225            3.942439
| 42>   O                    : -2.101679            -5.421923            4.243975
| 43>   H                    : -1.984440            -5.247799            5.187823
| 44>   H                    : -2.537170            -7.464061            4.247987
| 45>   H                    : -1.615068            -6.857520            2.852533
| 46>   H                    : -0.770799            -7.131770            4.409028
| 47> *
| 48>
| 49> #Run DFT-D3 single point of the particle with dimer basis set
| 50> $new_job
| 51> %base "13-11_DFT_B"
| 52> ! wB97X-D3 def2-TZVP TIGHTSCF CHELPG PMODEL
| 53>
| 54> %scf
| 55> MaxIter 1000
| 56> end
| 57>
| 58> * xyz 0 1
| 59>   C                    : -2.257604            -6.993449            -0.918277
| 60>   O                    : -2.080523            -8.395982            -0.827367
| 61>   H                    : -2.059170            -8.743386            0.111713
| 62>   H                    : -1.423130            -6.407729            -0.539471
| 63>   H                    : -2.370768            -6.724110            -2.003700
| 64>   H                    : -3.147931            -6.621619            -0.383193
| 65>   C                      -1.708168            -6.745225            3.942439
| 66>   O                      -2.101679            -5.421923            4.243975
| 67>   H                      -1.984440            -5.247799            5.187823
| 68>   H                      -2.537170            -7.464061            4.247987
| 69>   H                      -1.615068            -6.857520            2.852533
| 70>   H                      -0.770799            -7.131770            4.409028
| 71> *
| 72>
| 73>                          ****END OF INPUT****
 Total Charge           Charge          ....    0
 Multiplicity           Mult            ....    1
 Number of Electrons    NEL             ....   36
Dispersion correction           -0.001031294
FINAL SINGLE POINT ENERGY      -231.468684678906
Dispersion correction           -0.000274567
FINAL SINGLE POINT ENERGY      -115.733747215350

CARTESIAN COORDINATES (ANGSTROEM)
---------------------------------
  C     -2.257604   -6.993449   -0.918277
  O     -2.080523   -8.395982   -0.827367
  H     -2.059170   -8.743386    0.111713
  H     -1.423130   -6.407729   -0.539471
  H     -2.370768   -6.724110   -2.003700
  H     -3.147931   -6.621619   -0.383193
  C     -1.708168   -6.745225    3.942439
  O     -2.101679   -5.421923    4.243975
  H     -1.984440   -5.247799    5.187823
  H     -2.537170   -7.464061    4.247987
  H     -1.615068   -6.857520    2.852533
  H     -0.770799   -7.131770    4.409028

 Multiplicity           Mult            ....    1
 Number of Electrons    NEL             ....   18
 Basis Dimension        Dim             ....  172

ORBITAL ENERGIES
----------------

  NO   OCC          E(Eh)            E(eV)
   0   2.0000     -19.233380      -523.3669
   1   2.0000     -10.320513      -280.8354
   2   2.0000      -1.135418       -30.8963
   3   2.0000      -0.791539       -21.5389
   4   2.0000      -0.611697       -16.6451
   5   2.0000      -0.531849       -14.4723
   6   2.0000      -0.526607       -14.3297
   7   2.0000      -0.434462       -11.8223
   8   2.0000      -0.371484       -10.1086
   9   0.0000       0.084653         2.3035
  10   0.0000       0.116376         3.1668
  11   0.0000       0.146566         3.9883
  12   0.0000       0.170764         4.6467
  13   0.0000       0.181720         4.9449

MULLIKEN ATOMIC CHARGES
-----------------------
   0 C :    0.000121
   1 O :   -0.000023
   2 H :   -0.000106
   3 H :   -0.000079
   4 H :    0.000012
   5 H :   -0.000012
   6 C :   -0.172210
   7 O :   -0.470831
   8 H :    0.317117
   9 H :    0.098344
  10 H :    0.125115
  11 H :    0.102552
Sum of atomic charges:    0.0000000

LOEWDIN ATOMIC CHARGES
----------------------
   0 C :   -0.000587
   1 O :   -0.000012
   2 H :   -0.000268
   3 H :   -0.000188
   4 H :   -0.000004
   5 H :   -0.000076
   6 C :   -0.399662
   7 O :   -0.077951
   8 H :    0.172709
   9 H :    0.100507
  10 H :    0.108806
  11 H :    0.096725

  Mayer bond orders larger than 0.1
B(  6-C ,  7-O ) :   1.0088 B(  6-C ,  9-H ) :   0.9779 B(  6-C , 10-H ) :   0.9720
B(  6-C , 11-H ) :   0.9672 B(  7-O ,  8-H ) :   0.8958

Dispersion correction           -0.000269433
FINAL SINGLE POINT ENERGY      -115.734496565790

DIPOLE MOMENT
-------------
                                X             Y             Z
Electronic contribution:     -0.43162       1.84719       0.27658
Nuclear contribution   :      0.67312      -2.24047       0.19755
                        -----------------------------------------
Total Dipole Moment    :      0.24150      -0.39328       0.47412
                        -----------------------------------------
Magnitude (a.u.)       :      0.66165
Magnitude (Debye)      :      1.68179

Rotational constants in cm-1:     4.226007     0.818105     0.790113
Rotational constants in MHz : 126692.509496 24526.177482 23687.003927

                             ****ORCA TERMINATED NORMALLY****
TOTAL RUN TIME: 0 days 0 hours 1 minutes 3 seconds 677 msec
