                         Program Version 4.1.2  - RELEASE  -
|  1> #Run DFT-D3 single point of the dimer
|  2> ! wB97X-D3 def2-TZVP TIGHTSCF CHELPG PMODEL PAL8
|  3>
|  4> %base "15-48_DFT_AB"
|  5>
|  6> %scf
|  7> MaxIter 1000
|  8> end
|  9>
| 10> * xyz 0 1
| 11>   C                      7.027536             3.700445             1.588677
| 12>   O                      7.121738             4.093266             0.247516
| 13>   H                      7.366341             3.333908             -0.299382
| 14>   H                      8.023769             3.471064             2.076743
| 15>   H                      6.544191             4.464693             2.197487
| 16>   H                      6.420623             2.848499             1.708700
| 17>   C                      5.561840             9.425816             -0.276154
| 18>   O                      6.689713             8.819843             -0.791196
| 19>   H                      6.817594             8.027454             -0.302918
| 20>   H                      5.761854             9.879597             0.725095
| 21>   H                      5.304196             10.222995            -1.050051
| 22>   H                      4.714096             8.755683             -0.068706
| 23> *
| 24>
| 25> #Run DFT-D3 single point of the molecule with dimer basis set
| 26> $new_job
| 27> %base "15-48_DFT_A"
| 28> ! wB97X-D3 def2-TZVP TIGHTSCF CHELPG PMODEL
| 29>
| 30> %scf
| 31> MaxIter 1000
| 32> end
| 33>
| 34> * xyz 0 1
| 35>   C                      7.027536             3.700445             1.588677
| 36>   O                      7.121738             4.093266             0.247516
| 37>   H                      7.366341             3.333908             -0.299382
| 38>   H                      8.023769             3.471064             2.076743
| 39>   H                      6.544191             4.464693             2.197487
| 40>   H                      6.420623             2.848499             1.708700
| 41>   C                    : 5.561840             9.425816             -0.276154
| 42>   O                    : 6.689713             8.819843             -0.791196
| 43>   H                    : 6.817594             8.027454             -0.302918
| 44>   H                    : 5.761854             9.879597             0.725095
| 45>   H                    : 5.304196             10.222995            -1.050051
| 46>   H                    : 4.714096             8.755683             -0.068706
| 47> *
| 48>
| 49> #Run DFT-D3 single point of the particle with dimer basis set
| 50> $new_job
| 51> %base "15-48_DFT_B"
| 52> ! wB97X-D3 def2-TZVP TIGHTSCF CHELPG PMODEL
| 53>
| 54> %scf
| 55> MaxIter 1000
| 56> end
| 57>
| 58> * xyz 0 1
| 59>   C                    : 7.027536             3.700445             1.588677
| 60>   O                    : 7.121738             4.093266             0.247516
| 61>   H                    : 7.366341             3.333908             -0.299382
| 62>   H                    : 8.023769             3.471064             2.076743
| 63>   H                    : 6.544191             4.464693             2.197487
| 64>   H                    : 6.420623             2.848499             1.708700
| 65>   C                      5.561840             9.425816             -0.276154
| 66>   O                      6.689713             8.819843             -0.791196
| 67>   H                      6.817594             8.027454             -0.302918
| 68>   H                      5.761854             9.879597             0.725095
| 69>   H                      5.304196             10.222995            -1.050051
| 70>   H                      4.714096             8.755683             -0.068706
| 71> *
| 72>
| 73>                          ****END OF INPUT****
 Total Charge           Charge          ....    0
 Multiplicity           Mult            ....    1
 Number of Electrons    NEL             ....   36
Dispersion correction           -0.000670285
FINAL SINGLE POINT ENERGY      -231.468123225143
Dispersion correction           -0.000247625
FINAL SINGLE POINT ENERGY      -115.734521354024

CARTESIAN COORDINATES (ANGSTROEM)
---------------------------------
  C      7.027536    3.700445    1.588677
  O      7.121738    4.093266    0.247516
  H      7.366341    3.333908   -0.299382
  H      8.023769    3.471064    2.076743
  H      6.544191    4.464693    2.197487
  H      6.420623    2.848499    1.708700
  C      5.561840    9.425816   -0.276154
  O      6.689713    8.819843   -0.791196
  H      6.817594    8.027454   -0.302918
  H      5.761854    9.879597    0.725095
  H      5.304196   10.222995   -1.050051
  H      4.714096    8.755683   -0.068706

 Multiplicity           Mult            ....    1
 Number of Electrons    NEL             ....   18
 Basis Dimension        Dim             ....  172

ORBITAL ENERGIES
----------------

  NO   OCC          E(Eh)            E(eV)
   0   2.0000     -19.230056      -523.2764
   1   2.0000     -10.317758      -280.7605
   2   2.0000      -1.153611       -31.3914
   3   2.0000      -0.789544       -21.4846
   4   2.0000      -0.625407       -17.0182
   5   2.0000      -0.537524       -14.6268
   6   2.0000      -0.523855       -14.2548
   7   2.0000      -0.438363       -11.9285
   8   2.0000      -0.370268       -10.0755
   9   0.0000       0.077263         2.1024
  10   0.0000       0.114252         3.1090
  11   0.0000       0.153754         4.1839
  12   0.0000       0.161554         4.3961
  13   0.0000       0.187364         5.0984

MULLIKEN ATOMIC CHARGES
-----------------------
   0 C :   -0.000025
   1 O :   -0.000006
   2 H :   -0.000000
   3 H :    0.000001
   4 H :   -0.000009
   5 H :   -0.000000
   6 C :   -0.158658
   7 O :   -0.456051
   8 H :    0.308688
   9 H :    0.089971
  10 H :    0.116789
  11 H :    0.099302
Sum of atomic charges:    0.0000000

LOEWDIN ATOMIC CHARGES
----------------------
   0 C :   -0.000033
   1 O :   -0.000040
   2 H :   -0.000003
   3 H :   -0.000000
   4 H :   -0.000010
   5 H :   -0.000001
   6 C :   -0.420602
   7 O :   -0.041764
   8 H :    0.157714
   9 H :    0.093556
  10 H :    0.119430
  11 H :    0.091753

  Mayer bond orders larger than 0.1
B(  6-C ,  7-O ) :   1.0016 B(  6-C ,  9-H ) :   0.9728 B(  6-C , 10-H ) :   0.9751
B(  6-C , 11-H ) :   0.9720 B(  7-O ,  8-H ) :   0.9054

Dispersion correction           -0.000229524
FINAL SINGLE POINT ENERGY      -115.732322151199

DIPOLE MOMENT
-------------
                                X             Y             Z
Electronic contribution:      1.49070      -0.77103      -0.79897
Nuclear contribution   :     -1.81784       0.46087       1.29571
                        -----------------------------------------
Total Dipole Moment    :     -0.32714      -0.31015       0.49674
                        -----------------------------------------
Magnitude (a.u.)       :      0.67080
Magnitude (Debye)      :      1.70503

Rotational constants in cm-1:     4.134649     0.871670     0.827629
Rotational constants in MHz : 123953.664906 26132.022366 24811.707210

                             ****ORCA TERMINATED NORMALLY****
TOTAL RUN TIME: 0 days 0 hours 0 minutes 51 seconds 625 msec
