                         Program Version 4.1.2  - RELEASE  -
|  1> #Run DFT-D3 single point of the dimer
|  2> ! wB97X-D3 def2-TZVP TIGHTSCF CHELPG PMODEL PAL8
|  3>
|  4> %base "9-124_DFT_AB"
|  5>
|  6> %scf
|  7> MaxIter 1000
|  8> end
|  9>
| 10> * xyz 0 1
| 11>   C                      -3.155609            9.352243             -9.350162
| 12>   O                      -4.380703            9.474228             -10.030575
| 13>   H                      -4.891382            10.142044            -9.556655
| 14>   H                      -2.955609            10.375344            -8.993204
| 15>   H                      -3.249638            8.739075             -8.469921
| 16>   H                      -2.251950            8.992903             -9.951599
| 17>   C                      -8.446834            8.830113             -10.074274
| 18>   O                      -8.773346            9.862234             -9.132004
| 19>   H                      -9.735866            9.704780             -8.984915
| 20>   H                      -7.489764            8.941547             -10.599315
| 21>   H                      -8.572767            7.872883             -9.501492
| 22>   H                      -9.195391            8.747111             -10.915548
| 23> *
| 24>
| 25> #Run DFT-D3 single point of the molecule with dimer basis set
| 26> $new_job
| 27> %base "9-124_DFT_A"
| 28> ! wB97X-D3 def2-TZVP TIGHTSCF CHELPG PMODEL
| 29>
| 30> %scf
| 31> MaxIter 1000
| 32> end
| 33>
| 34> * xyz 0 1
| 35>   C                      -3.155609            9.352243             -9.350162
| 36>   O                      -4.380703            9.474228             -10.030575
| 37>   H                      -4.891382            10.142044            -9.556655
| 38>   H                      -2.955609            10.375344            -8.993204
| 39>   H                      -3.249638            8.739075             -8.469921
| 40>   H                      -2.251950            8.992903             -9.951599
| 41>   C                    : -8.446834            8.830113             -10.074274
| 42>   O                    : -8.773346            9.862234             -9.132004
| 43>   H                    : -9.735866            9.704780             -8.984915
| 44>   H                    : -7.489764            8.941547             -10.599315
| 45>   H                    : -8.572767            7.872883             -9.501492
| 46>   H                    : -9.195391            8.747111             -10.915548
| 47> *
| 48>
| 49> #Run DFT-D3 single point of the particle with dimer basis set
| 50> $new_job
| 51> %base "9-124_DFT_B"
| 52> ! wB97X-D3 def2-TZVP TIGHTSCF CHELPG PMODEL
| 53>
| 54> %scf
| 55> MaxIter 1000
| 56> end
| 57>
| 58> * xyz 0 1
| 59>   C                    : -3.155609            9.352243             -9.350162
| 60>   O                    : -4.380703            9.474228             -10.030575
| 61>   H                    : -4.891382            10.142044            -9.556655
| 62>   H                    : -2.955609            10.375344            -8.993204
| 63>   H                    : -3.249638            8.739075             -8.469921
| 64>   H                    : -2.251950            8.992903             -9.951599
| 65>   C                      -8.446834            8.830113             -10.074274
| 66>   O                      -8.773346            9.862234             -9.132004
| 67>   H                      -9.735866            9.704780             -8.984915
| 68>   H                      -7.489764            8.941547             -10.599315
| 69>   H                      -8.572767            7.872883             -9.501492
| 70>   H                      -9.195391            8.747111             -10.915548
| 71> *
| 72>
| 73>                          ****END OF INPUT****
 Total Charge           Charge          ....    0
 Multiplicity           Mult            ....    1
 Number of Electrons    NEL             ....   36
Dispersion correction           -0.001004383
FINAL SINGLE POINT ENERGY      -231.460446546711
Dispersion correction           -0.000229254
FINAL SINGLE POINT ENERGY      -115.729544341848

CARTESIAN COORDINATES (ANGSTROEM)
---------------------------------
  C     -3.155609    9.352243   -9.350162
  O     -4.380703    9.474228  -10.030575
  H     -4.891382   10.142044   -9.556655
  H     -2.955609   10.375344   -8.993204
  H     -3.249638    8.739075   -8.469921
  H     -2.251950    8.992903   -9.951599
  C     -8.446834    8.830113  -10.074274
  O     -8.773346    9.862234   -9.132004
  H     -9.735866    9.704780   -8.984915
  H     -7.489764    8.941547  -10.599315
  H     -8.572767    7.872883   -9.501492
  H     -9.195391    8.747111  -10.915548

 Multiplicity           Mult            ....    1
 Number of Electrons    NEL             ....   18
 Basis Dimension        Dim             ....  172

ORBITAL ENERGIES
----------------

  NO   OCC          E(Eh)            E(eV)
   0   2.0000     -19.234864      -523.4073
   1   2.0000     -10.322843      -280.8988
   2   2.0000      -1.129870       -30.7453
   3   2.0000      -0.786972       -21.4146
   4   2.0000      -0.602232       -16.3876
   5   2.0000      -0.544555       -14.8181
   6   2.0000      -0.517492       -14.0817
   7   2.0000      -0.439485       -11.9590
   8   2.0000      -0.370233       -10.0746
   9   0.0000       0.090035         2.4500
  10   0.0000       0.109797         2.9877
  11   0.0000       0.147797         4.0218
  12   0.0000       0.168023         4.5721
  13   0.0000       0.192377         5.2348

MULLIKEN ATOMIC CHARGES
-----------------------
   0 C :   -0.000155
   1 O :   -0.000064
   2 H :    0.000274
   3 H :    0.000000
   4 H :    0.000010
   5 H :   -0.000004
   6 C :   -0.193054
   7 O :   -0.465809
   8 H :    0.317831
   9 H :    0.131311
  10 H :    0.107535
  11 H :    0.102125
Sum of atomic charges:    0.0000000

LOEWDIN ATOMIC CHARGES
----------------------
   0 C :   -0.000051
   1 O :   -0.000510
   2 H :   -0.000403
   3 H :   -0.000002
   4 H :   -0.000002
   5 H :   -0.000001
   6 C :   -0.388060
   7 O :   -0.105683
   8 H :    0.187306
   9 H :    0.107798
  10 H :    0.101850
  11 H :    0.097757

  Mayer bond orders larger than 0.1
B(  6-C ,  7-O ) :   0.9921 B(  6-C ,  9-H ) :   0.9671 B(  6-C , 10-H ) :   0.9829
B(  6-C , 11-H ) :   0.9732 B(  7-O ,  8-H ) :   0.8969

Dispersion correction           -0.000236455
FINAL SINGLE POINT ENERGY      -115.728842586423

DIPOLE MOMENT
-------------
                                X             Y             Z
Electronic contribution:     -0.07870       1.48309       1.22158
Nuclear contribution   :     -0.37948      -1.97069      -1.51615
                        -----------------------------------------
Total Dipole Moment    :     -0.45818      -0.48760      -0.29457
                        -----------------------------------------
Magnitude (a.u.)       :      0.73107
Magnitude (Debye)      :      1.85823

Rotational constants in cm-1:     4.094498     0.813011     0.779350
Rotational constants in MHz : 122749.958048 24373.459194 23364.328133

                             ****ORCA TERMINATED NORMALLY****
TOTAL RUN TIME: 0 days 0 hours 0 minutes 39 seconds 265 msec
