                         Program Version 4.1.2  - RELEASE  -
|  1> #Run DFT-D3 single point of the dimer
|  2> ! wB97X-D3 def2-TZVP TIGHTSCF CHELPG PMODEL PAL8
|  3>
|  4> %base "7-199_DFT_AB"
|  5>
|  6> %scf
|  7> MaxIter 1000
|  8> end
|  9>
| 10> * xyz 0 1
| 11>   C                      -6.045560            -8.791111            -9.092576
| 12>   O                      -6.099992            -9.084362            -7.667604
| 13>   H                      -5.380830            -9.682952            -7.459101
| 14>   H                      -5.092148            -8.258486            -9.316801
| 15>   H                      -5.891046            -9.683915            -9.654917
| 16>   H                      -6.893390            -8.131081            -9.325987
| 17>   C                      -5.975192            -6.182444            -5.476440
| 18>   O                      -6.530866            -7.490303            -5.501899
| 19>   H                      -6.134978            -7.865174            -6.339371
| 20>   H                      -6.314522            -5.523298            -4.687969
| 21>   H                      -4.854872            -6.273809            -5.430052
| 22>   H                      -6.189006            -5.749936            -6.435882
| 23> *
| 24>
| 25> #Run DFT-D3 single point of the molecule with dimer basis set
| 26> $new_job
| 27> %base "7-199_DFT_A"
| 28> ! wB97X-D3 def2-TZVP TIGHTSCF CHELPG PMODEL
| 29>
| 30> %scf
| 31> MaxIter 1000
| 32> end
| 33>
| 34> * xyz 0 1
| 35>   C                      -6.045560            -8.791111            -9.092576
| 36>   O                      -6.099992            -9.084362            -7.667604
| 37>   H                      -5.380830            -9.682952            -7.459101
| 38>   H                      -5.092148            -8.258486            -9.316801
| 39>   H                      -5.891046            -9.683915            -9.654917
| 40>   H                      -6.893390            -8.131081            -9.325987
| 41>   C                    : -5.975192            -6.182444            -5.476440
| 42>   O                    : -6.530866            -7.490303            -5.501899
| 43>   H                    : -6.134978            -7.865174            -6.339371
| 44>   H                    : -6.314522            -5.523298            -4.687969
| 45>   H                    : -4.854872            -6.273809            -5.430052
| 46>   H                    : -6.189006            -5.749936            -6.435882
| 47> *
| 48>
| 49> #Run DFT-D3 single point of the particle with dimer basis set
| 50> $new_job
| 51> %base "7-199_DFT_B"
| 52> ! wB97X-D3 def2-TZVP TIGHTSCF CHELPG PMODEL
| 53>
| 54> %scf
| 55> MaxIter 1000
| 56> end
| 57>
| 58> * xyz 0 1
| 59>   C                    : -6.045560            -8.791111            -9.092576
| 60>   O                    : -6.099992            -9.084362            -7.667604
| 61>   H                    : -5.380830            -9.682952            -7.459101
| 62>   H                    : -5.092148            -8.258486            -9.316801
| 63>   H                    : -5.891046            -9.683915            -9.654917
| 64>   H                    : -6.893390            -8.131081            -9.325987
| 65>   C                      -5.975192            -6.182444            -5.476440
| 66>   O                      -6.530866            -7.490303            -5.501899
| 67>   H                      -6.134978            -7.865174            -6.339371
| 68>   H                      -6.314522            -5.523298            -4.687969
| 69>   H                      -4.854872            -6.273809            -5.430052
| 70>   H                      -6.189006            -5.749936            -6.435882
| 71> *
| 72>
| 73>                          ****END OF INPUT****
 Total Charge           Charge          ....    0
 Multiplicity           Mult            ....    1
 Number of Electrons    NEL             ....   36
Dispersion correction           -0.001658623
FINAL SINGLE POINT ENERGY      -231.468359206983
Dispersion correction           -0.000240105
FINAL SINGLE POINT ENERGY      -115.731566920798

CARTESIAN COORDINATES (ANGSTROEM)
---------------------------------
  C     -6.045560   -8.791111   -9.092576
  O     -6.099992   -9.084362   -7.667604
  H     -5.380830   -9.682952   -7.459101
  H     -5.092148   -8.258486   -9.316801
  H     -5.891046   -9.683915   -9.654917
  H     -6.893390   -8.131081   -9.325987
  C     -5.975192   -6.182444   -5.476440
  O     -6.530866   -7.490303   -5.501899
  H     -6.134978   -7.865174   -6.339371
  H     -6.314522   -5.523298   -4.687969
  H     -4.854872   -6.273809   -5.430052
  H     -6.189006   -5.749936   -6.435882

 Multiplicity           Mult            ....    1
 Number of Electrons    NEL             ....   18
 Basis Dimension        Dim             ....  172

ORBITAL ENERGIES
----------------

  NO   OCC          E(Eh)            E(eV)
   0   2.0000     -19.233781      -523.3778
   1   2.0000     -10.314236      -280.6646
   2   2.0000      -1.131079       -30.7782
   3   2.0000      -0.789670       -21.4880
   4   2.0000      -0.603805       -16.4304
   5   2.0000      -0.539119       -14.6702
   6   2.0000      -0.533948       -14.5295
   7   2.0000      -0.438495       -11.9321
   8   2.0000      -0.368807       -10.0357
   9   0.0000       0.066036         1.7969
  10   0.0000       0.132293         3.5999
  11   0.0000       0.146233         3.9792
  12   0.0000       0.164973         4.4891
  13   0.0000       0.195414         5.3175

MULLIKEN ATOMIC CHARGES
-----------------------
   0 C :   -0.001637
   1 O :   -0.001624
   2 H :   -0.000547
   3 H :    0.000085
   4 H :   -0.000092
   5 H :   -0.000031
   6 C :   -0.185584
   7 O :   -0.465637
   8 H :    0.315134
   9 H :    0.129812
  10 H :    0.101501
  11 H :    0.108620
Sum of atomic charges:   -0.0000000

LOEWDIN ATOMIC CHARGES
----------------------
   0 C :   -0.003814
   1 O :   -0.029181
   2 H :   -0.002876
   3 H :   -0.000134
   4 H :   -0.000104
   5 H :   -0.000282
   6 C :   -0.385183
   7 O :   -0.087482
   8 H :    0.211981
   9 H :    0.105397
  10 H :    0.100059
  11 H :    0.091621

  Mayer bond orders larger than 0.1
B(  6-C ,  7-O ) :   0.9841 B(  6-C ,  9-H ) :   0.9674 B(  6-C , 10-H ) :   0.9819
B(  6-C , 11-H ) :   0.9846 B(  7-O ,  8-H ) :   0.9002

Dispersion correction           -0.000213263
FINAL SINGLE POINT ENERGY      -115.730098055087

DIPOLE MOMENT
-------------
                                X             Y             Z
Electronic contribution:     -0.93258      -1.57630       0.26885
Nuclear contribution   :      1.37101       1.88158      -0.76191
                        -----------------------------------------
Total Dipole Moment    :      0.43843       0.30529      -0.49305
                        -----------------------------------------
Magnitude (a.u.)       :      0.72700
Magnitude (Debye)      :      1.84788

Rotational constants in cm-1:     4.173741     0.834878     0.797591
Rotational constants in MHz : 125125.606416 25029.008317 23911.182783

                             ****ORCA TERMINATED NORMALLY****
TOTAL RUN TIME: 0 days 0 hours 1 minutes 13 seconds 635 msec
