                         Program Version 4.1.2  - RELEASE  -
|  1> #Run DFT-D3 single point of the dimer
|  2> ! wB97X-D3 def2-TZVP TIGHTSCF CHELPG PMODEL PAL8
|  3>
|  4> %base "17-20_DFT_AB"
|  5>
|  6> %scf
|  7> MaxIter 1000
|  8> end
|  9>
| 10> * xyz 0 1
| 11>   C                      -4.021581            2.799748             -3.951247
| 12>   O                      -3.968984            3.408857             -2.693875
| 13>   H                      -3.428997            4.133400             -2.976944
| 14>   H                      -4.837682            2.116741             -4.115847
| 15>   H                      -4.388551            3.544017             -4.698766
| 16>   H                      -3.031499            2.512948             -4.232440
| 17>   C                      0.867542             3.912928             -3.182663
| 18>   O                      2.242398             3.624090             -3.323896
| 19>   H                      2.326476             3.199194             -4.209567
| 20>   H                      0.454290             2.951350             -2.958725
| 21>   H                      0.678797             4.536893             -2.275241
| 22>   H                      0.363630             4.368854             -4.072581
| 23> *
| 24>
| 25> #Run DFT-D3 single point of the molecule with dimer basis set
| 26> $new_job
| 27> %base "17-20_DFT_A"
| 28> ! wB97X-D3 def2-TZVP TIGHTSCF CHELPG PMODEL
| 29>
| 30> %scf
| 31> MaxIter 1000
| 32> end
| 33>
| 34> * xyz 0 1
| 35>   C                      -4.021581            2.799748             -3.951247
| 36>   O                      -3.968984            3.408857             -2.693875
| 37>   H                      -3.428997            4.133400             -2.976944
| 38>   H                      -4.837682            2.116741             -4.115847
| 39>   H                      -4.388551            3.544017             -4.698766
| 40>   H                      -3.031499            2.512948             -4.232440
| 41>   C                    : 0.867542             3.912928             -3.182663
| 42>   O                    : 2.242398             3.624090             -3.323896
| 43>   H                    : 2.326476             3.199194             -4.209567
| 44>   H                    : 0.454290             2.951350             -2.958725
| 45>   H                    : 0.678797             4.536893             -2.275241
| 46>   H                    : 0.363630             4.368854             -4.072581
| 47> *
| 48>
| 49> #Run DFT-D3 single point of the particle with dimer basis set
| 50> $new_job
| 51> %base "17-20_DFT_B"
| 52> ! wB97X-D3 def2-TZVP TIGHTSCF CHELPG PMODEL
| 53>
| 54> %scf
| 55> MaxIter 1000
| 56> end
| 57>
| 58> * xyz 0 1
| 59>   C                    : -4.021581            2.799748             -3.951247
| 60>   O                    : -3.968984            3.408857             -2.693875
| 61>   H                    : -3.428997            4.133400             -2.976944
| 62>   H                    : -4.837682            2.116741             -4.115847
| 63>   H                    : -4.388551            3.544017             -4.698766
| 64>   H                    : -3.031499            2.512948             -4.232440
| 65>   C                      0.867542             3.912928             -3.182663
| 66>   O                      2.242398             3.624090             -3.323896
| 67>   H                      2.326476             3.199194             -4.209567
| 68>   H                      0.454290             2.951350             -2.958725
| 69>   H                      0.678797             4.536893             -2.275241
| 70>   H                      0.363630             4.368854             -4.072581
| 71> *
| 72>
| 73>                          ****END OF INPUT****
 Total Charge           Charge          ....    0
 Multiplicity           Mult            ....    1
 Number of Electrons    NEL             ....   36
Dispersion correction           -0.000808931
FINAL SINGLE POINT ENERGY      -231.452430699136
Dispersion correction           -0.000191094
FINAL SINGLE POINT ENERGY      -115.721612570773

CARTESIAN COORDINATES (ANGSTROEM)
---------------------------------
  C     -4.021581    2.799748   -3.951247
  O     -3.968984    3.408857   -2.693875
  H     -3.428997    4.133400   -2.976944
  H     -4.837682    2.116741   -4.115847
  H     -4.388551    3.544017   -4.698766
  H     -3.031499    2.512948   -4.232440
  C      0.867542    3.912928   -3.182663
  O      2.242398    3.624090   -3.323896
  H      2.326476    3.199194   -4.209567
  H      0.454290    2.951350   -2.958725
  H      0.678797    4.536893   -2.275241
  H      0.363630    4.368854   -4.072581

 Multiplicity           Mult            ....    1
 Number of Electrons    NEL             ....   18
 Basis Dimension        Dim             ....  172

ORBITAL ENERGIES
----------------

  NO   OCC          E(Eh)            E(eV)
   0   2.0000     -19.231142      -523.3060
   1   2.0000     -10.314376      -280.6684
   2   2.0000      -1.133753       -30.8510
   3   2.0000      -0.788786       -21.4640
   4   2.0000      -0.604768       -16.4566
   5   2.0000      -0.545325       -14.8391
   6   2.0000      -0.524513       -14.2727
   7   2.0000      -0.434446       -11.8219
   8   2.0000      -0.368917       -10.0387
   9   0.0000       0.081123         2.2075
  10   0.0000       0.112404         3.0587
  11   0.0000       0.143009         3.8915
  12   0.0000       0.173579         4.7233
  13   0.0000       0.187612         5.1052

MULLIKEN ATOMIC CHARGES
-----------------------
   0 C :    0.000277
   1 O :    0.000002
   2 H :    0.000002
   3 H :   -0.000009
   4 H :   -0.000019
   5 H :   -0.000596
   6 C :   -0.169718
   7 O :   -0.472317
   8 H :    0.315670
   9 H :    0.106904
  10 H :    0.117236
  11 H :    0.102569
Sum of atomic charges:   -0.0000000

LOEWDIN ATOMIC CHARGES
----------------------
   0 C :   -0.000099
   1 O :   -0.000010
   2 H :   -0.000056
   3 H :   -0.000001
   4 H :   -0.000002
   5 H :   -0.000221
   6 C :   -0.397193
   7 O :   -0.091040
   8 H :    0.185456
   9 H :    0.091964
  10 H :    0.112688
  11 H :    0.098513

  Mayer bond orders larger than 0.1
B(  6-C ,  7-O ) :   0.9922 B(  6-C ,  9-H ) :   0.9902 B(  6-C , 10-H ) :   0.9696
B(  6-C , 11-H ) :   0.9685 B(  7-O ,  8-H ) :   0.8964

Dispersion correction           -0.000229314
FINAL SINGLE POINT ENERGY      -115.730704994291

DIPOLE MOMENT
-------------
                                X             Y             Z
Electronic contribution:      1.79363      -0.21350      -0.09885
Nuclear contribution   :     -2.27663       0.05104      -0.38022
                        -----------------------------------------
Total Dipole Moment    :     -0.48300      -0.16246      -0.47907
                        -----------------------------------------
Magnitude (a.u.)       :      0.69942
Magnitude (Debye)      :      1.77779

Rotational constants in cm-1:     4.169019     0.839840     0.802557
Rotational constants in MHz : 124984.039164 25177.775859 24060.065254

                             ****ORCA TERMINATED NORMALLY****
TOTAL RUN TIME: 0 days 0 hours 0 minutes 57 seconds 220 msec
