                         Program Version 4.1.2  - RELEASE  -
|  1> #Run DFT-D3 single point of the dimer
|  2> ! wB97X-D3 def2-TZVP TIGHTSCF CHELPG PMODEL PAL8
|  3>
|  4> %base "1-69_DFT_AB"
|  5>
|  6> %scf
|  7> MaxIter 1000
|  8> end
|  9>
| 10> * xyz 0 1
| 11>   C                      5.651281             -6.607152            -7.131808
| 12>   O                      4.421029             -6.172387            -6.635053
| 13>   H                      3.846128             -6.941923            -6.443546
| 14>   H                      6.331579             -5.736460            -7.229165
| 15>   H                      6.041744             -7.382705            -6.519006
| 16>   H                      5.543523             -7.079936            -8.062609
| 17>   C                      2.634205             -1.461037            -7.799375
| 18>   O                      2.958779             -2.531080            -6.959530
| 19>   H                      2.214326             -3.106339            -6.932803
| 20>   H                      2.605033             -1.685040            -8.822651
| 21>   H                      1.682317             -1.114751            -7.452413
| 22>   H                      3.331367             -0.619623            -7.696719
| 23> *
| 24>
| 25> #Run DFT-D3 single point of the molecule with dimer basis set
| 26> $new_job
| 27> %base "1-69_DFT_A"
| 28> ! wB97X-D3 def2-TZVP TIGHTSCF CHELPG PMODEL
| 29>
| 30> %scf
| 31> MaxIter 1000
| 32> end
| 33>
| 34> * xyz 0 1
| 35>   C                      5.651281             -6.607152            -7.131808
| 36>   O                      4.421029             -6.172387            -6.635053
| 37>   H                      3.846128             -6.941923            -6.443546
| 38>   H                      6.331579             -5.736460            -7.229165
| 39>   H                      6.041744             -7.382705            -6.519006
| 40>   H                      5.543523             -7.079936            -8.062609
| 41>   C                    : 2.634205             -1.461037            -7.799375
| 42>   O                    : 2.958779             -2.531080            -6.959530
| 43>   H                    : 2.214326             -3.106339            -6.932803
| 44>   H                    : 2.605033             -1.685040            -8.822651
| 45>   H                    : 1.682317             -1.114751            -7.452413
| 46>   H                    : 3.331367             -0.619623            -7.696719
| 47> *
| 48>
| 49> #Run DFT-D3 single point of the particle with dimer basis set
| 50> $new_job
| 51> %base "1-69_DFT_B"
| 52> ! wB97X-D3 def2-TZVP TIGHTSCF CHELPG PMODEL
| 53>
| 54> %scf
| 55> MaxIter 1000
| 56> end
| 57>
| 58> * xyz 0 1
| 59>   C                    : 5.651281             -6.607152            -7.131808
| 60>   O                    : 4.421029             -6.172387            -6.635053
| 61>   H                    : 3.846128             -6.941923            -6.443546
| 62>   H                    : 6.331579             -5.736460            -7.229165
| 63>   H                    : 6.041744             -7.382705            -6.519006
| 64>   H                    : 5.543523             -7.079936            -8.062609
| 65>   C                      2.634205             -1.461037            -7.799375
| 66>   O                      2.958779             -2.531080            -6.959530
| 67>   H                      2.214326             -3.106339            -6.932803
| 68>   H                      2.605033             -1.685040            -8.822651
| 69>   H                      1.682317             -1.114751            -7.452413
| 70>   H                      3.331367             -0.619623            -7.696719
| 71> *
| 72>
| 73>                          ****END OF INPUT****
 Total Charge           Charge          ....    0
 Multiplicity           Mult            ....    1
 Number of Electrons    NEL             ....   36
Dispersion correction           -0.000739581
FINAL SINGLE POINT ENERGY      -231.463891545658
Dispersion correction           -0.000217693
FINAL SINGLE POINT ENERGY      -115.732560686568

CARTESIAN COORDINATES (ANGSTROEM)
---------------------------------
  C      5.651281   -6.607152   -7.131808
  O      4.421029   -6.172387   -6.635053
  H      3.846128   -6.941923   -6.443546
  H      6.331579   -5.736460   -7.229165
  H      6.041744   -7.382705   -6.519006
  H      5.543523   -7.079936   -8.062609
  C      2.634205   -1.461037   -7.799375
  O      2.958779   -2.531080   -6.959530
  H      2.214326   -3.106339   -6.932803
  H      2.605033   -1.685040   -8.822651
  H      1.682317   -1.114751   -7.452413
  H      3.331367   -0.619623   -7.696719

 Multiplicity           Mult            ....    1
 Number of Electrons    NEL             ....   18
 Basis Dimension        Dim             ....  172

ORBITAL ENERGIES
----------------

  NO   OCC          E(Eh)            E(eV)
   0   2.0000     -19.226240      -523.1726
   1   2.0000     -10.304877      -280.4100
   2   2.0000      -1.144419       -31.1412
   3   2.0000      -0.801150       -21.8004
   4   2.0000      -0.615202       -16.7405
   5   2.0000      -0.554972       -15.1016
   6   2.0000      -0.531155       -14.4535
   7   2.0000      -0.429138       -11.6775
   8   2.0000      -0.374297       -10.1852
   9   0.0000       0.090649         2.4667
  10   0.0000       0.118497         3.2245
  11   0.0000       0.155658         4.2357
  12   0.0000       0.173330         4.7165
  13   0.0000       0.202603         5.5131

MULLIKEN ATOMIC CHARGES
-----------------------
   0 C :   -0.000585
   1 O :   -0.000275
   2 H :   -0.000014
   3 H :   -0.000061
   4 H :   -0.000007
   5 H :    0.000046
   6 C :   -0.150594
   7 O :   -0.473044
   8 H :    0.312749
   9 H :    0.103832
  10 H :    0.094550
  11 H :    0.113403
Sum of atomic charges:    0.0000000

LOEWDIN ATOMIC CHARGES
----------------------
   0 C :   -0.000258
   1 O :   -0.000501
   2 H :   -0.000044
   3 H :   -0.000055
   4 H :   -0.000009
   5 H :   -0.000001
   6 C :   -0.385337
   7 O :   -0.058638
   8 H :    0.158514
   9 H :    0.084000
  10 H :    0.092528
  11 H :    0.109800

  Mayer bond orders larger than 0.1
B(  6-C ,  7-O ) :   0.9965 B(  6-C ,  9-H ) :   0.9705 B(  6-C , 10-H ) :   0.9967
B(  6-C , 11-H ) :   0.9737 B(  7-O ,  8-H ) :   0.9027

Dispersion correction           -0.000216225
FINAL SINGLE POINT ENERGY      -115.732254949700

DIPOLE MOMENT
-------------
                                X             Y             Z
Electronic contribution:      0.57019      -1.36898       1.01003
Nuclear contribution   :     -1.18263       1.43842      -1.32737
                        -----------------------------------------
Total Dipole Moment    :     -0.61244       0.06944      -0.31734
                        -----------------------------------------
Magnitude (a.u.)       :      0.69326
Magnitude (Debye)      :      1.76213

Rotational constants in cm-1:     4.505426     0.851486     0.822233
Rotational constants in MHz : 135069.259078 25526.907596 24649.913166

                             ****ORCA TERMINATED NORMALLY****
TOTAL RUN TIME: 0 days 0 hours 6 minutes 14 seconds 158 msec
