                         Program Version 4.1.2  - RELEASE  -
|  1> #Run DFT-D3 single point of the dimer
|  2> ! wB97X-D3 def2-TZVP TIGHTSCF CHELPG PMODEL PAL8
|  3>
|  4> %base "9-187_DFT_AB"
|  5>
|  6> %scf
|  7> MaxIter 1000
|  8> end
|  9>
| 10> * xyz 0 1
| 11>   C                      3.170945             0.983623             -6.569867
| 12>   O                      4.280881             0.472252             -5.817686
| 13>   H                      4.458388             1.056046             -5.107771
| 14>   H                      3.371466             2.121854             -6.607864
| 15>   H                      3.348184             0.656798             -7.618752
| 16>   H                      2.126035             0.707362             -6.156423
| 17>   C                      2.403711             2.233500             -2.240277
| 18>   O                      2.961890             1.900304             -3.510987
| 19>   H                      2.285466             2.224040             -4.178838
| 20>   H                      3.212827             2.323104             -1.545528
| 21>   H                      1.740199             3.100437             -2.266122
| 22>   H                      1.691648             1.586078             -1.791668
| 23> *
| 24>
| 25> #Run DFT-D3 single point of the molecule with dimer basis set
| 26> $new_job
| 27> %base "9-187_DFT_A"
| 28> ! wB97X-D3 def2-TZVP TIGHTSCF CHELPG PMODEL
| 29>
| 30> %scf
| 31> MaxIter 1000
| 32> end
| 33>
| 34> * xyz 0 1
| 35>   C                      3.170945             0.983623             -6.569867
| 36>   O                      4.280881             0.472252             -5.817686
| 37>   H                      4.458388             1.056046             -5.107771
| 38>   H                      3.371466             2.121854             -6.607864
| 39>   H                      3.348184             0.656798             -7.618752
| 40>   H                      2.126035             0.707362             -6.156423
| 41>   C                    : 2.403711             2.233500             -2.240277
| 42>   O                    : 2.961890             1.900304             -3.510987
| 43>   H                    : 2.285466             2.224040             -4.178838
| 44>   H                    : 3.212827             2.323104             -1.545528
| 45>   H                    : 1.740199             3.100437             -2.266122
| 46>   H                    : 1.691648             1.586078             -1.791668
| 47> *
| 48>
| 49> #Run DFT-D3 single point of the particle with dimer basis set
| 50> $new_job
| 51> %base "9-187_DFT_B"
| 52> ! wB97X-D3 def2-TZVP TIGHTSCF CHELPG PMODEL
| 53>
| 54> %scf
| 55> MaxIter 1000
| 56> end
| 57>
| 58> * xyz 0 1
| 59>   C                    : 3.170945             0.983623             -6.569867
| 60>   O                    : 4.280881             0.472252             -5.817686
| 61>   H                    : 4.458388             1.056046             -5.107771
| 62>   H                    : 3.371466             2.121854             -6.607864
| 63>   H                    : 3.348184             0.656798             -7.618752
| 64>   H                    : 2.126035             0.707362             -6.156423
| 65>   C                      2.403711             2.233500             -2.240277
| 66>   O                      2.961890             1.900304             -3.510987
| 67>   H                      2.285466             2.224040             -4.178838
| 68>   H                      3.212827             2.323104             -1.545528
| 69>   H                      1.740199             3.100437             -2.266122
| 70>   H                      1.691648             1.586078             -1.791668
| 71> *
| 72>
| 73>                          ****END OF INPUT****
 Total Charge           Charge          ....    0
 Multiplicity           Mult            ....    1
 Number of Electrons    NEL             ....   36
Dispersion correction           -0.001839424
FINAL SINGLE POINT ENERGY      -231.458535080951
Dispersion correction           -0.000261784
FINAL SINGLE POINT ENERGY      -115.727722677761

CARTESIAN COORDINATES (ANGSTROEM)
---------------------------------
  C      3.170945    0.983623   -6.569867
  O      4.280881    0.472252   -5.817686
  H      4.458388    1.056046   -5.107771
  H      3.371466    2.121854   -6.607864
  H      3.348184    0.656798   -7.618752
  H      2.126035    0.707362   -6.156423
  C      2.403711    2.233500   -2.240277
  O      2.961890    1.900304   -3.510987
  H      2.285466    2.224040   -4.178838
  H      3.212827    2.323104   -1.545528
  H      1.740199    3.100437   -2.266122
  H      1.691648    1.586078   -1.791668

 Multiplicity           Mult            ....    1
 Number of Electrons    NEL             ....   18
 Basis Dimension        Dim             ....  172

ORBITAL ENERGIES
----------------

  NO   OCC          E(Eh)            E(eV)
   0   2.0000     -19.239985      -523.5466
   1   2.0000     -10.308361      -280.5048
   2   2.0000      -1.128443       -30.7065
   3   2.0000      -0.800379       -21.7794
   4   2.0000      -0.615946       -16.7608
   5   2.0000      -0.529070       -14.3967
   6   2.0000      -0.525042       -14.2871
   7   2.0000      -0.447532       -12.1780
   8   2.0000      -0.371880       -10.1194
   9   0.0000       0.084945         2.3115
  10   0.0000       0.125838         3.4242
  11   0.0000       0.155783         4.2391
  12   0.0000       0.179616         4.8876
  13   0.0000       0.196160         5.3378

MULLIKEN ATOMIC CHARGES
-----------------------
   0 C :   -0.001367
   1 O :    0.002347
   2 H :   -0.006664
   3 H :   -0.001365
   4 H :   -0.000308
   5 H :   -0.004073
   6 C :   -0.180132
   7 O :   -0.449074
   8 H :    0.317906
   9 H :    0.121398
  10 H :    0.100425
  11 H :    0.100907
Sum of atomic charges:    0.0000000

LOEWDIN ATOMIC CHARGES
----------------------
   0 C :   -0.010465
   1 O :   -0.003368
   2 H :   -0.015347
   3 H :   -0.001366
   4 H :   -0.000102
   5 H :   -0.003224
   6 C :   -0.381823
   7 O :   -0.075104
   8 H :    0.200997
   9 H :    0.103895
  10 H :    0.097358
  11 H :    0.088549

  Mayer bond orders larger than 0.1
B(  6-C ,  7-O ) :   1.0128 B(  6-C ,  9-H ) :   0.9831 B(  6-C , 10-H ) :   0.9829
B(  6-C , 11-H ) :   0.9622 B(  7-O ,  8-H ) :   0.8928

Dispersion correction           -0.000253635
FINAL SINGLE POINT ENERGY      -115.727039752752

DIPOLE MOMENT
-------------
                                X             Y             Z
Electronic contribution:      0.94692      -0.53249      -1.59287
Nuclear contribution   :     -1.60299       0.86748       1.69864
                        -----------------------------------------
Total Dipole Moment    :     -0.65607       0.33499       0.10577
                        -----------------------------------------
Magnitude (a.u.)       :      0.74420
Magnitude (Debye)      :      1.89161

Rotational constants in cm-1:     4.439930     0.824090     0.774393
Rotational constants in MHz : 133105.744877 24705.605420 23215.716626

                             ****ORCA TERMINATED NORMALLY****
TOTAL RUN TIME: 0 days 0 hours 0 minutes 44 seconds 866 msec
