                         Program Version 4.1.2  - RELEASE  -
|  1> #Run DFT-D3 single point of the dimer
|  2> ! wB97X-D3 def2-TZVP TIGHTSCF CHELPG PMODEL PAL8
|  3>
|  4> %base "12-193_DFT_AB"
|  5>
|  6> %scf
|  7> MaxIter 1000
|  8> end
|  9>
| 10> * xyz 0 1
| 11>   C                      10.961346            2.850851             -5.350093
| 12>   O                      9.971114             2.798636             -4.283877
| 13>   H                      9.843896             1.898025             -4.011744
| 14>   H                      11.948840            2.543303             -5.002153
| 15>   H                      10.830491            2.248679             -6.269059
| 16>   H                      11.163429            3.825260             -5.675786
| 17>   C                      8.459658             6.078243             -5.654800
| 18>   O                      8.107213             5.003737             -4.754010
| 19>   H                      8.830856             4.309858             -4.665204
| 20>   H                      7.738528             6.276972             -6.410405
| 21>   H                      8.541387             7.024653             -5.139487
| 22>   H                      9.455873             5.918282             -6.098995
| 23> *
| 24>
| 25> #Run DFT-D3 single point of the molecule with dimer basis set
| 26> $new_job
| 27> %base "12-193_DFT_A"
| 28> ! wB97X-D3 def2-TZVP TIGHTSCF CHELPG PMODEL
| 29>
| 30> %scf
| 31> MaxIter 1000
| 32> end
| 33>
| 34> * xyz 0 1
| 35>   C                      10.961346            2.850851             -5.350093
| 36>   O                      9.971114             2.798636             -4.283877
| 37>   H                      9.843896             1.898025             -4.011744
| 38>   H                      11.948840            2.543303             -5.002153
| 39>   H                      10.830491            2.248679             -6.269059
| 40>   H                      11.163429            3.825260             -5.675786
| 41>   C                    : 8.459658             6.078243             -5.654800
| 42>   O                    : 8.107213             5.003737             -4.754010
| 43>   H                    : 8.830856             4.309858             -4.665204
| 44>   H                    : 7.738528             6.276972             -6.410405
| 45>   H                    : 8.541387             7.024653             -5.139487
| 46>   H                    : 9.455873             5.918282             -6.098995
| 47> *
| 48>
| 49> #Run DFT-D3 single point of the particle with dimer basis set
| 50> $new_job
| 51> %base "12-193_DFT_B"
| 52> ! wB97X-D3 def2-TZVP TIGHTSCF CHELPG PMODEL
| 53>
| 54> %scf
| 55> MaxIter 1000
| 56> end
| 57>
| 58> * xyz 0 1
| 59>   C                    : 10.961346            2.850851             -5.350093
| 60>   O                    : 9.971114             2.798636             -4.283877
| 61>   H                    : 9.843896             1.898025             -4.011744
| 62>   H                    : 11.948840            2.543303             -5.002153
| 63>   H                    : 10.830491            2.248679             -6.269059
| 64>   H                    : 11.163429            3.825260             -5.675786
| 65>   C                      8.459658             6.078243             -5.654800
| 66>   O                      8.107213             5.003737             -4.754010
| 67>   H                      8.830856             4.309858             -4.665204
| 68>   H                      7.738528             6.276972             -6.410405
| 69>   H                      8.541387             7.024653             -5.139487
| 70>   H                      9.455873             5.918282             -6.098995
| 71> *
| 72>
| 73>                          ****END OF INPUT****
 Total Charge           Charge          ....    0
 Multiplicity           Mult            ....    1
 Number of Electrons    NEL             ....   36
Dispersion correction           -0.001881339
FINAL SINGLE POINT ENERGY      -231.466946756824
Dispersion correction           -0.000289611
FINAL SINGLE POINT ENERGY      -115.729466844847

CARTESIAN COORDINATES (ANGSTROEM)
---------------------------------
  C     10.961346    2.850851   -5.350093
  O      9.971114    2.798636   -4.283877
  H      9.843896    1.898025   -4.011744
  H     11.948840    2.543303   -5.002153
  H     10.830491    2.248679   -6.269059
  H     11.163429    3.825260   -5.675786
  C      8.459658    6.078243   -5.654800
  O      8.107213    5.003737   -4.754010
  H      8.830856    4.309858   -4.665204
  H      7.738528    6.276972   -6.410405
  H      8.541387    7.024653   -5.139487
  H      9.455873    5.918282   -6.098995

 Multiplicity           Mult            ....    1
 Number of Electrons    NEL             ....   18
 Basis Dimension        Dim             ....  172

ORBITAL ENERGIES
----------------

  NO   OCC          E(Eh)            E(eV)
   0   2.0000     -19.233030      -523.3574
   1   2.0000     -10.312342      -280.6131
   2   2.0000      -1.114991       -30.3404
   3   2.0000      -0.799589       -21.7579
   4   2.0000      -0.601668       -16.3722
   5   2.0000      -0.536666       -14.6034
   6   2.0000      -0.527645       -14.3579
   7   2.0000      -0.427979       -11.6459
   8   2.0000      -0.372544       -10.1374
   9   0.0000       0.065929         1.7940
  10   0.0000       0.136376         3.7110
  11   0.0000       0.139073         3.7844
  12   0.0000       0.167210         4.5500
  13   0.0000       0.191784         5.2187

MULLIKEN ATOMIC CHARGES
-----------------------
   0 C :   -0.005364
   1 O :   -0.000228
   2 H :   -0.000060
   3 H :   -0.000149
   4 H :    0.000333
   5 H :    0.000368
   6 C :   -0.160593
   7 O :   -0.489850
   8 H :    0.319448
   9 H :    0.120199
  10 H :    0.111416
  11 H :    0.104479
Sum of atomic charges:   -0.0000000

LOEWDIN ATOMIC CHARGES
----------------------
   0 C :   -0.007945
   1 O :   -0.019083
   2 H :   -0.000925
   3 H :   -0.000160
   4 H :   -0.000123
   5 H :   -0.001779
   6 C :   -0.358694
   7 O :   -0.110783
   8 H :    0.205973
   9 H :    0.095232
  10 H :    0.097619
  11 H :    0.100668

  Mayer bond orders larger than 0.1
B(  6-C ,  7-O ) :   0.9938 B(  6-C ,  9-H ) :   0.9740 B(  6-C , 10-H ) :   0.9778
B(  6-C , 11-H ) :   0.9808 B(  7-O ,  8-H ) :   0.8977

Dispersion correction           -0.000274863
FINAL SINGLE POINT ENERGY      -115.729720001121

DIPOLE MOMENT
-------------
                                X             Y             Z
Electronic contribution:     -0.63817      -1.33836       1.10412
Nuclear contribution   :      1.25451       1.36347      -1.43112
                        -----------------------------------------
Total Dipole Moment    :      0.61634       0.02511      -0.32701
                        -----------------------------------------
Magnitude (a.u.)       :      0.69817
Magnitude (Debye)      :      1.77461

Rotational constants in cm-1:     4.445428     0.792166     0.757810
Rotational constants in MHz : 133270.592107 23748.554031 22718.575845

                             ****ORCA TERMINATED NORMALLY****
TOTAL RUN TIME: 0 days 0 hours 1 minutes 3 seconds 158 msec
