                         Program Version 4.1.2  - RELEASE  -
|  1> #Run DFT-D3 single point of the dimer
|  2> ! wB97X-D3 def2-TZVP TIGHTSCF CHELPG PMODEL PAL8
|  3>
|  4> %base "7-111_DFT_AB"
|  5>
|  6> %scf
|  7> MaxIter 1000
|  8> end
|  9>
| 10> * xyz 0 1
| 11>   C                      0.729532             5.280987             0.792221
| 12>   O                      0.011848             4.968392             -0.373084
| 13>   H                      -0.194236            5.859441             -0.599549
| 14>   H                      1.347677             4.466694             1.117791
| 15>   H                      1.488634             6.100130             0.576506
| 16>   H                      -0.035568            5.478909             1.575330
| 17>   C                      -3.322712            4.496069             -1.381422
| 18>   O                      -4.046440            3.672575             -2.286686
| 19>   H                      -4.540441            2.947560             -1.866418
| 20>   H                      -2.791277            5.191939             -2.030407
| 21>   H                      -4.010575            5.026944             -0.666010
| 22>   H                      -2.645470            3.961505             -0.674929
| 23> *
| 24>
| 25> #Run DFT-D3 single point of the molecule with dimer basis set
| 26> $new_job
| 27> %base "7-111_DFT_A"
| 28> ! wB97X-D3 def2-TZVP TIGHTSCF CHELPG PMODEL
| 29>
| 30> %scf
| 31> MaxIter 1000
| 32> end
| 33>
| 34> * xyz 0 1
| 35>   C                      0.729532             5.280987             0.792221
| 36>   O                      0.011848             4.968392             -0.373084
| 37>   H                      -0.194236            5.859441             -0.599549
| 38>   H                      1.347677             4.466694             1.117791
| 39>   H                      1.488634             6.100130             0.576506
| 40>   H                      -0.035568            5.478909             1.575330
| 41>   C                    : -3.322712            4.496069             -1.381422
| 42>   O                    : -4.046440            3.672575             -2.286686
| 43>   H                    : -4.540441            2.947560             -1.866418
| 44>   H                    : -2.791277            5.191939             -2.030407
| 45>   H                    : -4.010575            5.026944             -0.666010
| 46>   H                    : -2.645470            3.961505             -0.674929
| 47> *
| 48>
| 49> #Run DFT-D3 single point of the particle with dimer basis set
| 50> $new_job
| 51> %base "7-111_DFT_B"
| 52> ! wB97X-D3 def2-TZVP TIGHTSCF CHELPG PMODEL
| 53>
| 54> %scf
| 55> MaxIter 1000
| 56> end
| 57>
| 58> * xyz 0 1
| 59>   C                    : 0.729532             5.280987             0.792221
| 60>   O                    : 0.011848             4.968392             -0.373084
| 61>   H                    : -0.194236            5.859441             -0.599549
| 62>   H                    : 1.347677             4.466694             1.117791
| 63>   H                    : 1.488634             6.100130             0.576506
| 64>   H                    : -0.035568            5.478909             1.575330
| 65>   C                      -3.322712            4.496069             -1.381422
| 66>   O                      -4.046440            3.672575             -2.286686
| 67>   H                      -4.540441            2.947560             -1.866418
| 68>   H                      -2.791277            5.191939             -2.030407
| 69>   H                      -4.010575            5.026944             -0.666010
| 70>   H                      -2.645470            3.961505             -0.674929
| 71> *
| 72>
| 73>                          ****END OF INPUT****
 Total Charge           Charge          ....    0
 Multiplicity           Mult            ....    1
 Number of Electrons    NEL             ....   36
Dispersion correction           -0.001386351
FINAL SINGLE POINT ENERGY      -231.461638046011
Dispersion correction           -0.000201953
FINAL SINGLE POINT ENERGY      -115.727286621773

CARTESIAN COORDINATES (ANGSTROEM)
---------------------------------
  C      0.729532    5.280987    0.792221
  O      0.011848    4.968392   -0.373084
  H     -0.194236    5.859441   -0.599549
  H      1.347677    4.466694    1.117791
  H      1.488634    6.100130    0.576506
  H     -0.035568    5.478909    1.575330
  C     -3.322712    4.496069   -1.381422
  O     -4.046440    3.672575   -2.286686
  H     -4.540441    2.947560   -1.866418
  H     -2.791277    5.191939   -2.030407
  H     -4.010575    5.026944   -0.666010
  H     -2.645470    3.961505   -0.674929

 Multiplicity           Mult            ....    1
 Number of Electrons    NEL             ....   18
 Basis Dimension        Dim             ....  172

ORBITAL ENERGIES
----------------

  NO   OCC          E(Eh)            E(eV)
   0   2.0000     -19.229963      -523.2739
   1   2.0000     -10.319772      -280.8153
   2   2.0000      -1.127971       -30.6937
   3   2.0000      -0.794004       -21.6059
   4   2.0000      -0.613765       -16.7014
   5   2.0000      -0.528178       -14.3725
   6   2.0000      -0.524149       -14.2628
   7   2.0000      -0.433754       -11.8031
   8   2.0000      -0.369655       -10.0588
   9   0.0000       0.083546         2.2734
  10   0.0000       0.114831         3.1247
  11   0.0000       0.144395         3.9292
  12   0.0000       0.174694         4.7537
  13   0.0000       0.191269         5.2047

MULLIKEN ATOMIC CHARGES
-----------------------
   0 C :   -0.000380
   1 O :   -0.000579
   2 H :   -0.000308
   3 H :    0.000036
   4 H :    0.000005
   5 H :   -0.000040
   6 C :   -0.145348
   7 O :   -0.485060
   8 H :    0.315671
   9 H :    0.124611
  10 H :    0.093410
  11 H :    0.097981
Sum of atomic charges:   -0.0000000

LOEWDIN ATOMIC CHARGES
----------------------
   0 C :   -0.000523
   1 O :   -0.002625
   2 H :   -0.001078
   3 H :   -0.000010
   4 H :   -0.000011
   5 H :   -0.000074
   6 C :   -0.383213
   7 O :   -0.089169
   8 H :    0.171516
   9 H :    0.111242
  10 H :    0.097611
  11 H :    0.096334

  Mayer bond orders larger than 0.1
B(  6-C ,  7-O ) :   0.9988 B(  6-C ,  9-H ) :   0.9745 B(  6-C , 10-H ) :   0.9715
B(  6-C , 11-H ) :   0.9684 B(  7-O ,  8-H ) :   0.8930

Dispersion correction           -0.000272285
FINAL SINGLE POINT ENERGY      -115.733544412211

DIPOLE MOMENT
-------------
                                X             Y             Z
Electronic contribution:     -0.80848      -0.97949      -1.29463
Nuclear contribution   :      0.77951       0.83505       1.92556
                        -----------------------------------------
Total Dipole Moment    :     -0.02897      -0.14444       0.63092
                        -----------------------------------------
Magnitude (a.u.)       :      0.64790
Magnitude (Debye)      :      1.64682

Rotational constants in cm-1:     4.234406     0.818168     0.781882
Rotational constants in MHz : 126944.300359 24528.050547 23440.218162

                             ****ORCA TERMINATED NORMALLY****
TOTAL RUN TIME: 0 days 0 hours 1 minutes 12 seconds 830 msec
