                         Program Version 4.1.2  - RELEASE  -
|  1> #Run DFT-D3 single point of the dimer
|  2> ! wB97X-D3 def2-TZVP TIGHTSCF CHELPG PMODEL PAL8
|  3>
|  4> %base "14-148_DFT_AB"
|  5>
|  6> %scf
|  7> MaxIter 1000
|  8> end
|  9>
| 10> * xyz 0 1
| 11>   C                      5.639889             -2.002316            -10.846133
| 12>   O                      6.433753             -3.143011            -10.785352
| 13>   H                      7.334829             -3.003655            -11.137374
| 14>   H                      5.024231             -1.919732            -11.762310
| 15>   H                      4.985736             -1.933591            -9.979447
| 16>   H                      6.210420             -1.078636            -10.743734
| 17>   C                      9.460644             -3.791369            -8.790349
| 18>   O                      9.723722             -4.555290            -9.940950
| 19>   H                      10.000357            -3.939135            -10.597525
| 20>   H                      8.413790             -3.319582            -8.752754
| 21>   H                      9.487116             -4.471365            -7.986285
| 22>   H                      10.268471            -3.035572            -8.522973
| 23> *
| 24>
| 25> #Run DFT-D3 single point of the molecule with dimer basis set
| 26> $new_job
| 27> %base "14-148_DFT_A"
| 28> ! wB97X-D3 def2-TZVP TIGHTSCF CHELPG PMODEL
| 29>
| 30> %scf
| 31> MaxIter 1000
| 32> end
| 33>
| 34> * xyz 0 1
| 35>   C                      5.639889             -2.002316            -10.846133
| 36>   O                      6.433753             -3.143011            -10.785352
| 37>   H                      7.334829             -3.003655            -11.137374
| 38>   H                      5.024231             -1.919732            -11.762310
| 39>   H                      4.985736             -1.933591            -9.979447
| 40>   H                      6.210420             -1.078636            -10.743734
| 41>   C                    : 9.460644             -3.791369            -8.790349
| 42>   O                    : 9.723722             -4.555290            -9.940950
| 43>   H                    : 10.000357            -3.939135            -10.597525
| 44>   H                    : 8.413790             -3.319582            -8.752754
| 45>   H                    : 9.487116             -4.471365            -7.986285
| 46>   H                    : 10.268471            -3.035572            -8.522973
| 47> *
| 48>
| 49> #Run DFT-D3 single point of the particle with dimer basis set
| 50> $new_job
| 51> %base "14-148_DFT_B"
| 52> ! wB97X-D3 def2-TZVP TIGHTSCF CHELPG PMODEL
| 53>
| 54> %scf
| 55> MaxIter 1000
| 56> end
| 57>
| 58> * xyz 0 1
| 59>   C                    : 5.639889             -2.002316            -10.846133
| 60>   O                    : 6.433753             -3.143011            -10.785352
| 61>   H                    : 7.334829             -3.003655            -11.137374
| 62>   H                    : 5.024231             -1.919732            -11.762310
| 63>   H                    : 4.985736             -1.933591            -9.979447
| 64>   H                    : 6.210420             -1.078636            -10.743734
| 65>   C                      9.460644             -3.791369            -8.790349
| 66>   O                      9.723722             -4.555290            -9.940950
| 67>   H                      10.000357            -3.939135            -10.597525
| 68>   H                      8.413790             -3.319582            -8.752754
| 69>   H                      9.487116             -4.471365            -7.986285
| 70>   H                      10.268471            -3.035572            -8.522973
| 71> *
| 72>
| 73>                          ****END OF INPUT****
 Total Charge           Charge          ....    0
 Multiplicity           Mult            ....    1
 Number of Electrons    NEL             ....   36
Dispersion correction           -0.001613459
FINAL SINGLE POINT ENERGY      -231.466422333731
Dispersion correction           -0.000258657
FINAL SINGLE POINT ENERGY      -115.734481185636

CARTESIAN COORDINATES (ANGSTROEM)
---------------------------------
  C      5.639889   -2.002316  -10.846133
  O      6.433753   -3.143011  -10.785352
  H      7.334829   -3.003655  -11.137374
  H      5.024231   -1.919732  -11.762310
  H      4.985736   -1.933591   -9.979447
  H      6.210420   -1.078636  -10.743734
  C      9.460644   -3.791369   -8.790349
  O      9.723722   -4.555290   -9.940950
  H     10.000357   -3.939135  -10.597525
  H      8.413790   -3.319582   -8.752754
  H      9.487116   -4.471365   -7.986285
  H     10.268471   -3.035572   -8.522973

 Multiplicity           Mult            ....    1
 Number of Electrons    NEL             ....   18
 Basis Dimension        Dim             ....  172

ORBITAL ENERGIES
----------------

  NO   OCC          E(Eh)            E(eV)
   0   2.0000     -19.234039      -523.3848
   1   2.0000     -10.318100      -280.7698
   2   2.0000      -1.146586       -31.2002
   3   2.0000      -0.794775       -21.6269
   4   2.0000      -0.611982       -16.6529
   5   2.0000      -0.538685       -14.6584
   6   2.0000      -0.528637       -14.3850
   7   2.0000      -0.435796       -11.8586
   8   2.0000      -0.377376       -10.2689
   9   0.0000       0.082172         2.2360
  10   0.0000       0.121154         3.2968
  11   0.0000       0.149235         4.0609
  12   0.0000       0.176317         4.7978
  13   0.0000       0.192936         5.2500

MULLIKEN ATOMIC CHARGES
-----------------------
   0 C :   -0.000081
   1 O :    0.000827
   2 H :   -0.003297
   3 H :   -0.000009
   4 H :   -0.000154
   5 H :   -0.000016
   6 C :   -0.172394
   7 O :   -0.458196
   8 H :    0.312310
   9 H :    0.095781
  10 H :    0.121731
  11 H :    0.103500
Sum of atomic charges:   -0.0000000

LOEWDIN ATOMIC CHARGES
----------------------
   0 C :   -0.000876
   1 O :   -0.001769
   2 H :   -0.003577
   3 H :   -0.000013
   4 H :   -0.000062
   5 H :   -0.000082
   6 C :   -0.402601
   7 O :   -0.054504
   8 H :    0.158977
   9 H :    0.103821
  10 H :    0.097555
  11 H :    0.103131

  Mayer bond orders larger than 0.1
B(  6-C ,  7-O ) :   1.0101 B(  6-C ,  9-H ) :   0.9666 B(  6-C , 10-H ) :   0.9791
B(  6-C , 11-H ) :   0.9749 B(  7-O ,  8-H ) :   0.9057

Dispersion correction           -0.000259986
FINAL SINGLE POINT ENERGY      -115.731822628411

DIPOLE MOMENT
-------------
                                X             Y             Z
Electronic contribution:      0.32803      -1.11655      -1.53643
Nuclear contribution   :     -0.22284       1.75348       1.57521
                        -----------------------------------------
Total Dipole Moment    :      0.10518       0.63692       0.03878
                        -----------------------------------------
Magnitude (a.u.)       :      0.64671
Magnitude (Debye)      :      1.64382

Rotational constants in cm-1:     4.241851     0.827601     0.809458
Rotational constants in MHz : 127167.497520 24810.855610 24266.940699

                             ****ORCA TERMINATED NORMALLY****
TOTAL RUN TIME: 0 days 0 hours 1 minutes 5 seconds 651 msec
