                         Program Version 4.1.2  - RELEASE  -
|  1> #Run DFT-D3 single point of the dimer
|  2> ! wB97X-D3 def2-TZVP TIGHTSCF CHELPG PMODEL PAL8
|  3>
|  4> %base "21-191_DFT_AB"
|  5>
|  6> %scf
|  7> MaxIter 1000
|  8> end
|  9>
| 10> * xyz 0 1
| 11>   C                      -11.262083           11.074119            4.038459
| 12>   O                      -9.968970            11.648095            3.905167
| 13>   H                      -9.591448            11.441682            4.805141
| 14>   H                      -11.862128           11.204521            3.120330
| 15>   H                      -11.301786           10.035677            4.291289
| 16>   H                      -11.924284           11.719045            4.586401
| 17>   C                      -10.253338           8.347335             6.942022
| 18>   O                      -9.418071            9.346424             6.297491
| 19>   H                      -9.437973            10.137026            6.848998
| 20>   H                      -9.919983            8.134863             7.985485
| 21>   H                      -11.314948           8.724835             6.982618
| 22>   H                      -10.287424           7.362823             6.514941
| 23> *
| 24>
| 25> #Run DFT-D3 single point of the molecule with dimer basis set
| 26> $new_job
| 27> %base "21-191_DFT_A"
| 28> ! wB97X-D3 def2-TZVP TIGHTSCF CHELPG PMODEL
| 29>
| 30> %scf
| 31> MaxIter 1000
| 32> end
| 33>
| 34> * xyz 0 1
| 35>   C                      -11.262083           11.074119            4.038459
| 36>   O                      -9.968970            11.648095            3.905167
| 37>   H                      -9.591448            11.441682            4.805141
| 38>   H                      -11.862128           11.204521            3.120330
| 39>   H                      -11.301786           10.035677            4.291289
| 40>   H                      -11.924284           11.719045            4.586401
| 41>   C                    : -10.253338           8.347335             6.942022
| 42>   O                    : -9.418071            9.346424             6.297491
| 43>   H                    : -9.437973            10.137026            6.848998
| 44>   H                    : -9.919983            8.134863             7.985485
| 45>   H                    : -11.314948           8.724835             6.982618
| 46>   H                    : -10.287424           7.362823             6.514941
| 47> *
| 48>
| 49> #Run DFT-D3 single point of the particle with dimer basis set
| 50> $new_job
| 51> %base "21-191_DFT_B"
| 52> ! wB97X-D3 def2-TZVP TIGHTSCF CHELPG PMODEL
| 53>
| 54> %scf
| 55> MaxIter 1000
| 56> end
| 57>
| 58> * xyz 0 1
| 59>   C                    : -11.262083           11.074119            4.038459
| 60>   O                    : -9.968970            11.648095            3.905167
| 61>   H                    : -9.591448            11.441682            4.805141
| 62>   H                    : -11.862128           11.204521            3.120330
| 63>   H                    : -11.301786           10.035677            4.291289
| 64>   H                    : -11.924284           11.719045            4.586401
| 65>   C                      -10.253338           8.347335             6.942022
| 66>   O                      -9.418071            9.346424             6.297491
| 67>   H                      -9.437973            10.137026            6.848998
| 68>   H                      -9.919983            8.134863             7.985485
| 69>   H                      -11.314948           8.724835             6.982618
| 70>   H                      -10.287424           7.362823             6.514941
| 71> *
| 72>
| 73>                          ****END OF INPUT****
 Total Charge           Charge          ....    0
 Multiplicity           Mult            ....    1
 Number of Electrons    NEL             ....   36
Dispersion correction           -0.001968849
FINAL SINGLE POINT ENERGY      -231.458471700415
Dispersion correction           -0.000241157
FINAL SINGLE POINT ENERGY      -115.725062942139

CARTESIAN COORDINATES (ANGSTROEM)
---------------------------------
  C    -11.262083   11.074119    4.038459
  O     -9.968970   11.648095    3.905167
  H     -9.591448   11.441682    4.805141
  H    -11.862128   11.204521    3.120330
  H    -11.301786   10.035677    4.291289
  H    -11.924284   11.719045    4.586401
  C    -10.253338    8.347335    6.942022
  O     -9.418071    9.346424    6.297491
  H     -9.437973   10.137026    6.848998
  H     -9.919983    8.134863    7.985485
  H    -11.314948    8.724835    6.982618
  H    -10.287424    7.362823    6.514941

 Multiplicity           Mult            ....    1
 Number of Electrons    NEL             ....   18
 Basis Dimension        Dim             ....  172

ORBITAL ENERGIES
----------------

  NO   OCC          E(Eh)            E(eV)
   0   2.0000     -19.234083      -523.3860
   1   2.0000     -10.321752      -280.8691
   2   2.0000      -1.125928       -30.6381
   3   2.0000      -0.796830       -21.6828
   4   2.0000      -0.601849       -16.3771
   5   2.0000      -0.537371       -14.6226
   6   2.0000      -0.527732       -14.3603
   7   2.0000      -0.432898       -11.7798
   8   2.0000      -0.375520       -10.2184
   9   0.0000       0.090977         2.4756
  10   0.0000       0.130619         3.5543
  11   0.0000       0.141569         3.8523
  12   0.0000       0.186563         5.0766
  13   0.0000       0.192367         5.2346

MULLIKEN ATOMIC CHARGES
-----------------------
   0 C :   -0.005040
   1 O :    0.002189
   2 H :   -0.006952
   3 H :   -0.000352
   4 H :    0.000073
   5 H :    0.000255
   6 C :   -0.192383
   7 O :   -0.470169
   8 H :    0.320421
   9 H :    0.108826
  10 H :    0.110452
  11 H :    0.132682
Sum of atomic charges:   -0.0000000

LOEWDIN ATOMIC CHARGES
----------------------
   0 C :   -0.009075
   1 O :   -0.001081
   2 H :   -0.008996
   3 H :   -0.000122
   4 H :   -0.004327
   5 H :   -0.000160
   6 C :   -0.366410
   7 O :   -0.089210
   8 H :    0.172609
   9 H :    0.100007
  10 H :    0.102902
  11 H :    0.103865

  Mayer bond orders larger than 0.1
B(  6-C ,  7-O ) :   0.9900 B(  6-C ,  9-H ) :   0.9734 B(  6-C , 10-H ) :   0.9787
B(  6-C , 11-H ) :   0.9703 B(  7-O ,  8-H ) :   0.8945

Dispersion correction           -0.000267575
FINAL SINGLE POINT ENERGY      -115.731316449536

DIPOLE MOMENT
-------------
                                X             Y             Z
Electronic contribution:      1.17010       1.11627      -1.04102
Nuclear contribution   :     -1.51546      -1.06944       1.66518
                        -----------------------------------------
Total Dipole Moment    :     -0.34536       0.04684       0.62417
                        -----------------------------------------
Magnitude (a.u.)       :      0.71488
Magnitude (Debye)      :      1.81707

Rotational constants in cm-1:     4.322885     0.780841     0.760765
Rotational constants in MHz : 129596.823175 23409.024390 22807.172502

                             ****ORCA TERMINATED NORMALLY****
TOTAL RUN TIME: 0 days 0 hours 1 minutes 5 seconds 810 msec
