                         Program Version 4.1.2  - RELEASE  -
|  1> #Run DFT-D3 single point of the dimer
|  2> ! wB97X-D3 def2-TZVP TIGHTSCF CHELPG PMODEL PAL8
|  3>
|  4> %base "2-81_DFT_AB"
|  5>
|  6> %scf
|  7> MaxIter 1000
|  8> end
|  9>
| 10> * xyz 0 1
| 11>   C                      -6.296488            0.198913             2.792889
| 12>   O                      -6.461516            -0.521665            1.555688
| 13>   H                      -5.961074            -1.353102            1.626890
| 14>   H                      -6.761771            -0.381322            3.663012
| 15>   H                      -5.261582            0.262228             3.149411
| 16>   H                      -6.779186            1.233509             2.736756
| 17>   C                      -9.736539            1.129088             0.257299
| 18>   O                      -8.509907            1.797312             -0.135956
| 19>   H                      -8.614077            1.964775             -1.078452
| 20>   H                      -10.621891           1.588067             -0.196775
| 21>   H                      -9.760546            0.061798             -0.081476
| 22>   H                      -9.875765            1.162999             1.386981
| 23> *
| 24>
| 25> #Run DFT-D3 single point of the molecule with dimer basis set
| 26> $new_job
| 27> %base "2-81_DFT_A"
| 28> ! wB97X-D3 def2-TZVP TIGHTSCF CHELPG PMODEL
| 29>
| 30> %scf
| 31> MaxIter 1000
| 32> end
| 33>
| 34> * xyz 0 1
| 35>   C                      -6.296488            0.198913             2.792889
| 36>   O                      -6.461516            -0.521665            1.555688
| 37>   H                      -5.961074            -1.353102            1.626890
| 38>   H                      -6.761771            -0.381322            3.663012
| 39>   H                      -5.261582            0.262228             3.149411
| 40>   H                      -6.779186            1.233509             2.736756
| 41>   C                    : -9.736539            1.129088             0.257299
| 42>   O                    : -8.509907            1.797312             -0.135956
| 43>   H                    : -8.614077            1.964775             -1.078452
| 44>   H                    : -10.621891           1.588067             -0.196775
| 45>   H                    : -9.760546            0.061798             -0.081476
| 46>   H                    : -9.875765            1.162999             1.386981
| 47> *
| 48>
| 49> #Run DFT-D3 single point of the particle with dimer basis set
| 50> $new_job
| 51> %base "2-81_DFT_B"
| 52> ! wB97X-D3 def2-TZVP TIGHTSCF CHELPG PMODEL
| 53>
| 54> %scf
| 55> MaxIter 1000
| 56> end
| 57>
| 58> * xyz 0 1
| 59>   C                    : -6.296488            0.198913             2.792889
| 60>   O                    : -6.461516            -0.521665            1.555688
| 61>   H                    : -5.961074            -1.353102            1.626890
| 62>   H                    : -6.761771            -0.381322            3.663012
| 63>   H                    : -5.261582            0.262228             3.149411
| 64>   H                    : -6.779186            1.233509             2.736756
| 65>   C                      -9.736539            1.129088             0.257299
| 66>   O                      -8.509907            1.797312             -0.135956
| 67>   H                      -8.614077            1.964775             -1.078452
| 68>   H                      -10.621891           1.588067             -0.196775
| 69>   H                      -9.760546            0.061798             -0.081476
| 70>   H                      -9.875765            1.162999             1.386981
| 71> *
| 72>
| 73>                          ****END OF INPUT****
 Total Charge           Charge          ....    0
 Multiplicity           Mult            ....    1
 Number of Electrons    NEL             ....   36
Dispersion correction           -0.001462937
FINAL SINGLE POINT ENERGY      -231.464027638283
Dispersion correction           -0.000270371
FINAL SINGLE POINT ENERGY      -115.730953935924

CARTESIAN COORDINATES (ANGSTROEM)
---------------------------------
  C     -6.296488    0.198913    2.792889
  O     -6.461516   -0.521665    1.555688
  H     -5.961074   -1.353102    1.626890
  H     -6.761771   -0.381322    3.663012
  H     -5.261582    0.262228    3.149411
  H     -6.779186    1.233509    2.736756
  C     -9.736539    1.129088    0.257299
  O     -8.509907    1.797312   -0.135956
  H     -8.614077    1.964775   -1.078452
  H    -10.621891    1.588067   -0.196775
  H     -9.760546    0.061798   -0.081476
  H     -9.875765    1.162999    1.386981

 Multiplicity           Mult            ....    1
 Number of Electrons    NEL             ....   18
 Basis Dimension        Dim             ....  172

ORBITAL ENERGIES
----------------

  NO   OCC          E(Eh)            E(eV)
   0   2.0000     -19.233919      -523.3815
   1   2.0000     -10.324281      -280.9380
   2   2.0000      -1.128090       -30.6969
   3   2.0000      -0.790344       -21.5063
   4   2.0000      -0.605474       -16.4758
   5   2.0000      -0.532004       -14.4766
   6   2.0000      -0.519268       -14.1300
   7   2.0000      -0.440717       -11.9925
   8   2.0000      -0.375397       -10.2151
   9   0.0000       0.091628         2.4933
  10   0.0000       0.117961         3.2099
  11   0.0000       0.147966         4.0264
  12   0.0000       0.167436         4.5562
  13   0.0000       0.189777         5.1641

MULLIKEN ATOMIC CHARGES
-----------------------
   0 C :    0.000043
   1 O :   -0.000468
   2 H :    0.000008
   3 H :   -0.000068
   4 H :    0.000033
   5 H :   -0.001493
   6 C :   -0.182925
   7 O :   -0.469133
   8 H :    0.311979
   9 H :    0.110164
  10 H :    0.107008
  11 H :    0.124852
Sum of atomic charges:    0.0000000

LOEWDIN ATOMIC CHARGES
----------------------
   0 C :   -0.001321
   1 O :   -0.001226
   2 H :   -0.000054
   3 H :   -0.000023
   4 H :   -0.000007
   5 H :   -0.000820
   6 C :   -0.374116
   7 O :   -0.101751
   8 H :    0.168784
   9 H :    0.094711
  10 H :    0.099015
  11 H :    0.116807

  Mayer bond orders larger than 0.1
B(  6-C ,  7-O ) :   0.9923 B(  6-C ,  9-H ) :   0.9739 B(  6-C , 10-H ) :   0.9709
B(  6-C , 11-H ) :   0.9720 B(  7-O ,  8-H ) :   0.9016

Dispersion correction           -0.000263228
FINAL SINGLE POINT ENERGY      -115.733728879940

DIPOLE MOMENT
-------------
                                X             Y             Z
Electronic contribution:      1.64646       0.88505      -0.35554
Nuclear contribution   :     -2.22880      -1.03299      -0.08481
                        -----------------------------------------
Total Dipole Moment    :     -0.58234      -0.14793      -0.44035
                        -----------------------------------------
Magnitude (a.u.)       :      0.74492
Magnitude (Debye)      :      1.89345

Rotational constants in cm-1:     4.148137     0.793469     0.761292
Rotational constants in MHz : 124358.025463 23787.612058 22822.965870

                             ****ORCA TERMINATED NORMALLY****
TOTAL RUN TIME: 0 days 0 hours 6 minutes 0 seconds 113 msec
