                         Program Version 4.1.2  - RELEASE  -
|  1> #Run DFT-D3 single point of the dimer
|  2> ! wB97X-D3 def2-TZVP TIGHTSCF CHELPG PMODEL PAL8
|  3>
|  4> %base "13-180_DFT_AB"
|  5>
|  6> %scf
|  7> MaxIter 1000
|  8> end
|  9>
| 10> * xyz 0 1
| 11>   C                      9.438769             1.972816             6.617335
| 12>   O                      8.623969             3.030773             6.251968
| 13>   H                      8.260408             3.600270             7.019287
| 14>   H                      9.315507             1.715100             7.682329
| 15>   H                      9.288691             1.007495             6.008580
| 16>   H                      10.478213            2.223850             6.555681
| 17>   C                      8.568542             5.105648             11.213293
| 18>   O                      9.070401             4.525585             10.003574
| 19>   H                      8.276425             4.287142             9.539035
| 20>   H                      7.610956             4.576014             11.502480
| 21>   H                      9.276886             5.033825             12.092426
| 22>   H                      8.354676             6.129793             11.032811
| 23> *
| 24>
| 25> #Run DFT-D3 single point of the molecule with dimer basis set
| 26> $new_job
| 27> %base "13-180_DFT_A"
| 28> ! wB97X-D3 def2-TZVP TIGHTSCF CHELPG PMODEL
| 29>
| 30> %scf
| 31> MaxIter 1000
| 32> end
| 33>
| 34> * xyz 0 1
| 35>   C                      9.438769             1.972816             6.617335
| 36>   O                      8.623969             3.030773             6.251968
| 37>   H                      8.260408             3.600270             7.019287
| 38>   H                      9.315507             1.715100             7.682329
| 39>   H                      9.288691             1.007495             6.008580
| 40>   H                      10.478213            2.223850             6.555681
| 41>   C                    : 8.568542             5.105648             11.213293
| 42>   O                    : 9.070401             4.525585             10.003574
| 43>   H                    : 8.276425             4.287142             9.539035
| 44>   H                    : 7.610956             4.576014             11.502480
| 45>   H                    : 9.276886             5.033825             12.092426
| 46>   H                    : 8.354676             6.129793             11.032811
| 47> *
| 48>
| 49> #Run DFT-D3 single point of the particle with dimer basis set
| 50> $new_job
| 51> %base "13-180_DFT_B"
| 52> ! wB97X-D3 def2-TZVP TIGHTSCF CHELPG PMODEL
| 53>
| 54> %scf
| 55> MaxIter 1000
| 56> end
| 57>
| 58> * xyz 0 1
| 59>   C                    : 9.438769             1.972816             6.617335
| 60>   O                    : 8.623969             3.030773             6.251968
| 61>   H                    : 8.260408             3.600270             7.019287
| 62>   H                    : 9.315507             1.715100             7.682329
| 63>   H                    : 9.288691             1.007495             6.008580
| 64>   H                    : 10.478213            2.223850             6.555681
| 65>   C                      8.568542             5.105648             11.213293
| 66>   O                      9.070401             4.525585             10.003574
| 67>   H                      8.276425             4.287142             9.539035
| 68>   H                      7.610956             4.576014             11.502480
| 69>   H                      9.276886             5.033825             12.092426
| 70>   H                      8.354676             6.129793             11.032811
| 71> *
| 72>
| 73>                          ****END OF INPUT****
 Total Charge           Charge          ....    0
 Multiplicity           Mult            ....    1
 Number of Electrons    NEL             ....   36
Dispersion correction           -0.001185371
FINAL SINGLE POINT ENERGY      -231.457857182920
Dispersion correction           -0.000263145
FINAL SINGLE POINT ENERGY      -115.726455008573

CARTESIAN COORDINATES (ANGSTROEM)
---------------------------------
  C      9.438769    1.972816    6.617335
  O      8.623969    3.030773    6.251968
  H      8.260408    3.600270    7.019287
  H      9.315507    1.715100    7.682329
  H      9.288691    1.007495    6.008580
  H     10.478213    2.223850    6.555681
  C      8.568542    5.105648   11.213293
  O      9.070401    4.525585   10.003574
  H      8.276425    4.287142    9.539035
  H      7.610956    4.576014   11.502480
  H      9.276886    5.033825   12.092426
  H      8.354676    6.129793   11.032811

 Multiplicity           Mult            ....    1
 Number of Electrons    NEL             ....   18
 Basis Dimension        Dim             ....  172

ORBITAL ENERGIES
----------------

  NO   OCC          E(Eh)            E(eV)
   0   2.0000     -19.230209      -523.2806
   1   2.0000     -10.319830      -280.8168
   2   2.0000      -1.136531       -30.9266
   3   2.0000      -0.791431       -21.5359
   4   2.0000      -0.605599       -16.4792
   5   2.0000      -0.544452       -14.8153
   6   2.0000      -0.525159       -14.2903
   7   2.0000      -0.435662       -11.8550
   8   2.0000      -0.375106       -10.2072
   9   0.0000       0.085253         2.3199
  10   0.0000       0.119914         3.2630
  11   0.0000       0.149065         4.0563
  12   0.0000       0.179632         4.8880
  13   0.0000       0.193565         5.2672

MULLIKEN ATOMIC CHARGES
-----------------------
   0 C :    0.000496
   1 O :    0.000123
   2 H :   -0.000967
   3 H :   -0.001999
   4 H :   -0.000056
   5 H :   -0.000032
   6 C :   -0.177292
   7 O :   -0.465739
   8 H :    0.316947
   9 H :    0.098418
  10 H :    0.118427
  11 H :    0.111674
Sum of atomic charges:   -0.0000000

LOEWDIN ATOMIC CHARGES
----------------------
   0 C :   -0.000582
   1 O :   -0.000053
   2 H :   -0.001754
   3 H :   -0.000829
   4 H :   -0.000012
   5 H :   -0.000028
   6 C :   -0.376484
   7 O :   -0.087417
   8 H :    0.164555
   9 H :    0.102042
  10 H :    0.112715
  11 H :    0.087848

  Mayer bond orders larger than 0.1
B(  6-C ,  7-O ) :   1.0005 B(  6-C ,  9-H ) :   0.9876 B(  6-C , 10-H ) :   0.9701
B(  6-C , 11-H ) :   0.9742 B(  7-O ,  8-H ) :   0.9001

Dispersion correction           -0.000233912
FINAL SINGLE POINT ENERGY      -115.731909271971

DIPOLE MOMENT
-------------
                                X             Y             Z
Electronic contribution:      0.85285      -0.66526      -1.49967
Nuclear contribution   :     -1.55568       0.75818       1.69516
                        -----------------------------------------
Total Dipole Moment    :     -0.70283       0.09292       0.19549
                        -----------------------------------------
Magnitude (a.u.)       :      0.73540
Magnitude (Debye)      :      1.86924

Rotational constants in cm-1:     4.176078     0.820146     0.786198
Rotational constants in MHz : 125195.676099 24587.352255 23569.618845

                             ****ORCA TERMINATED NORMALLY****
TOTAL RUN TIME: 0 days 0 hours 1 minutes 11 seconds 475 msec
