                         Program Version 4.1.2  - RELEASE  -
|  1> #Run DFT-D3 single point of the dimer
|  2> ! wB97X-D3 def2-TZVP TIGHTSCF CHELPG PMODEL PAL8
|  3>
|  4> %base "2-50_DFT_AB"
|  5>
|  6> %scf
|  7> MaxIter 1000
|  8> end
|  9>
| 10> * xyz 0 1
| 11>   C                      -8.188592            6.299989             8.631116
| 12>   O                      -7.155412            5.502019             8.031139
| 13>   H                      -6.397915            6.059291             7.795830
| 14>   H                      -7.792349            7.169263             9.225792
| 15>   H                      -9.011123            6.514553             7.862433
| 16>   H                      -8.740029            5.735765             9.411922
| 17>   C                      -4.602138            1.634884             6.062380
| 18>   O                      -5.510830            2.685958             5.751689
| 19>   H                      -5.954040            2.791662             6.614522
| 20>   H                      -5.100692            0.938811             6.756365
| 21>   H                      -4.443054            0.931583             5.176692
| 22>   H                      -3.641260            1.881957             6.524378
| 23> *
| 24>
| 25> #Run DFT-D3 single point of the molecule with dimer basis set
| 26> $new_job
| 27> %base "2-50_DFT_A"
| 28> ! wB97X-D3 def2-TZVP TIGHTSCF CHELPG PMODEL
| 29>
| 30> %scf
| 31> MaxIter 1000
| 32> end
| 33>
| 34> * xyz 0 1
| 35>   C                      -8.188592            6.299989             8.631116
| 36>   O                      -7.155412            5.502019             8.031139
| 37>   H                      -6.397915            6.059291             7.795830
| 38>   H                      -7.792349            7.169263             9.225792
| 39>   H                      -9.011123            6.514553             7.862433
| 40>   H                      -8.740029            5.735765             9.411922
| 41>   C                    : -4.602138            1.634884             6.062380
| 42>   O                    : -5.510830            2.685958             5.751689
| 43>   H                    : -5.954040            2.791662             6.614522
| 44>   H                    : -5.100692            0.938811             6.756365
| 45>   H                    : -4.443054            0.931583             5.176692
| 46>   H                    : -3.641260            1.881957             6.524378
| 47> *
| 48>
| 49> #Run DFT-D3 single point of the particle with dimer basis set
| 50> $new_job
| 51> %base "2-50_DFT_B"
| 52> ! wB97X-D3 def2-TZVP TIGHTSCF CHELPG PMODEL
| 53>
| 54> %scf
| 55> MaxIter 1000
| 56> end
| 57>
| 58> * xyz 0 1
| 59>   C                    : -8.188592            6.299989             8.631116
| 60>   O                    : -7.155412            5.502019             8.031139
| 61>   H                    : -6.397915            6.059291             7.795830
| 62>   H                    : -7.792349            7.169263             9.225792
| 63>   H                    : -9.011123            6.514553             7.862433
| 64>   H                    : -8.740029            5.735765             9.411922
| 65>   C                      -4.602138            1.634884             6.062380
| 66>   O                      -5.510830            2.685958             5.751689
| 67>   H                      -5.954040            2.791662             6.614522
| 68>   H                      -5.100692            0.938811             6.756365
| 69>   H                      -4.443054            0.931583             5.176692
| 70>   H                      -3.641260            1.881957             6.524378
| 71> *
| 72>
| 73>                          ****END OF INPUT****
 Total Charge           Charge          ....    0
 Multiplicity           Mult            ....    1
 Number of Electrons    NEL             ....   36
Dispersion correction           -0.000913175
FINAL SINGLE POINT ENERGY      -231.461087485953
Dispersion correction           -0.000284847
FINAL SINGLE POINT ENERGY      -115.729913091417

CARTESIAN COORDINATES (ANGSTROEM)
---------------------------------
  C     -8.188592    6.299989    8.631116
  O     -7.155412    5.502019    8.031139
  H     -6.397915    6.059291    7.795830
  H     -7.792349    7.169263    9.225792
  H     -9.011123    6.514553    7.862433
  H     -8.740029    5.735765    9.411922
  C     -4.602138    1.634884    6.062380
  O     -5.510830    2.685958    5.751689
  H     -5.954040    2.791662    6.614522
  H     -5.100692    0.938811    6.756365
  H     -4.443054    0.931583    5.176692
  H     -3.641260    1.881957    6.524378

 Multiplicity           Mult            ....    1
 Number of Electrons    NEL             ....   18
 Basis Dimension        Dim             ....  172

ORBITAL ENERGIES
----------------

  NO   OCC          E(Eh)            E(eV)
   0   2.0000     -19.238191      -523.4978
   1   2.0000     -10.320636      -280.8388
   2   2.0000      -1.138112       -30.9696
   3   2.0000      -0.789138       -21.4735
   4   2.0000      -0.608701       -16.5636
   5   2.0000      -0.543386       -14.7863
   6   2.0000      -0.521670       -14.1954
   7   2.0000      -0.432378       -11.7656
   8   2.0000      -0.379473       -10.3260
   9   0.0000       0.081434         2.2159
  10   0.0000       0.111353         3.0301
  11   0.0000       0.144669         3.9367
  12   0.0000       0.172949         4.7062
  13   0.0000       0.193085         5.2541

MULLIKEN ATOMIC CHARGES
-----------------------
   0 C :   -0.000024
   1 O :   -0.000221
   2 H :   -0.000406
   3 H :    0.000001
   4 H :   -0.000000
   5 H :    0.000001
   6 C :   -0.192385
   7 O :   -0.455458
   8 H :    0.320446
   9 H :    0.104163
  10 H :    0.116003
  11 H :    0.107880
Sum of atomic charges:   -0.0000000

LOEWDIN ATOMIC CHARGES
----------------------
   0 C :   -0.000029
   1 O :   -0.000498
   2 H :   -0.000355
   3 H :   -0.000001
   4 H :   -0.000001
   5 H :   -0.000001
   6 C :   -0.400898
   7 O :   -0.086866
   8 H :    0.183704
   9 H :    0.096524
  10 H :    0.114890
  11 H :    0.093531

  Mayer bond orders larger than 0.1
B(  6-C ,  7-O ) :   1.0124 B(  6-C ,  9-H ) :   0.9907 B(  6-C , 10-H ) :   0.9731
B(  6-C , 11-H ) :   0.9604 B(  7-O ,  8-H ) :   0.8983

Dispersion correction           -0.000250574
FINAL SINGLE POINT ENERGY      -115.728887032853

DIPOLE MOMENT
-------------
                                X             Y             Z
Electronic contribution:     -1.05024       1.59868      -0.59158
Nuclear contribution   :      1.09720      -1.95802       1.25398
                        -----------------------------------------
Total Dipole Moment    :      0.04696      -0.35934       0.66240
                        -----------------------------------------
Magnitude (a.u.)       :      0.75506
Magnitude (Debye)      :      1.91920

Rotational constants in cm-1:     4.207515     0.815200     0.788820
Rotational constants in MHz : 126138.117507 24439.089503 23648.226677

                             ****ORCA TERMINATED NORMALLY****
TOTAL RUN TIME: 0 days 0 hours 5 minutes 47 seconds 928 msec
