                         Program Version 4.1.2  - RELEASE  -
|  1> #Run DFT-D3 single point of the dimer
|  2> ! wB97X-D3 def2-TZVP TIGHTSCF CHELPG PMODEL PAL8
|  3>
|  4> %base "17-124_DFT_AB"
|  5>
|  6> %scf
|  7> MaxIter 1000
|  8> end
|  9>
| 10> * xyz 0 1
| 11>   C                      -4.988998            9.601026             -3.583272
| 12>   O                      -3.625614            9.389035             -3.176934
| 13>   H                      -3.637029            9.435312             -2.249069
| 14>   H                      -5.701993            9.682365             -2.747060
| 15>   H                      -5.095622            10.449238            -4.301233
| 16>   H                      -5.365626            8.684799             -4.130717
| 17>   C                      -5.029409            7.140307             0.230645
| 18>   O                      -4.528668            6.399500             -0.843343
| 19>   H                      -5.133241            6.355944             -1.571770
| 20>   H                      -4.607579            8.125163             0.355896
| 21>   H                      -6.080625            7.279738             -0.019512
| 22>   H                      -5.097532            6.494888             1.135845
| 23> *
| 24>
| 25> #Run DFT-D3 single point of the molecule with dimer basis set
| 26> $new_job
| 27> %base "17-124_DFT_A"
| 28> ! wB97X-D3 def2-TZVP TIGHTSCF CHELPG PMODEL
| 29>
| 30> %scf
| 31> MaxIter 1000
| 32> end
| 33>
| 34> * xyz 0 1
| 35>   C                      -4.988998            9.601026             -3.583272
| 36>   O                      -3.625614            9.389035             -3.176934
| 37>   H                      -3.637029            9.435312             -2.249069
| 38>   H                      -5.701993            9.682365             -2.747060
| 39>   H                      -5.095622            10.449238            -4.301233
| 40>   H                      -5.365626            8.684799             -4.130717
| 41>   C                    : -5.029409            7.140307             0.230645
| 42>   O                    : -4.528668            6.399500             -0.843343
| 43>   H                    : -5.133241            6.355944             -1.571770
| 44>   H                    : -4.607579            8.125163             0.355896
| 45>   H                    : -6.080625            7.279738             -0.019512
| 46>   H                    : -5.097532            6.494888             1.135845
| 47> *
| 48>
| 49> #Run DFT-D3 single point of the particle with dimer basis set
| 50> $new_job
| 51> %base "17-124_DFT_B"
| 52> ! wB97X-D3 def2-TZVP TIGHTSCF CHELPG PMODEL
| 53>
| 54> %scf
| 55> MaxIter 1000
| 56> end
| 57>
| 58> * xyz 0 1
| 59>   C                    : -4.988998            9.601026             -3.583272
| 60>   O                    : -3.625614            9.389035             -3.176934
| 61>   H                    : -3.637029            9.435312             -2.249069
| 62>   H                    : -5.701993            9.682365             -2.747060
| 63>   H                    : -5.095622            10.449238            -4.301233
| 64>   H                    : -5.365626            8.684799             -4.130717
| 65>   C                      -5.029409            7.140307             0.230645
| 66>   O                      -4.528668            6.399500             -0.843343
| 67>   H                      -5.133241            6.355944             -1.571770
| 68>   H                      -4.607579            8.125163             0.355896
| 69>   H                      -6.080625            7.279738             -0.019512
| 70>   H                      -5.097532            6.494888             1.135845
| 71> *
| 72>
| 73>                          ****END OF INPUT****
 Total Charge           Charge          ....    0
 Multiplicity           Mult            ....    1
 Number of Electrons    NEL             ....   36
Dispersion correction           -0.001592158
FINAL SINGLE POINT ENERGY      -231.461530338420
Dispersion correction           -0.000269140
FINAL SINGLE POINT ENERGY      -115.731967196800

CARTESIAN COORDINATES (ANGSTROEM)
---------------------------------
  C     -4.988998    9.601026   -3.583272
  O     -3.625614    9.389035   -3.176934
  H     -3.637029    9.435312   -2.249069
  H     -5.701993    9.682365   -2.747060
  H     -5.095622   10.449238   -4.301233
  H     -5.365626    8.684799   -4.130717
  C     -5.029409    7.140307    0.230645
  O     -4.528668    6.399500   -0.843343
  H     -5.133241    6.355944   -1.571770
  H     -4.607579    8.125163    0.355896
  H     -6.080625    7.279738   -0.019512
  H     -5.097532    6.494888    1.135845

 Multiplicity           Mult            ....    1
 Number of Electrons    NEL             ....   18
 Basis Dimension        Dim             ....  172

ORBITAL ENERGIES
----------------

  NO   OCC          E(Eh)            E(eV)
   0   2.0000     -19.224806      -523.1336
   1   2.0000     -10.312479      -280.6168
   2   2.0000      -1.140509       -31.0348
   3   2.0000      -0.797032       -21.6883
   4   2.0000      -0.617103       -16.7922
   5   2.0000      -0.553929       -15.0732
   6   2.0000      -0.526647       -14.3308
   7   2.0000      -0.414329       -11.2745
   8   2.0000      -0.376843       -10.2544
   9   0.0000       0.076759         2.0887
  10   0.0000       0.125294         3.4094
  11   0.0000       0.145742         3.9659
  12   0.0000       0.166718         4.5366
  13   0.0000       0.197971         5.3871

MULLIKEN ATOMIC CHARGES
-----------------------
   0 C :   -0.002923
   1 O :    0.000397
   2 H :   -0.000529
   3 H :    0.000264
   4 H :   -0.000125
   5 H :    0.000191
   6 C :   -0.157682
   7 O :   -0.485947
   8 H :    0.319896
   9 H :    0.113632
  10 H :    0.097712
  11 H :    0.115112
Sum of atomic charges:   -0.0000000

LOEWDIN ATOMIC CHARGES
----------------------
   0 C :   -0.001466
   1 O :   -0.000453
   2 H :   -0.000954
   3 H :   -0.000148
   4 H :   -0.000063
   5 H :   -0.000221
   6 C :   -0.394117
   7 O :   -0.064845
   8 H :    0.160805
   9 H :    0.095494
  10 H :    0.097496
  11 H :    0.108472

  Mayer bond orders larger than 0.1
B(  6-C ,  7-O ) :   1.0007 B(  6-C ,  9-H ) :   0.9661 B(  6-C , 10-H ) :   1.0001
B(  6-C , 11-H ) :   0.9728 B(  7-O ,  8-H ) :   0.8986

Dispersion correction           -0.000235888
FINAL SINGLE POINT ENERGY      -115.728990723254

DIPOLE MOMENT
-------------
                                X             Y             Z
Electronic contribution:      0.94416      -0.86786      -1.23327
Nuclear contribution   :     -1.59139       1.13222       1.16667
                        -----------------------------------------
Total Dipole Moment    :     -0.64723       0.26436      -0.06659
                        -----------------------------------------
Magnitude (a.u.)       :      0.70230
Magnitude (Debye)      :      1.78511

Rotational constants in cm-1:     4.345943     0.839692     0.825770
Rotational constants in MHz : 130288.098870 25173.338235 24755.950354

                             ****ORCA TERMINATED NORMALLY****
TOTAL RUN TIME: 0 days 0 hours 1 minutes 0 seconds 411 msec
