                         Program Version 4.1.2  - RELEASE  -
|  1> #Run DFT-D3 single point of the dimer
|  2> ! wB97X-D3 def2-TZVP TIGHTSCF CHELPG PMODEL PAL8
|  3>
|  4> %base "11-0_DFT_AB"
|  5>
|  6> %scf
|  7> MaxIter 1000
|  8> end
|  9>
| 10> * xyz 0 1
| 11>   C                      -2.148013            2.129847             1.911966
| 12>   O                      -0.703100            2.202816             2.039990
| 13>   H                      -0.327344            2.930984             1.522731
| 14>   H                      -2.414317            2.238284             0.914172
| 15>   H                      -2.582117            1.155431             2.198879
| 16>   H                      -2.594961            2.946416             2.554262
| 17>   C                      -4.783363            4.112619             -2.570429
| 18>   O                      -6.170966            4.051347             -2.271669
| 19>   H                      -6.396381            3.112215             -2.297182
| 20>   H                      -4.677063            4.150604             -3.633048
| 21>   H                      -4.392991            5.100541             -2.206898
| 22>   H                      -4.210136            3.298748             -2.150329
| 23> *
| 24>
| 25> #Run DFT-D3 single point of the molecule with dimer basis set
| 26> $new_job
| 27> %base "11-0_DFT_A"
| 28> ! wB97X-D3 def2-TZVP TIGHTSCF CHELPG PMODEL
| 29>
| 30> %scf
| 31> MaxIter 1000
| 32> end
| 33>
| 34> * xyz 0 1
| 35>   C                      -2.148013            2.129847             1.911966
| 36>   O                      -0.703100            2.202816             2.039990
| 37>   H                      -0.327344            2.930984             1.522731
| 38>   H                      -2.414317            2.238284             0.914172
| 39>   H                      -2.582117            1.155431             2.198879
| 40>   H                      -2.594961            2.946416             2.554262
| 41>   C                    : -4.783363            4.112619             -2.570429
| 42>   O                    : -6.170966            4.051347             -2.271669
| 43>   H                    : -6.396381            3.112215             -2.297182
| 44>   H                    : -4.677063            4.150604             -3.633048
| 45>   H                    : -4.392991            5.100541             -2.206898
| 46>   H                    : -4.210136            3.298748             -2.150329
| 47> *
| 48>
| 49> #Run DFT-D3 single point of the particle with dimer basis set
| 50> $new_job
| 51> %base "11-0_DFT_B"
| 52> ! wB97X-D3 def2-TZVP TIGHTSCF CHELPG PMODEL
| 53>
| 54> %scf
| 55> MaxIter 1000
| 56> end
| 57>
| 58> * xyz 0 1
| 59>   C                    : -2.148013            2.129847             1.911966
| 60>   O                    : -0.703100            2.202816             2.039990
| 61>   H                    : -0.327344            2.930984             1.522731
| 62>   H                    : -2.414317            2.238284             0.914172
| 63>   H                    : -2.582117            1.155431             2.198879
| 64>   H                    : -2.594961            2.946416             2.554262
| 65>   C                      -4.783363            4.112619             -2.570429
| 66>   O                      -6.170966            4.051347             -2.271669
| 67>   H                      -6.396381            3.112215             -2.297182
| 68>   H                      -4.677063            4.150604             -3.633048
| 69>   H                      -4.392991            5.100541             -2.206898
| 70>   H                      -4.210136            3.298748             -2.150329
| 71> *
| 72>
| 73>                          ****END OF INPUT****
 Total Charge           Charge          ....    0
 Multiplicity           Mult            ....    1
 Number of Electrons    NEL             ....   36
Dispersion correction           -0.000675152
FINAL SINGLE POINT ENERGY      -231.464531440317
Dispersion correction           -0.000260017
FINAL SINGLE POINT ENERGY      -115.729893385599

CARTESIAN COORDINATES (ANGSTROEM)
---------------------------------
  C     -2.148013    2.129847    1.911966
  O     -0.703100    2.202816    2.039990
  H     -0.327344    2.930984    1.522731
  H     -2.414317    2.238284    0.914172
  H     -2.582117    1.155431    2.198879
  H     -2.594961    2.946416    2.554262
  C     -4.783363    4.112619   -2.570429
  O     -6.170966    4.051347   -2.271669
  H     -6.396381    3.112215   -2.297182
  H     -4.677063    4.150604   -3.633048
  H     -4.392991    5.100541   -2.206898
  H     -4.210136    3.298748   -2.150329

 Multiplicity           Mult            ....    1
 Number of Electrons    NEL             ....   18
 Basis Dimension        Dim             ....  172

ORBITAL ENERGIES
----------------

  NO   OCC          E(Eh)            E(eV)
   0   2.0000     -19.229417      -523.2590
   1   2.0000     -10.311873      -280.6003
   2   2.0000      -1.133902       -30.8550
   3   2.0000      -0.793977       -21.6052
   4   2.0000      -0.609042       -16.5729
   5   2.0000      -0.545000       -14.8302
   6   2.0000      -0.521594       -14.1933
   7   2.0000      -0.438212       -11.9244
   8   2.0000      -0.372037       -10.1236
   9   0.0000       0.083535         2.2731
  10   0.0000       0.114207         3.1077
  11   0.0000       0.151529         4.1233
  12   0.0000       0.162112         4.4113
  13   0.0000       0.181765         4.9461

MULLIKEN ATOMIC CHARGES
-----------------------
   0 C :   -0.000003
   1 O :    0.000001
   2 H :   -0.000001
   3 H :   -0.000036
   4 H :   -0.000003
   5 H :   -0.000003
   6 C :   -0.166937
   7 O :   -0.473071
   8 H :    0.312296
   9 H :    0.107595
  10 H :    0.111125
  11 H :    0.109036
Sum of atomic charges:    0.0000000

LOEWDIN ATOMIC CHARGES
----------------------
   0 C :   -0.000033
   1 O :   -0.000001
   2 H :   -0.000000
   3 H :   -0.000141
   4 H :   -0.000000
   5 H :   -0.000001
   6 C :   -0.380714
   7 O :   -0.087241
   8 H :    0.171760
   9 H :    0.090399
  10 H :    0.113139
  11 H :    0.092834

  Mayer bond orders larger than 0.1
B(  6-C ,  7-O ) :   0.9999 B(  6-C ,  9-H ) :   0.9788 B(  6-C , 10-H ) :   0.9755
B(  6-C , 11-H ) :   0.9758 B(  7-O ,  8-H ) :   0.9017

Dispersion correction           -0.000231413
FINAL SINGLE POINT ENERGY      -115.734560990689

DIPOLE MOMENT
-------------
                                X             Y             Z
Electronic contribution:     -1.73072      -0.03812       0.42532
Nuclear contribution   :      2.14461      -0.53183      -0.56230
                        -----------------------------------------
Total Dipole Moment    :      0.41389      -0.56995      -0.13698
                        -----------------------------------------
Magnitude (a.u.)       :      0.71757
Magnitude (Debye)      :      1.82393

Rotational constants in cm-1:     4.245497     0.834880     0.798321
Rotational constants in MHz : 127276.790747 25029.083336 23933.065962

                             ****ORCA TERMINATED NORMALLY****
TOTAL RUN TIME: 0 days 0 hours 1 minutes 2 seconds 0 msec
