                         Program Version 4.1.2  - RELEASE  -
|  1> #Run DFT-D3 single point of the dimer
|  2> ! wB97X-D3 def2-TZVP TIGHTSCF CHELPG PMODEL PAL8
|  3>
|  4> %base "3-132_DFT_AB"
|  5>
|  6> %scf
|  7> MaxIter 1000
|  8> end
|  9>
| 10> * xyz 0 1
| 11>   C                      -5.125897            10.645962            -7.950531
| 12>   O                      -3.938590            11.012197            -8.624438
| 13>   H                      -4.199529            11.593696            -9.357696
| 14>   H                      -5.823865            11.454333            -7.798836
| 15>   H                      -5.709134            9.760700             -8.411397
| 16>   H                      -4.977675            10.337166            -6.942774
| 17>   C                      -4.874273            6.458068             -10.305243
| 18>   O                      -4.525635            7.530858             -9.486293
| 19>   H                      -4.296660            8.299056             -10.007908
| 20>   H                      -3.987465            5.818103             -10.577843
| 21>   H                      -5.660014            5.771274             -9.909763
| 22>   H                      -5.419816            6.812913             -11.199365
| 23> *
| 24>
| 25> #Run DFT-D3 single point of the molecule with dimer basis set
| 26> $new_job
| 27> %base "3-132_DFT_A"
| 28> ! wB97X-D3 def2-TZVP TIGHTSCF CHELPG PMODEL
| 29>
| 30> %scf
| 31> MaxIter 1000
| 32> end
| 33>
| 34> * xyz 0 1
| 35>   C                      -5.125897            10.645962            -7.950531
| 36>   O                      -3.938590            11.012197            -8.624438
| 37>   H                      -4.199529            11.593696            -9.357696
| 38>   H                      -5.823865            11.454333            -7.798836
| 39>   H                      -5.709134            9.760700             -8.411397
| 40>   H                      -4.977675            10.337166            -6.942774
| 41>   C                    : -4.874273            6.458068             -10.305243
| 42>   O                    : -4.525635            7.530858             -9.486293
| 43>   H                    : -4.296660            8.299056             -10.007908
| 44>   H                    : -3.987465            5.818103             -10.577843
| 45>   H                    : -5.660014            5.771274             -9.909763
| 46>   H                    : -5.419816            6.812913             -11.199365
| 47> *
| 48>
| 49> #Run DFT-D3 single point of the particle with dimer basis set
| 50> $new_job
| 51> %base "3-132_DFT_B"
| 52> ! wB97X-D3 def2-TZVP TIGHTSCF CHELPG PMODEL
| 53>
| 54> %scf
| 55> MaxIter 1000
| 56> end
| 57>
| 58> * xyz 0 1
| 59>   C                    : -5.125897            10.645962            -7.950531
| 60>   O                    : -3.938590            11.012197            -8.624438
| 61>   H                    : -4.199529            11.593696            -9.357696
| 62>   H                    : -5.823865            11.454333            -7.798836
| 63>   H                    : -5.709134            9.760700             -8.411397
| 64>   H                    : -4.977675            10.337166            -6.942774
| 65>   C                      -4.874273            6.458068             -10.305243
| 66>   O                      -4.525635            7.530858             -9.486293
| 67>   H                      -4.296660            8.299056             -10.007908
| 68>   H                      -3.987465            5.818103             -10.577843
| 69>   H                      -5.660014            5.771274             -9.909763
| 70>   H                      -5.419816            6.812913             -11.199365
| 71> *
| 72>
| 73>                          ****END OF INPUT****
 Total Charge           Charge          ....    0
 Multiplicity           Mult            ....    1
 Number of Electrons    NEL             ....   36
Dispersion correction           -0.001559722
FINAL SINGLE POINT ENERGY      -231.464771145418
Dispersion correction           -0.000269654
FINAL SINGLE POINT ENERGY      -115.731140562744

CARTESIAN COORDINATES (ANGSTROEM)
---------------------------------
  C     -5.125897   10.645962   -7.950531
  O     -3.938590   11.012197   -8.624438
  H     -4.199529   11.593696   -9.357696
  H     -5.823865   11.454333   -7.798836
  H     -5.709134    9.760700   -8.411397
  H     -4.977675   10.337166   -6.942774
  C     -4.874273    6.458068  -10.305243
  O     -4.525635    7.530858   -9.486293
  H     -4.296660    8.299056  -10.007908
  H     -3.987465    5.818103  -10.577843
  H     -5.660014    5.771274   -9.909763
  H     -5.419816    6.812913  -11.199365

 Multiplicity           Mult            ....    1
 Number of Electrons    NEL             ....   18
 Basis Dimension        Dim             ....  172

ORBITAL ENERGIES
----------------

  NO   OCC          E(Eh)            E(eV)
   0   2.0000     -19.232560      -523.3446
   1   2.0000     -10.319423      -280.8058
   2   2.0000      -1.143363       -31.1125
   3   2.0000      -0.793576       -21.5943
   4   2.0000      -0.616570       -16.7777
   5   2.0000      -0.544699       -14.8220
   6   2.0000      -0.529031       -14.3957
   7   2.0000      -0.419414       -11.4128
   8   2.0000      -0.376539       -10.2462
   9   0.0000       0.084252         2.2926
  10   0.0000       0.126617         3.4454
  11   0.0000       0.149347         4.0639
  12   0.0000       0.168531         4.5860
  13   0.0000       0.199277         5.4226

MULLIKEN ATOMIC CHARGES
-----------------------
   0 C :    0.004924
   1 O :   -0.000134
   2 H :   -0.000031
   3 H :   -0.000348
   4 H :   -0.012522
   5 H :   -0.000746
   6 C :   -0.171040
   7 O :   -0.466707
   8 H :    0.324982
   9 H :    0.102319
  10 H :    0.118546
  11 H :    0.100758
Sum of atomic charges:   -0.0000000

LOEWDIN ATOMIC CHARGES
----------------------
   0 C :   -0.004874
   1 O :   -0.000368
   2 H :   -0.000102
   3 H :   -0.000035
   4 H :   -0.008255
   5 H :   -0.000166
   6 C :   -0.413025
   7 O :   -0.052950
   8 H :    0.171814
   9 H :    0.100729
  10 H :    0.109770
  11 H :    0.097462

  Mayer bond orders larger than 0.1
B(  6-C ,  7-O ) :   1.0048 B(  6-C ,  9-H ) :   0.9706 B(  6-C , 10-H ) :   0.9694
B(  6-C , 11-H ) :   0.9838 B(  7-O ,  8-H ) :   0.8903

Dispersion correction           -0.000259219
FINAL SINGLE POINT ENERGY      -115.731750982160

DIPOLE MOMENT
-------------
                                X             Y             Z
Electronic contribution:      0.52429       1.37729       1.24923
Nuclear contribution   :     -0.54156      -1.28988      -1.91691
                        -----------------------------------------
Total Dipole Moment    :     -0.01727       0.08741      -0.66767
                        -----------------------------------------
Magnitude (a.u.)       :      0.67359
Magnitude (Debye)      :      1.71214

Rotational constants in cm-1:     4.322899     0.825641     0.811178
Rotational constants in MHz : 129597.252462 24752.079622 24318.509351

                             ****ORCA TERMINATED NORMALLY****
TOTAL RUN TIME: 0 days 0 hours 5 minutes 53 seconds 85 msec
