                         Program Version 4.1.2  - RELEASE  -
|  1> #Run DFT-D3 single point of the dimer
|  2> ! wB97X-D3 def2-TZVP TIGHTSCF CHELPG PMODEL PAL8
|  3>
|  4> %base "14-84_DFT_AB"
|  5>
|  6> %scf
|  7> MaxIter 1000
|  8> end
|  9>
| 10> * xyz 0 1
| 11>   C                      -4.858137            8.794378             -2.162719
| 12>   O                      -5.057893            9.023676             -0.762485
| 13>   H                      -4.277961            8.800261             -0.211867
| 14>   H                      -5.459045            7.976104             -2.597022
| 15>   H                      -5.076426            9.725379             -2.688449
| 16>   H                      -3.806476            8.543483             -2.442663
| 17>   C                      -1.521902            10.435750            -3.257691
| 18>   O                      -1.757048            10.833954            -4.533719
| 19>   H                      -2.755831            11.023440            -4.552019
| 20>   H                      -2.115777            10.910476            -2.480621
| 21>   H                      -1.890686            9.475537             -3.138508
| 22>   H                      -0.471296            10.424483            -3.037976
| 23> *
| 24>
| 25> #Run DFT-D3 single point of the molecule with dimer basis set
| 26> $new_job
| 27> %base "14-84_DFT_A"
| 28> ! wB97X-D3 def2-TZVP TIGHTSCF CHELPG PMODEL
| 29>
| 30> %scf
| 31> MaxIter 1000
| 32> end
| 33>
| 34> * xyz 0 1
| 35>   C                      -4.858137            8.794378             -2.162719
| 36>   O                      -5.057893            9.023676             -0.762485
| 37>   H                      -4.277961            8.800261             -0.211867
| 38>   H                      -5.459045            7.976104             -2.597022
| 39>   H                      -5.076426            9.725379             -2.688449
| 40>   H                      -3.806476            8.543483             -2.442663
| 41>   C                    : -1.521902            10.435750            -3.257691
| 42>   O                    : -1.757048            10.833954            -4.533719
| 43>   H                    : -2.755831            11.023440            -4.552019
| 44>   H                    : -2.115777            10.910476            -2.480621
| 45>   H                    : -1.890686            9.475537             -3.138508
| 46>   H                    : -0.471296            10.424483            -3.037976
| 47> *
| 48>
| 49> #Run DFT-D3 single point of the particle with dimer basis set
| 50> $new_job
| 51> %base "14-84_DFT_B"
| 52> ! wB97X-D3 def2-TZVP TIGHTSCF CHELPG PMODEL
| 53>
| 54> %scf
| 55> MaxIter 1000
| 56> end
| 57>
| 58> * xyz 0 1
| 59>   C                    : -4.858137            8.794378             -2.162719
| 60>   O                    : -5.057893            9.023676             -0.762485
| 61>   H                    : -4.277961            8.800261             -0.211867
| 62>   H                    : -5.459045            7.976104             -2.597022
| 63>   H                    : -5.076426            9.725379             -2.688449
| 64>   H                    : -3.806476            8.543483             -2.442663
| 65>   C                      -1.521902            10.435750            -3.257691
| 66>   O                      -1.757048            10.833954            -4.533719
| 67>   H                      -2.755831            11.023440            -4.552019
| 68>   H                      -2.115777            10.910476            -2.480621
| 69>   H                      -1.890686            9.475537             -3.138508
| 70>   H                      -0.471296            10.424483            -3.037976
| 71> *
| 72>
| 73>                          ****END OF INPUT****
 Total Charge           Charge          ....    0
 Multiplicity           Mult            ....    1
 Number of Electrons    NEL             ....   36
Dispersion correction           -0.001717315
FINAL SINGLE POINT ENERGY      -231.456360836171
Dispersion correction           -0.000282954
FINAL SINGLE POINT ENERGY      -115.732809333242

CARTESIAN COORDINATES (ANGSTROEM)
---------------------------------
  C     -4.858137    8.794378   -2.162719
  O     -5.057893    9.023676   -0.762485
  H     -4.277961    8.800261   -0.211867
  H     -5.459045    7.976104   -2.597022
  H     -5.076426    9.725379   -2.688449
  H     -3.806476    8.543483   -2.442663
  C     -1.521902   10.435750   -3.257691
  O     -1.757048   10.833954   -4.533719
  H     -2.755831   11.023440   -4.552019
  H     -2.115777   10.910476   -2.480621
  H     -1.890686    9.475537   -3.138508
  H     -0.471296   10.424483   -3.037976

 Multiplicity           Mult            ....    1
 Number of Electrons    NEL             ....   18
 Basis Dimension        Dim             ....  172

ORBITAL ENERGIES
----------------

  NO   OCC          E(Eh)            E(eV)
   0   2.0000     -19.235194      -523.4162
   1   2.0000     -10.296726      -280.1882
   2   2.0000      -1.148279       -31.2463
   3   2.0000      -0.793757       -21.5992
   4   2.0000      -0.624201       -16.9854
   5   2.0000      -0.542547       -14.7634
   6   2.0000      -0.534423       -14.5424
   7   2.0000      -0.441261       -12.0073
   8   2.0000      -0.363140        -9.8815
   9   0.0000       0.072689         1.9780
  10   0.0000       0.113707         3.0941
  11   0.0000       0.154546         4.2054
  12   0.0000       0.170892         4.6502
  13   0.0000       0.187504         5.1022

MULLIKEN ATOMIC CHARGES
-----------------------
   0 C :   -0.000138
   1 O :    0.000211
   2 H :    0.000012
   3 H :   -0.000221
   4 H :   -0.000154
   5 H :   -0.001508
   6 C :   -0.151969
   7 O :   -0.458853
   8 H :    0.317117
   9 H :    0.088258
  10 H :    0.092234
  11 H :    0.115010
Sum of atomic charges:   -0.0000000

LOEWDIN ATOMIC CHARGES
----------------------
   0 C :   -0.003117
   1 O :   -0.000038
   2 H :   -0.000059
   3 H :   -0.000017
   4 H :   -0.000417
   5 H :   -0.006427
   6 C :   -0.430893
   7 O :   -0.052126
   8 H :    0.209581
   9 H :    0.093473
  10 H :    0.084906
  11 H :    0.105134

  Mayer bond orders larger than 0.1
B(  6-C ,  7-O ) :   1.0082 B(  6-C ,  9-H ) :   0.9825 B(  6-C , 10-H ) :   0.9861
B(  6-C , 11-H ) :   0.9698 B(  7-O ,  8-H ) :   0.8918

Dispersion correction           -0.000198677
FINAL SINGLE POINT ENERGY      -115.722889650531

DIPOLE MOMENT
-------------
                                X             Y             Z
Electronic contribution:     -0.03544       0.61870      -1.78613
Nuclear contribution   :     -0.50044      -0.66866       2.23535
                        -----------------------------------------
Total Dipole Moment    :     -0.53588      -0.04996       0.44922
                        -----------------------------------------
Magnitude (a.u.)       :      0.70104
Magnitude (Debye)      :      1.78190

Rotational constants in cm-1:     4.396731     0.906138     0.846047
Rotational constants in MHz : 131810.688656 27165.335258 25363.856256

                             ****ORCA TERMINATED NORMALLY****
TOTAL RUN TIME: 0 days 0 hours 0 minutes 55 seconds 988 msec
