                         Program Version 4.1.2  - RELEASE  -
|  1> #Run DFT-D3 single point of the dimer
|  2> ! wB97X-D3 def2-TZVP TIGHTSCF CHELPG PMODEL PAL8
|  3>
|  4> %base "20-39_DFT_AB"
|  5>
|  6> %scf
|  7> MaxIter 1000
|  8> end
|  9>
| 10> * xyz 0 1
| 11>   C                      -1.641794            5.307331             1.637861
| 12>   O                      -2.575965            4.229584             1.491744
| 13>   H                      -2.767324            3.875175             2.374490
| 14>   H                      -1.946451            5.984514             2.464272
| 15>   H                      -0.555480            5.066071             1.793109
| 16>   H                      -1.550788            5.846078             0.708489
| 17>   C                      2.064554             6.478526             0.087602
| 18>   O                      2.280787             7.711916             -0.625384
| 19>   H                      2.526445             7.545536             -1.558653
| 20>   H                      3.033506             6.068312             0.305199
| 21>   H                      1.494370             6.625491             1.061275
| 22>   H                      1.504419             5.731615             -0.494751
| 23> *
| 24>
| 25> #Run DFT-D3 single point of the molecule with dimer basis set
| 26> $new_job
| 27> %base "20-39_DFT_A"
| 28> ! wB97X-D3 def2-TZVP TIGHTSCF CHELPG PMODEL
| 29>
| 30> %scf
| 31> MaxIter 1000
| 32> end
| 33>
| 34> * xyz 0 1
| 35>   C                      -1.641794            5.307331             1.637861
| 36>   O                      -2.575965            4.229584             1.491744
| 37>   H                      -2.767324            3.875175             2.374490
| 38>   H                      -1.946451            5.984514             2.464272
| 39>   H                      -0.555480            5.066071             1.793109
| 40>   H                      -1.550788            5.846078             0.708489
| 41>   C                    : 2.064554             6.478526             0.087602
| 42>   O                    : 2.280787             7.711916             -0.625384
| 43>   H                    : 2.526445             7.545536             -1.558653
| 44>   H                    : 3.033506             6.068312             0.305199
| 45>   H                    : 1.494370             6.625491             1.061275
| 46>   H                    : 1.504419             5.731615             -0.494751
| 47> *
| 48>
| 49> #Run DFT-D3 single point of the particle with dimer basis set
| 50> $new_job
| 51> %base "20-39_DFT_B"
| 52> ! wB97X-D3 def2-TZVP TIGHTSCF CHELPG PMODEL
| 53>
| 54> %scf
| 55> MaxIter 1000
| 56> end
| 57>
| 58> * xyz 0 1
| 59>   C                    : -1.641794            5.307331             1.637861
| 60>   O                    : -2.575965            4.229584             1.491744
| 61>   H                    : -2.767324            3.875175             2.374490
| 62>   H                    : -1.946451            5.984514             2.464272
| 63>   H                    : -0.555480            5.066071             1.793109
| 64>   H                    : -1.550788            5.846078             0.708489
| 65>   C                      2.064554             6.478526             0.087602
| 66>   O                      2.280787             7.711916             -0.625384
| 67>   H                      2.526445             7.545536             -1.558653
| 68>   H                      3.033506             6.068312             0.305199
| 69>   H                      1.494370             6.625491             1.061275
| 70>   H                      1.504419             5.731615             -0.494751
| 71> *
| 72>
| 73>                          ****END OF INPUT****
 Total Charge           Charge          ....    0
 Multiplicity           Mult            ....    1
 Number of Electrons    NEL             ....   36
Dispersion correction           -0.001331608
FINAL SINGLE POINT ENERGY      -231.465621729108
Dispersion correction           -0.000275766
FINAL SINGLE POINT ENERGY      -115.732334552672

CARTESIAN COORDINATES (ANGSTROEM)
---------------------------------
  C     -1.641794    5.307331    1.637861
  O     -2.575965    4.229584    1.491744
  H     -2.767324    3.875175    2.374490
  H     -1.946451    5.984514    2.464272
  H     -0.555480    5.066071    1.793109
  H     -1.550788    5.846078    0.708489
  C      2.064554    6.478526    0.087602
  O      2.280787    7.711916   -0.625384
  H      2.526445    7.545536   -1.558653
  H      3.033506    6.068312    0.305199
  H      1.494370    6.625491    1.061275
  H      1.504419    5.731615   -0.494751

 Multiplicity           Mult            ....    1
 Number of Electrons    NEL             ....   18
 Basis Dimension        Dim             ....  172

ORBITAL ENERGIES
----------------

  NO   OCC          E(Eh)            E(eV)
   0   2.0000     -19.229294      -523.2557
   1   2.0000     -10.319011      -280.7946
   2   2.0000      -1.121688       -30.5227
   3   2.0000      -0.793495       -21.5921
   4   2.0000      -0.603367       -16.4184
   5   2.0000      -0.540200       -14.6996
   6   2.0000      -0.520684       -14.1685
   7   2.0000      -0.428551       -11.6615
   8   2.0000      -0.372327       -10.1315
   9   0.0000       0.085380         2.3233
  10   0.0000       0.114018         3.1026
  11   0.0000       0.143918         3.9162
  12   0.0000       0.174394         4.7455
  13   0.0000       0.182017         4.9529

MULLIKEN ATOMIC CHARGES
-----------------------
   0 C :   -0.000094
   1 O :   -0.000012
   2 H :   -0.000007
   3 H :   -0.000128
   4 H :   -0.001650
   5 H :    0.000531
   6 C :   -0.158799
   7 O :   -0.491457
   8 H :    0.318468
   9 H :    0.105825
  10 H :    0.122436
  11 H :    0.104887
Sum of atomic charges:   -0.0000000

LOEWDIN ATOMIC CHARGES
----------------------
   0 C :   -0.001943
   1 O :   -0.000008
   2 H :   -0.000002
   3 H :   -0.000036
   4 H :   -0.002112
   5 H :   -0.000434
   6 C :   -0.368052
   7 O :   -0.109857
   8 H :    0.177082
   9 H :    0.091091
  10 H :    0.118592
  11 H :    0.095680

  Mayer bond orders larger than 0.1
B(  6-C ,  7-O ) :   0.9918 B(  6-C ,  9-H ) :   0.9774 B(  6-C , 10-H ) :   0.9688
B(  6-C , 11-H ) :   0.9757 B(  7-O ,  8-H ) :   0.8922

Dispersion correction           -0.000262037
FINAL SINGLE POINT ENERGY      -115.732524655364

DIPOLE MOMENT
-------------
                                X             Y             Z
Electronic contribution:      0.22589       1.62558      -0.78114
Nuclear contribution   :     -0.15724      -2.25537       0.48044
                        -----------------------------------------
Total Dipole Moment    :      0.06865      -0.62979      -0.30070
                        -----------------------------------------
Magnitude (a.u.)       :      0.70126
Magnitude (Debye)      :      1.78247

Rotational constants in cm-1:     4.263827     0.798722     0.768413
Rotational constants in MHz : 127826.315761 23945.095399 23036.455913

                             ****ORCA TERMINATED NORMALLY****
TOTAL RUN TIME: 0 days 0 hours 1 minutes 7 seconds 707 msec
