                         Program Version 4.1.2  - RELEASE  -
|  1> #Run DFT-D3 single point of the dimer
|  2> ! wB97X-D3 def2-TZVP TIGHTSCF CHELPG PMODEL PAL8
|  3>
|  4> %base "21-123_DFT_AB"
|  5>
|  6> %scf
|  7> MaxIter 1000
|  8> end
|  9>
| 10> * xyz 0 1
| 11>   C                      7.874232             -11.071143           3.966624
| 12>   O                      7.687014             -11.846176           5.116566
| 13>   H                      7.956098             -12.702588           4.813071
| 14>   H                      7.097583             -10.318167           3.915558
| 15>   H                      8.832153             -10.564399           3.880598
| 16>   H                      7.813907             -11.598509           3.043541
| 17>   C                      10.227579            -11.133739           7.390507
| 18>   O                      9.478339             -9.958969            7.309241
| 19>   H                      8.610460             -10.264610           7.626994
| 20>   H                      10.269229            -11.489758           8.377861
| 21>   H                      9.690472             -11.968063           6.909890
| 22>   H                      11.272229            -11.067057           7.034620
| 23> *
| 24>
| 25> #Run DFT-D3 single point of the molecule with dimer basis set
| 26> $new_job
| 27> %base "21-123_DFT_A"
| 28> ! wB97X-D3 def2-TZVP TIGHTSCF CHELPG PMODEL
| 29>
| 30> %scf
| 31> MaxIter 1000
| 32> end
| 33>
| 34> * xyz 0 1
| 35>   C                      7.874232             -11.071143           3.966624
| 36>   O                      7.687014             -11.846176           5.116566
| 37>   H                      7.956098             -12.702588           4.813071
| 38>   H                      7.097583             -10.318167           3.915558
| 39>   H                      8.832153             -10.564399           3.880598
| 40>   H                      7.813907             -11.598509           3.043541
| 41>   C                    : 10.227579            -11.133739           7.390507
| 42>   O                    : 9.478339             -9.958969            7.309241
| 43>   H                    : 8.610460             -10.264610           7.626994
| 44>   H                    : 10.269229            -11.489758           8.377861
| 45>   H                    : 9.690472             -11.968063           6.909890
| 46>   H                    : 11.272229            -11.067057           7.034620
| 47> *
| 48>
| 49> #Run DFT-D3 single point of the particle with dimer basis set
| 50> $new_job
| 51> %base "21-123_DFT_B"
| 52> ! wB97X-D3 def2-TZVP TIGHTSCF CHELPG PMODEL
| 53>
| 54> %scf
| 55> MaxIter 1000
| 56> end
| 57>
| 58> * xyz 0 1
| 59>   C                    : 7.874232             -11.071143           3.966624
| 60>   O                    : 7.687014             -11.846176           5.116566
| 61>   H                    : 7.956098             -12.702588           4.813071
| 62>   H                    : 7.097583             -10.318167           3.915558
| 63>   H                    : 8.832153             -10.564399           3.880598
| 64>   H                    : 7.813907             -11.598509           3.043541
| 65>   C                      10.227579            -11.133739           7.390507
| 66>   O                      9.478339             -9.958969            7.309241
| 67>   H                      8.610460             -10.264610           7.626994
| 68>   H                      10.269229            -11.489758           8.377861
| 69>   H                      9.690472             -11.968063           6.909890
| 70>   H                      11.272229            -11.067057           7.034620
| 71> *
| 72>
| 73>                          ****END OF INPUT****
 Total Charge           Charge          ....    0
 Multiplicity           Mult            ....    1
 Number of Electrons    NEL             ....   36
Dispersion correction           -0.001851333
FINAL SINGLE POINT ENERGY      -231.465304517379
Dispersion correction           -0.000231476
FINAL SINGLE POINT ENERGY      -115.732607848933

CARTESIAN COORDINATES (ANGSTROEM)
---------------------------------
  C      7.874232  -11.071143    3.966624
  O      7.687014  -11.846176    5.116566
  H      7.956098  -12.702588    4.813071
  H      7.097583  -10.318167    3.915558
  H      8.832153  -10.564399    3.880598
  H      7.813907  -11.598509    3.043541
  C     10.227579  -11.133739    7.390507
  O      9.478339   -9.958969    7.309241
  H      8.610460  -10.264610    7.626994
  H     10.269229  -11.489758    8.377861
  H      9.690472  -11.968063    6.909890
  H     11.272229  -11.067057    7.034620

 Multiplicity           Mult            ....    1
 Number of Electrons    NEL             ....   18
 Basis Dimension        Dim             ....  172

ORBITAL ENERGIES
----------------

  NO   OCC          E(Eh)            E(eV)
   0   2.0000     -19.234789      -523.4052
   1   2.0000     -10.309154      -280.5264
   2   2.0000      -1.145560       -31.1723
   3   2.0000      -0.794027       -21.6066
   4   2.0000      -0.617914       -16.8143
   5   2.0000      -0.539402       -14.6779
   6   2.0000      -0.532599       -14.4928
   7   2.0000      -0.443863       -12.0781
   8   2.0000      -0.369553       -10.0560
   9   0.0000       0.082130         2.2349
  10   0.0000       0.123430         3.3587
  11   0.0000       0.149894         4.0788
  12   0.0000       0.168916         4.5964
  13   0.0000       0.199893         5.4394

MULLIKEN ATOMIC CHARGES
-----------------------
   0 C :   -0.002589
   1 O :    0.000607
   2 H :   -0.000390
   3 H :    0.000348
   4 H :   -0.000673
   5 H :   -0.000096
   6 C :   -0.180415
   7 O :   -0.460123
   8 H :    0.317840
   9 H :    0.109255
  10 H :    0.093391
  11 H :    0.122848
Sum of atomic charges:    0.0000000

LOEWDIN ATOMIC CHARGES
----------------------
   0 C :   -0.003219
   1 O :   -0.003571
   2 H :   -0.001258
   3 H :   -0.000083
   4 H :   -0.000798
   5 H :   -0.000065
   6 C :   -0.405271
   7 O :   -0.064091
   8 H :    0.185055
   9 H :    0.084860
  10 H :    0.096311
  11 H :    0.112130

  Mayer bond orders larger than 0.1
B(  6-C ,  7-O ) :   0.9913 B(  6-C ,  9-H ) :   0.9794 B(  6-C , 10-H ) :   0.9834
B(  6-C , 11-H ) :   0.9719 B(  7-O ,  8-H ) :   0.8972

Dispersion correction           -0.000208352
FINAL SINGLE POINT ENERGY      -115.729848770273

DIPOLE MOMENT
-------------
                                X             Y             Z
Electronic contribution:     -0.76489       1.76523      -0.20906
Nuclear contribution   :      0.52303      -2.40119       0.46916
                        -----------------------------------------
Total Dipole Moment    :     -0.24186      -0.63595       0.26009
                        -----------------------------------------
Magnitude (a.u.)       :      0.72841
Magnitude (Debye)      :      1.85147

Rotational constants in cm-1:     4.345089     0.860772     0.811984
Rotational constants in MHz : 130262.493934 25805.291718 24342.669990

                             ****ORCA TERMINATED NORMALLY****
TOTAL RUN TIME: 0 days 0 hours 1 minutes 4 seconds 572 msec
