                         Program Version 4.1.2  - RELEASE  -
|  1> #Run DFT-D3 single point of the dimer
|  2> ! wB97X-D3 def2-TZVP TIGHTSCF CHELPG PMODEL PAL8
|  3>
|  4> %base "10-11_DFT_AB"
|  5>
|  6> %scf
|  7> MaxIter 1000
|  8> end
|  9>
| 10> * xyz 0 1
| 11>   C                      -8.336969            -4.600054            6.961619
| 12>   O                      -7.406997            -4.718792            5.976221
| 13>   H                      -6.557219            -5.068828            6.345814
| 14>   H                      -9.026821            -3.757067            6.800029
| 15>   H                      -9.068774            -5.485411            6.969378
| 16>   H                      -7.848887            -4.496328            7.950912
| 17>   C                      -4.165208            -6.874129            5.786169
| 18>   O                      -4.507028            -5.521137            6.047845
| 19>   H                      -3.898203            -4.878910            5.624120
| 20>   H                      -4.916415            -7.543379            6.206603
| 21>   H                      -4.069517            -7.060152            4.748270
| 22>   H                      -3.136415            -7.146011            6.180695
| 23> *
| 24>
| 25> #Run DFT-D3 single point of the molecule with dimer basis set
| 26> $new_job
| 27> %base "10-11_DFT_A"
| 28> ! wB97X-D3 def2-TZVP TIGHTSCF CHELPG PMODEL
| 29>
| 30> %scf
| 31> MaxIter 1000
| 32> end
| 33>
| 34> * xyz 0 1
| 35>   C                      -8.336969            -4.600054            6.961619
| 36>   O                      -7.406997            -4.718792            5.976221
| 37>   H                      -6.557219            -5.068828            6.345814
| 38>   H                      -9.026821            -3.757067            6.800029
| 39>   H                      -9.068774            -5.485411            6.969378
| 40>   H                      -7.848887            -4.496328            7.950912
| 41>   C                    : -4.165208            -6.874129            5.786169
| 42>   O                    : -4.507028            -5.521137            6.047845
| 43>   H                    : -3.898203            -4.878910            5.624120
| 44>   H                    : -4.916415            -7.543379            6.206603
| 45>   H                    : -4.069517            -7.060152            4.748270
| 46>   H                    : -3.136415            -7.146011            6.180695
| 47> *
| 48>
| 49> #Run DFT-D3 single point of the particle with dimer basis set
| 50> $new_job
| 51> %base "10-11_DFT_B"
| 52> ! wB97X-D3 def2-TZVP TIGHTSCF CHELPG PMODEL
| 53>
| 54> %scf
| 55> MaxIter 1000
| 56> end
| 57>
| 58> * xyz 0 1
| 59>   C                    : -8.336969            -4.600054            6.961619
| 60>   O                    : -7.406997            -4.718792            5.976221
| 61>   H                    : -6.557219            -5.068828            6.345814
| 62>   H                    : -9.026821            -3.757067            6.800029
| 63>   H                    : -9.068774            -5.485411            6.969378
| 64>   H                    : -7.848887            -4.496328            7.950912
| 65>   C                      -4.165208            -6.874129            5.786169
| 66>   O                      -4.507028            -5.521137            6.047845
| 67>   H                      -3.898203            -4.878910            5.624120
| 68>   H                      -4.916415            -7.543379            6.206603
| 69>   H                      -4.069517            -7.060152            4.748270
| 70>   H                      -3.136415            -7.146011            6.180695
| 71> *
| 72>
| 73>                          ****END OF INPUT****
 Total Charge           Charge          ....    0
 Multiplicity           Mult            ....    1
 Number of Electrons    NEL             ....   36
Dispersion correction           -0.001463328
FINAL SINGLE POINT ENERGY      -231.472467216450
Dispersion correction           -0.000243979
FINAL SINGLE POINT ENERGY      -115.730794166118

CARTESIAN COORDINATES (ANGSTROEM)
---------------------------------
  C     -8.336969   -4.600054    6.961619
  O     -7.406997   -4.718792    5.976221
  H     -6.557219   -5.068828    6.345814
  H     -9.026821   -3.757067    6.800029
  H     -9.068774   -5.485411    6.969378
  H     -7.848887   -4.496328    7.950912
  C     -4.165208   -6.874129    5.786169
  O     -4.507028   -5.521137    6.047845
  H     -3.898203   -4.878910    5.624120
  H     -4.916415   -7.543379    6.206603
  H     -4.069517   -7.060152    4.748270
  H     -3.136415   -7.146011    6.180695

 Multiplicity           Mult            ....    1
 Number of Electrons    NEL             ....   18
 Basis Dimension        Dim             ....  172

ORBITAL ENERGIES
----------------

  NO   OCC          E(Eh)            E(eV)
   0   2.0000     -19.231048      -523.3034
   1   2.0000     -10.314510      -280.6721
   2   2.0000      -1.127562       -30.6825
   3   2.0000      -0.796950       -21.6861
   4   2.0000      -0.612477       -16.6663
   5   2.0000      -0.531907       -14.4739
   6   2.0000      -0.530561       -14.4373
   7   2.0000      -0.432097       -11.7580
   8   2.0000      -0.370371       -10.0783
   9   0.0000       0.099009         2.6942
  10   0.0000       0.118040         3.2120
  11   0.0000       0.150801         4.1035
  12   0.0000       0.188618         5.1326
  13   0.0000       0.203431         5.5356

MULLIKEN ATOMIC CHARGES
-----------------------
   0 C :    0.000395
   1 O :   -0.001552
   2 H :   -0.007431
   3 H :   -0.000007
   4 H :   -0.000011
   5 H :   -0.000357
   6 C :   -0.150828
   7 O :   -0.483331
   8 H :    0.317587
   9 H :    0.127649
  10 H :    0.106764
  11 H :    0.091122
Sum of atomic charges:   -0.0000000

LOEWDIN ATOMIC CHARGES
----------------------
   0 C :   -0.000517
   1 O :   -0.004926
   2 H :   -0.029302
   3 H :   -0.000007
   4 H :   -0.000007
   5 H :   -0.000090
   6 C :   -0.377967
   7 O :   -0.064194
   8 H :    0.179303
   9 H :    0.110544
  10 H :    0.086277
  11 H :    0.100886

  Mayer bond orders larger than 0.1
B(  6-C ,  7-O ) :   0.9902 B(  6-C ,  9-H ) :   0.9738 B(  6-C , 10-H ) :   0.9757
B(  6-C , 11-H ) :   0.9713 B(  7-O ,  8-H ) :   0.8891

Dispersion correction           -0.000257692
FINAL SINGLE POINT ENERGY      -115.733624946097

DIPOLE MOMENT
-------------
                                X             Y             Z
Electronic contribution:     -0.63758       1.66468       0.39909
Nuclear contribution   :      1.16277      -1.81367      -0.80394
                        -----------------------------------------
Total Dipole Moment    :      0.52519      -0.14899      -0.40485
                        -----------------------------------------
Magnitude (a.u.)       :      0.67966
Magnitude (Debye)      :      1.72755

Rotational constants in cm-1:     4.343904     0.819040     0.783889
Rotational constants in MHz : 130226.977504 24554.212093 23500.411247

                             ****ORCA TERMINATED NORMALLY****
TOTAL RUN TIME: 0 days 0 hours 1 minutes 4 seconds 418 msec
