                         Program Version 4.1.2  - RELEASE  -
|  1> #Run DFT-D3 single point of the dimer
|  2> ! wB97X-D3 def2-TZVP TIGHTSCF CHELPG PMODEL PAL8
|  3>
|  4> %base "8-115_DFT_AB"
|  5>
|  6> %scf
|  7> MaxIter 1000
|  8> end
|  9>
| 10> * xyz 0 1
| 11>   C                      -3.085407            1.212228             -6.857028
| 12>   O                      -4.014511            0.679533             -7.754818
| 13>   H                      -3.617017            -0.153410            -8.081807
| 14>   H                      -3.475457            2.195119             -6.416982
| 15>   H                      -2.699295            0.539996             -6.108891
| 16>   H                      -2.225274            1.472159             -7.430988
| 17>   C                      -5.503489            -1.823382            -3.854024
| 18>   O                      -6.297757            -0.649085            -3.729353
| 19>   H                      -6.427129            -0.363208            -4.663941
| 20>   H                      -6.107571            -2.712703            -4.141055
| 21>   H                      -4.877116            -1.810856            -4.734280
| 22>   H                      -4.867101            -2.034921            -2.975977
| 23> *
| 24>
| 25> #Run DFT-D3 single point of the molecule with dimer basis set
| 26> $new_job
| 27> %base "8-115_DFT_A"
| 28> ! wB97X-D3 def2-TZVP TIGHTSCF CHELPG PMODEL
| 29>
| 30> %scf
| 31> MaxIter 1000
| 32> end
| 33>
| 34> * xyz 0 1
| 35>   C                      -3.085407            1.212228             -6.857028
| 36>   O                      -4.014511            0.679533             -7.754818
| 37>   H                      -3.617017            -0.153410            -8.081807
| 38>   H                      -3.475457            2.195119             -6.416982
| 39>   H                      -2.699295            0.539996             -6.108891
| 40>   H                      -2.225274            1.472159             -7.430988
| 41>   C                    : -5.503489            -1.823382            -3.854024
| 42>   O                    : -6.297757            -0.649085            -3.729353
| 43>   H                    : -6.427129            -0.363208            -4.663941
| 44>   H                    : -6.107571            -2.712703            -4.141055
| 45>   H                    : -4.877116            -1.810856            -4.734280
| 46>   H                    : -4.867101            -2.034921            -2.975977
| 47> *
| 48>
| 49> #Run DFT-D3 single point of the particle with dimer basis set
| 50> $new_job
| 51> %base "8-115_DFT_B"
| 52> ! wB97X-D3 def2-TZVP TIGHTSCF CHELPG PMODEL
| 53>
| 54> %scf
| 55> MaxIter 1000
| 56> end
| 57>
| 58> * xyz 0 1
| 59>   C                    : -3.085407            1.212228             -6.857028
| 60>   O                    : -4.014511            0.679533             -7.754818
| 61>   H                    : -3.617017            -0.153410            -8.081807
| 62>   H                    : -3.475457            2.195119             -6.416982
| 63>   H                    : -2.699295            0.539996             -6.108891
| 64>   H                    : -2.225274            1.472159             -7.430988
| 65>   C                      -5.503489            -1.823382            -3.854024
| 66>   O                      -6.297757            -0.649085            -3.729353
| 67>   H                      -6.427129            -0.363208            -4.663941
| 68>   H                      -6.107571            -2.712703            -4.141055
| 69>   H                      -4.877116            -1.810856            -4.734280
| 70>   H                      -4.867101            -2.034921            -2.975977
| 71> *
| 72>
| 73>                          ****END OF INPUT****
 Total Charge           Charge          ....    0
 Multiplicity           Mult            ....    1
 Number of Electrons    NEL             ....   36
Dispersion correction           -0.000988553
FINAL SINGLE POINT ENERGY      -231.462505306760
Dispersion correction           -0.000222222
FINAL SINGLE POINT ENERGY      -115.730822070194

CARTESIAN COORDINATES (ANGSTROEM)
---------------------------------
  C     -3.085407    1.212228   -6.857028
  O     -4.014511    0.679533   -7.754818
  H     -3.617017   -0.153410   -8.081807
  H     -3.475457    2.195119   -6.416982
  H     -2.699295    0.539996   -6.108891
  H     -2.225274    1.472159   -7.430988
  C     -5.503489   -1.823382   -3.854024
  O     -6.297757   -0.649085   -3.729353
  H     -6.427129   -0.363208   -4.663941
  H     -6.107571   -2.712703   -4.141055
  H     -4.877116   -1.810856   -4.734280
  H     -4.867101   -2.034921   -2.975977

 Multiplicity           Mult            ....    1
 Number of Electrons    NEL             ....   18
 Basis Dimension        Dim             ....  172

ORBITAL ENERGIES
----------------

  NO   OCC          E(Eh)            E(eV)
   0   2.0000     -19.236669      -523.4564
   1   2.0000     -10.315784      -280.7068
   2   2.0000      -1.133162       -30.8349
   3   2.0000      -0.792812       -21.5735
   4   2.0000      -0.613056       -16.6821
   5   2.0000      -0.534866       -14.5545
   6   2.0000      -0.521503       -14.1908
   7   2.0000      -0.443518       -12.0687
   8   2.0000      -0.371033       -10.0963
   9   0.0000       0.073651         2.0041
  10   0.0000       0.117662         3.2017
  11   0.0000       0.146872         3.9966
  12   0.0000       0.161773         4.4021
  13   0.0000       0.187513         5.1025

MULLIKEN ATOMIC CHARGES
-----------------------
   0 C :   -0.000284
   1 O :   -0.000007
   2 H :   -0.000062
   3 H :    0.000046
   4 H :    0.000049
   5 H :    0.000017
   6 C :   -0.187178
   7 O :   -0.465045
   8 H :    0.318305
   9 H :    0.099518
  10 H :    0.107374
  11 H :    0.127266
Sum of atomic charges:    0.0000000

LOEWDIN ATOMIC CHARGES
----------------------
   0 C :   -0.000346
   1 O :   -0.000031
   2 H :   -0.000055
   3 H :   -0.000016
   4 H :   -0.000184
   5 H :   -0.000015
   6 C :   -0.393951
   7 O :   -0.092747
   8 H :    0.187891
   9 H :    0.097913
  10 H :    0.091625
  11 H :    0.109917

  Mayer bond orders larger than 0.1
B(  6-C ,  7-O ) :   1.0059 B(  6-C ,  9-H ) :   0.9720 B(  6-C , 10-H ) :   0.9808
B(  6-C , 11-H ) :   0.9708 B(  7-O ,  8-H ) :   0.8965

Dispersion correction           -0.000243697
FINAL SINGLE POINT ENERGY      -115.730215725143

DIPOLE MOMENT
-------------
                                X             Y             Z
Electronic contribution:     -1.01577       1.61476       0.47943
Nuclear contribution   :      1.26522      -1.88689      -1.13361
                        -----------------------------------------
Total Dipole Moment    :      0.24945      -0.27213      -0.65418
                        -----------------------------------------
Magnitude (a.u.)       :      0.75116
Magnitude (Debye)      :      1.90929

Rotational constants in cm-1:     4.268572     0.823165     0.782089
Rotational constants in MHz : 127968.580437 24677.872355 23446.437811

                             ****ORCA TERMINATED NORMALLY****
TOTAL RUN TIME: 0 days 0 hours 0 minutes 43 seconds 900 msec
