                         Program Version 4.1.2  - RELEASE  -
|  1> #Run DFT-D3 single point of the dimer
|  2> ! wB97X-D3 def2-TZVP TIGHTSCF CHELPG PMODEL PAL8
|  3>
|  4> %base "1-152_DFT_AB"
|  5>
|  6> %scf
|  7> MaxIter 1000
|  8> end
|  9>
| 10> * xyz 0 1
| 11>   C                      1.559900             -2.722183            -4.387843
| 12>   O                      1.024097             -3.110512            -3.120615
| 13>   H                      0.241665             -2.671256            -2.909754
| 14>   H                      2.034390             -3.613840            -4.841094
| 15>   H                      0.813583             -2.312463            -5.113704
| 16>   H                      2.363234             -2.014412            -4.232848
| 17>   C                      1.936393             -0.771013            -5.484556
| 18>   O                      0.630137             -0.634655            -5.025731
| 19>   H                      -0.025809            -0.977077            -5.639534
| 20>   H                      2.164730             -1.840274            -5.824897
| 21>   H                      2.098250             0.000665             -6.269158
| 22>   H                      2.625452             -0.481756            -4.691248
| 23> *
| 24>
| 25> #Run DFT-D3 single point of the molecule with dimer basis set
| 26> $new_job
| 27> %base "1-152_DFT_A"
| 28> ! wB97X-D3 def2-TZVP TIGHTSCF CHELPG PMODEL
| 29>
| 30> %scf
| 31> MaxIter 1000
| 32> end
| 33>
| 34> * xyz 0 1
| 35>   C                      1.559900             -2.722183            -4.387843
| 36>   O                      1.024097             -3.110512            -3.120615
| 37>   H                      0.241665             -2.671256            -2.909754
| 38>   H                      2.034390             -3.613840            -4.841094
| 39>   H                      0.813583             -2.312463            -5.113704
| 40>   H                      2.363234             -2.014412            -4.232848
| 41>   C                    : 1.936393             -0.771013            -5.484556
| 42>   O                    : 0.630137             -0.634655            -5.025731
| 43>   H                    : -0.025809            -0.977077            -5.639534
| 44>   H                    : 2.164730             -1.840274            -5.824897
| 45>   H                    : 2.098250             0.000665             -6.269158
| 46>   H                    : 2.625452             -0.481756            -4.691248
| 47> *
| 48>
| 49> #Run DFT-D3 single point of the particle with dimer basis set
| 50> $new_job
| 51> %base "1-152_DFT_B"
| 52> ! wB97X-D3 def2-TZVP TIGHTSCF CHELPG PMODEL
| 53>
| 54> %scf
| 55> MaxIter 1000
| 56> end
| 57>
| 58> * xyz 0 1
| 59>   C                    : 1.559900             -2.722183            -4.387843
| 60>   O                    : 1.024097             -3.110512            -3.120615
| 61>   H                    : 0.241665             -2.671256            -2.909754
| 62>   H                    : 2.034390             -3.613840            -4.841094
| 63>   H                    : 0.813583             -2.312463            -5.113704
| 64>   H                    : 2.363234             -2.014412            -4.232848
| 65>   C                      1.936393             -0.771013            -5.484556
| 66>   O                      0.630137             -0.634655            -5.025731
| 67>   H                      -0.025809            -0.977077            -5.639534
| 68>   H                      2.164730             -1.840274            -5.824897
| 69>   H                      2.098250             0.000665             -6.269158
| 70>   H                      2.625452             -0.481756            -4.691248
| 71> *
| 72>
| 73>                          ****END OF INPUT****
 Total Charge           Charge          ....    0
 Multiplicity           Mult            ....    1
 Number of Electrons    NEL             ....   36
Dispersion correction           -0.002189144
FINAL SINGLE POINT ENERGY      -231.376930203008
Dispersion correction           -0.000266855
FINAL SINGLE POINT ENERGY      -115.733751340778

CARTESIAN COORDINATES (ANGSTROEM)
---------------------------------
  C      1.559900   -2.722183   -4.387843
  O      1.024097   -3.110512   -3.120615
  H      0.241665   -2.671256   -2.909754
  H      2.034390   -3.613840   -4.841094
  H      0.813583   -2.312463   -5.113704
  H      2.363234   -2.014412   -4.232848
  C      1.936393   -0.771013   -5.484556
  O      0.630137   -0.634655   -5.025731
  H     -0.025809   -0.977077   -5.639534
  H      2.164730   -1.840274   -5.824897
  H      2.098250    0.000665   -6.269158
  H      2.625452   -0.481756   -4.691248

 Multiplicity           Mult            ....    1
 Number of Electrons    NEL             ....   18
 Basis Dimension        Dim             ....  172

ORBITAL ENERGIES
----------------

  NO   OCC          E(Eh)            E(eV)
   0   2.0000     -19.229494      -523.2611
   1   2.0000     -10.318786      -280.7884
   2   2.0000      -1.140822       -31.0434
   3   2.0000      -0.793114       -21.5817
   4   2.0000      -0.609438       -16.5837
   5   2.0000      -0.545266       -14.8374
   6   2.0000      -0.532662       -14.4945
   7   2.0000      -0.423268       -11.5177
   8   2.0000      -0.371440       -10.1074
   9   0.0000       0.094497         2.5714
  10   0.0000       0.137429         3.7396
  11   0.0000       0.155323         4.2265
  12   0.0000       0.171752         4.6736
  13   0.0000       0.200200         5.4477

MULLIKEN ATOMIC CHARGES
-----------------------
   0 C :    0.063495
   1 O :   -0.001627
   2 H :   -0.003750
   3 H :   -0.000565
   4 H :   -0.050363
   5 H :   -0.017209
   6 C :   -0.152303
   7 O :   -0.471060
   8 H :    0.322309
   9 H :    0.089248
  10 H :    0.109458
  11 H :    0.112368
Sum of atomic charges:    0.0000000

LOEWDIN ATOMIC CHARGES
----------------------
   0 C :   -0.175676
   1 O :   -0.001791
   2 H :   -0.003563
   3 H :   -0.006105
   4 H :   -0.069005
   5 H :   -0.054632
   6 C :   -0.296517
   7 O :    0.018774
   8 H :    0.180997
   9 H :    0.177524
  10 H :    0.100501
  11 H :    0.129492

  Mayer bond orders larger than 0.1
B(  6-C ,  7-O ) :   0.9942 B(  6-C ,  9-H ) :   0.9905 B(  6-C , 10-H ) :   0.9756
B(  6-C , 11-H ) :   0.9721 B(  7-O ,  8-H ) :   0.8909

Dispersion correction           -0.000247157
FINAL SINGLE POINT ENERGY      -115.734301233156

DIPOLE MOMENT
-------------
                                X             Y             Z
Electronic contribution:     -1.62846       0.18993       0.71020
Nuclear contribution   :      1.71424      -0.43022      -1.25519
                        -----------------------------------------
Total Dipole Moment    :      0.08578      -0.24029      -0.54499
                        -----------------------------------------
Magnitude (a.u.)       :      0.60176
Magnitude (Debye)      :      1.52955

Rotational constants in cm-1:     4.171202     0.844557     0.820197
Rotational constants in MHz : 125049.490070 25319.186100 24588.894865

                             ****ORCA TERMINATED NORMALLY****
TOTAL RUN TIME: 0 days 0 hours 6 minutes 1 seconds 891 msec
