                         Program Version 4.1.2  - RELEASE  -
|  1> #Run DFT-D3 single point of the dimer
|  2> ! wB97X-D3 def2-TZVP TIGHTSCF CHELPG PMODEL PAL8
|  3>
|  4> %base "20-70_DFT_AB"
|  5>
|  6> %scf
|  7> MaxIter 1000
|  8> end
|  9>
| 10> * xyz 0 1
| 11>   C                      0.659082             8.615269             -3.643497
| 12>   O                      0.571755             9.841283             -3.042450
| 13>   H                      0.633439             10.539445            -3.712564
| 14>   H                      1.490287             8.549697             -4.355124
| 15>   H                      0.762765             7.880298             -2.852222
| 16>   H                      -0.254403            8.351689             -4.285406
| 17>   C                      2.064554             6.478526             0.087602
| 18>   O                      2.280787             7.711916             -0.625384
| 19>   H                      2.526445             7.545536             -1.558653
| 20>   H                      3.033506             6.068312             0.305199
| 21>   H                      1.494370             6.625491             1.061275
| 22>   H                      1.504419             5.731615             -0.494751
| 23> *
| 24>
| 25> #Run DFT-D3 single point of the molecule with dimer basis set
| 26> $new_job
| 27> %base "20-70_DFT_A"
| 28> ! wB97X-D3 def2-TZVP TIGHTSCF CHELPG PMODEL
| 29>
| 30> %scf
| 31> MaxIter 1000
| 32> end
| 33>
| 34> * xyz 0 1
| 35>   C                      0.659082             8.615269             -3.643497
| 36>   O                      0.571755             9.841283             -3.042450
| 37>   H                      0.633439             10.539445            -3.712564
| 38>   H                      1.490287             8.549697             -4.355124
| 39>   H                      0.762765             7.880298             -2.852222
| 40>   H                      -0.254403            8.351689             -4.285406
| 41>   C                    : 2.064554             6.478526             0.087602
| 42>   O                    : 2.280787             7.711916             -0.625384
| 43>   H                    : 2.526445             7.545536             -1.558653
| 44>   H                    : 3.033506             6.068312             0.305199
| 45>   H                    : 1.494370             6.625491             1.061275
| 46>   H                    : 1.504419             5.731615             -0.494751
| 47> *
| 48>
| 49> #Run DFT-D3 single point of the particle with dimer basis set
| 50> $new_job
| 51> %base "20-70_DFT_B"
| 52> ! wB97X-D3 def2-TZVP TIGHTSCF CHELPG PMODEL
| 53>
| 54> %scf
| 55> MaxIter 1000
| 56> end
| 57>
| 58> * xyz 0 1
| 59>   C                    : 0.659082             8.615269             -3.643497
| 60>   O                    : 0.571755             9.841283             -3.042450
| 61>   H                    : 0.633439             10.539445            -3.712564
| 62>   H                    : 1.490287             8.549697             -4.355124
| 63>   H                    : 0.762765             7.880298             -2.852222
| 64>   H                    : -0.254403            8.351689             -4.285406
| 65>   C                      2.064554             6.478526             0.087602
| 66>   O                      2.280787             7.711916             -0.625384
| 67>   H                      2.526445             7.545536             -1.558653
| 68>   H                      3.033506             6.068312             0.305199
| 69>   H                      1.494370             6.625491             1.061275
| 70>   H                      1.504419             5.731615             -0.494751
| 71> *
| 72>
| 73>                          ****END OF INPUT****
 Total Charge           Charge          ....    0
 Multiplicity           Mult            ....    1
 Number of Electrons    NEL             ....   36
Dispersion correction           -0.001555619
FINAL SINGLE POINT ENERGY      -231.466564095223
Dispersion correction           -0.000234560
FINAL SINGLE POINT ENERGY      -115.734318155666

CARTESIAN COORDINATES (ANGSTROEM)
---------------------------------
  C      0.659082    8.615269   -3.643497
  O      0.571755    9.841283   -3.042450
  H      0.633439   10.539445   -3.712564
  H      1.490287    8.549697   -4.355124
  H      0.762765    7.880298   -2.852222
  H     -0.254403    8.351689   -4.285406
  C      2.064554    6.478526    0.087602
  O      2.280787    7.711916   -0.625384
  H      2.526445    7.545536   -1.558653
  H      3.033506    6.068312    0.305199
  H      1.494370    6.625491    1.061275
  H      1.504419    5.731615   -0.494751

 Multiplicity           Mult            ....    1
 Number of Electrons    NEL             ....   18
 Basis Dimension        Dim             ....  172

ORBITAL ENERGIES
----------------

  NO   OCC          E(Eh)            E(eV)
   0   2.0000     -19.231217      -523.3080
   1   2.0000     -10.319622      -280.8112
   2   2.0000      -1.122837       -30.5540
   3   2.0000      -0.794178       -21.6107
   4   2.0000      -0.604275       -16.4432
   5   2.0000      -0.540934       -14.7196
   6   2.0000      -0.521497       -14.1907
   7   2.0000      -0.429530       -11.6881
   8   2.0000      -0.373499       -10.1634
   9   0.0000       0.081185         2.2091
  10   0.0000       0.125640         3.4188
  11   0.0000       0.148453         4.0396
  12   0.0000       0.173048         4.7089
  13   0.0000       0.189330         5.1519

MULLIKEN ATOMIC CHARGES
-----------------------
   0 C :    0.005842
   1 O :    0.000424
   2 H :    0.000089
   3 H :   -0.000027
   4 H :   -0.018811
   5 H :   -0.000624
   6 C :   -0.165271
   7 O :   -0.481591
   8 H :    0.320865
   9 H :    0.110008
  10 H :    0.121878
  11 H :    0.107217
Sum of atomic charges:   -0.0000000

LOEWDIN ATOMIC CHARGES
----------------------
   0 C :   -0.006375
   1 O :   -0.000602
   2 H :   -0.000031
   3 H :   -0.000176
   4 H :   -0.009418
   5 H :   -0.000067
   6 C :   -0.368568
   7 O :   -0.098749
   8 H :    0.179131
   9 H :    0.091636
  10 H :    0.117739
  11 H :    0.095479

  Mayer bond orders larger than 0.1
B(  6-C ,  7-O ) :   0.9908 B(  6-C ,  9-H ) :   0.9833 B(  6-C , 10-H ) :   0.9684
B(  6-C , 11-H ) :   0.9731 B(  7-O ,  8-H ) :   0.8897

Dispersion correction           -0.000262037
FINAL SINGLE POINT ENERGY      -115.733161675784

DIPOLE MOMENT
-------------
                                X             Y             Z
Electronic contribution:      0.23283       1.61940      -0.75899
Nuclear contribution   :     -0.15724      -2.25537       0.48044
                        -----------------------------------------
Total Dipole Moment    :      0.07559      -0.63596      -0.27855
                        -----------------------------------------
Magnitude (a.u.)       :      0.69839
Magnitude (Debye)      :      1.77518

Rotational constants in cm-1:     4.263827     0.798722     0.768413
Rotational constants in MHz : 127826.315761 23945.095399 23036.455913

                             ****ORCA TERMINATED NORMALLY****
TOTAL RUN TIME: 0 days 0 hours 1 minutes 6 seconds 74 msec
