                         Program Version 4.1.2  - RELEASE  -
|  1> #Run DFT-D3 single point of the dimer
|  2> ! wB97X-D3 def2-TZVP TIGHTSCF CHELPG PMODEL PAL8
|  3>
|  4> %base "21-119_DFT_AB"
|  5>
|  6> %scf
|  7> MaxIter 1000
|  8> end
|  9>
| 10> * xyz 0 1
| 11>   C                      -8.129989            -1.571884            -2.225522
| 12>   O                      -8.222759            -0.794738            -3.392782
| 13>   H                      -9.121631            -0.441350            -3.413433
| 14>   H                      -9.139452            -1.760697            -1.839982
| 15>   H                      -7.694498            -2.543217            -2.506022
| 16>   H                      -7.554481            -1.152967            -1.411598
| 17>   C                      -4.078479            -2.248424            -2.195050
| 18>   O                      -4.903132            -3.303661            -2.540773
| 19>   H                      -5.809840            -3.251913            -2.376975
| 20>   H                      -3.658721            -2.507381            -1.205279
| 21>   H                      -3.354784            -1.977899            -2.980736
| 22>   H                      -4.769125            -1.432283            -2.040822
| 23> *
| 24>
| 25> #Run DFT-D3 single point of the molecule with dimer basis set
| 26> $new_job
| 27> %base "21-119_DFT_A"
| 28> ! wB97X-D3 def2-TZVP TIGHTSCF CHELPG PMODEL
| 29>
| 30> %scf
| 31> MaxIter 1000
| 32> end
| 33>
| 34> * xyz 0 1
| 35>   C                      -8.129989            -1.571884            -2.225522
| 36>   O                      -8.222759            -0.794738            -3.392782
| 37>   H                      -9.121631            -0.441350            -3.413433
| 38>   H                      -9.139452            -1.760697            -1.839982
| 39>   H                      -7.694498            -2.543217            -2.506022
| 40>   H                      -7.554481            -1.152967            -1.411598
| 41>   C                    : -4.078479            -2.248424            -2.195050
| 42>   O                    : -4.903132            -3.303661            -2.540773
| 43>   H                    : -5.809840            -3.251913            -2.376975
| 44>   H                    : -3.658721            -2.507381            -1.205279
| 45>   H                    : -3.354784            -1.977899            -2.980736
| 46>   H                    : -4.769125            -1.432283            -2.040822
| 47> *
| 48>
| 49> #Run DFT-D3 single point of the particle with dimer basis set
| 50> $new_job
| 51> %base "21-119_DFT_B"
| 52> ! wB97X-D3 def2-TZVP TIGHTSCF CHELPG PMODEL
| 53>
| 54> %scf
| 55> MaxIter 1000
| 56> end
| 57>
| 58> * xyz 0 1
| 59>   C                    : -8.129989            -1.571884            -2.225522
| 60>   O                    : -8.222759            -0.794738            -3.392782
| 61>   H                    : -9.121631            -0.441350            -3.413433
| 62>   H                    : -9.139452            -1.760697            -1.839982
| 63>   H                    : -7.694498            -2.543217            -2.506022
| 64>   H                    : -7.554481            -1.152967            -1.411598
| 65>   C                      -4.078479            -2.248424            -2.195050
| 66>   O                      -4.903132            -3.303661            -2.540773
| 67>   H                      -5.809840            -3.251913            -2.376975
| 68>   H                      -3.658721            -2.507381            -1.205279
| 69>   H                      -3.354784            -1.977899            -2.980736
| 70>   H                      -4.769125            -1.432283            -2.040822
| 71> *
| 72>
| 73>                          ****END OF INPUT****
 Total Charge           Charge          ....    0
 Multiplicity           Mult            ....    1
 Number of Electrons    NEL             ....   36
Dispersion correction           -0.001724717
FINAL SINGLE POINT ENERGY      -231.460287426248
Dispersion correction           -0.000239609
FINAL SINGLE POINT ENERGY      -115.734287305607

CARTESIAN COORDINATES (ANGSTROEM)
---------------------------------
  C     -8.129989   -1.571884   -2.225522
  O     -8.222759   -0.794738   -3.392782
  H     -9.121631   -0.441350   -3.413433
  H     -9.139452   -1.760697   -1.839982
  H     -7.694498   -2.543217   -2.506022
  H     -7.554481   -1.152967   -1.411598
  C     -4.078479   -2.248424   -2.195050
  O     -4.903132   -3.303661   -2.540773
  H     -5.809840   -3.251913   -2.376975
  H     -3.658721   -2.507381   -1.205279
  H     -3.354784   -1.977899   -2.980736
  H     -4.769125   -1.432283   -2.040822

 Multiplicity           Mult            ....    1
 Number of Electrons    NEL             ....   18
 Basis Dimension        Dim             ....  172

ORBITAL ENERGIES
----------------

  NO   OCC          E(Eh)            E(eV)
   0   2.0000     -19.215865      -522.8903
   1   2.0000     -10.313093      -280.6335
   2   2.0000      -1.143855       -31.1259
   3   2.0000      -0.801467       -21.8090
   4   2.0000      -0.618709       -16.8359
   5   2.0000      -0.551419       -15.0049
   6   2.0000      -0.535971       -14.5845
   7   2.0000      -0.410318       -11.1653
   8   2.0000      -0.368939       -10.0393
   9   0.0000       0.073227         1.9926
  10   0.0000       0.132495         3.6054
  11   0.0000       0.151306         4.1172
  12   0.0000       0.173949         4.7334
  13   0.0000       0.183346         4.9891

MULLIKEN ATOMIC CHARGES
-----------------------
   0 C :   -0.003220
   1 O :    0.000324
   2 H :    0.000014
   3 H :   -0.000307
   4 H :   -0.002681
   5 H :    0.000169
   6 C :   -0.128919
   7 O :   -0.493021
   8 H :    0.315125
   9 H :    0.101289
  10 H :    0.117926
  11 H :    0.093301
Sum of atomic charges:    0.0000000

LOEWDIN ATOMIC CHARGES
----------------------
   0 C :   -0.005531
   1 O :   -0.000050
   2 H :   -0.000009
   3 H :   -0.000062
   4 H :   -0.005846
   5 H :   -0.000901
   6 C :   -0.390995
   7 O :   -0.041506
   8 H :    0.142513
   9 H :    0.101423
  10 H :    0.106982
  11 H :    0.093982

  Mayer bond orders larger than 0.1
B(  6-C ,  7-O ) :   0.9743 B(  6-C ,  9-H ) :   0.9852 B(  6-C , 10-H ) :   0.9622
B(  6-C , 11-H ) :   0.9931 B(  7-O ,  8-H ) :   0.9064

Dispersion correction           -0.000226427
FINAL SINGLE POINT ENERGY      -115.725718232358

DIPOLE MOMENT
-------------
                                X             Y             Z
Electronic contribution:     -0.80422      -1.34046      -0.54353
Nuclear contribution   :      0.49113       1.82539       0.78982
                        -----------------------------------------
Total Dipole Moment    :     -0.31308       0.48493       0.24629
                        -----------------------------------------
Magnitude (a.u.)       :      0.62756
Magnitude (Debye)      :      1.59514

Rotational constants in cm-1:     4.380015     0.857925     0.839676
Rotational constants in MHz : 131309.559628 25719.951181 25172.866050

                             ****ORCA TERMINATED NORMALLY****
TOTAL RUN TIME: 0 days 0 hours 1 minutes 1 seconds 54 msec
