                         Program Version 4.1.2  - RELEASE  -
|  1> #Run DFT-D3 single point of the dimer
|  2> ! wB97X-D3 def2-TZVP TIGHTSCF CHELPG PMODEL PAL8
|  3>
|  4> %base "2-30_DFT_AB"
|  5>
|  6> %scf
|  7> MaxIter 1000
|  8> end
|  9>
| 10> * xyz 0 1
| 11>   C                      5.916145             7.599752             -3.115480
| 12>   O                      6.303187             6.405109             -3.797141
| 13>   H                      6.313995             5.742929             -3.113214
| 14>   H                      6.562852             7.866482             -2.246742
| 15>   H                      5.963492             8.428625             -3.817606
| 16>   H                      4.933177             7.588969             -2.693862
| 17>   C                      3.522016             3.639850             -5.642399
| 18>   O                      2.143090             3.550942             -6.096599
| 19>   H                      1.805661             2.673086             -5.987223
| 20>   H                      4.273496             3.105135             -6.260099
| 21>   H                      3.856484             4.635359             -5.653615
| 22>   H                      3.616482             3.242243             -4.599402
| 23> *
| 24>
| 25> #Run DFT-D3 single point of the molecule with dimer basis set
| 26> $new_job
| 27> %base "2-30_DFT_A"
| 28> ! wB97X-D3 def2-TZVP TIGHTSCF CHELPG PMODEL
| 29>
| 30> %scf
| 31> MaxIter 1000
| 32> end
| 33>
| 34> * xyz 0 1
| 35>   C                      5.916145             7.599752             -3.115480
| 36>   O                      6.303187             6.405109             -3.797141
| 37>   H                      6.313995             5.742929             -3.113214
| 38>   H                      6.562852             7.866482             -2.246742
| 39>   H                      5.963492             8.428625             -3.817606
| 40>   H                      4.933177             7.588969             -2.693862
| 41>   C                    : 3.522016             3.639850             -5.642399
| 42>   O                    : 2.143090             3.550942             -6.096599
| 43>   H                    : 1.805661             2.673086             -5.987223
| 44>   H                    : 4.273496             3.105135             -6.260099
| 45>   H                    : 3.856484             4.635359             -5.653615
| 46>   H                    : 3.616482             3.242243             -4.599402
| 47> *
| 48>
| 49> #Run DFT-D3 single point of the particle with dimer basis set
| 50> $new_job
| 51> %base "2-30_DFT_B"
| 52> ! wB97X-D3 def2-TZVP TIGHTSCF CHELPG PMODEL
| 53>
| 54> %scf
| 55> MaxIter 1000
| 56> end
| 57>
| 58> * xyz 0 1
| 59>   C                    : 5.916145             7.599752             -3.115480
| 60>   O                    : 6.303187             6.405109             -3.797141
| 61>   H                    : 6.313995             5.742929             -3.113214
| 62>   H                    : 6.562852             7.866482             -2.246742
| 63>   H                    : 5.963492             8.428625             -3.817606
| 64>   H                    : 4.933177             7.588969             -2.693862
| 65>   C                      3.522016             3.639850             -5.642399
| 66>   O                      2.143090             3.550942             -6.096599
| 67>   H                      1.805661             2.673086             -5.987223
| 68>   H                      4.273496             3.105135             -6.260099
| 69>   H                      3.856484             4.635359             -5.653615
| 70>   H                      3.616482             3.242243             -4.599402
| 71> *
| 72>
| 73>                          ****END OF INPUT****
 Total Charge           Charge          ....    0
 Multiplicity           Mult            ....    1
 Number of Electrons    NEL             ....   36
Dispersion correction           -0.000936675
FINAL SINGLE POINT ENERGY      -231.468914646758
Dispersion correction           -0.000247121
FINAL SINGLE POINT ENERGY      -115.735242008193

CARTESIAN COORDINATES (ANGSTROEM)
---------------------------------
  C      5.916145    7.599752   -3.115480
  O      6.303187    6.405109   -3.797141
  H      6.313995    5.742929   -3.113214
  H      6.562852    7.866482   -2.246742
  H      5.963492    8.428625   -3.817606
  H      4.933177    7.588969   -2.693862
  C      3.522016    3.639850   -5.642399
  O      2.143090    3.550942   -6.096599
  H      1.805661    2.673086   -5.987223
  H      4.273496    3.105135   -6.260099
  H      3.856484    4.635359   -5.653615
  H      3.616482    3.242243   -4.599402

 Multiplicity           Mult            ....    1
 Number of Electrons    NEL             ....   18
 Basis Dimension        Dim             ....  172

ORBITAL ENERGIES
----------------

  NO   OCC          E(Eh)            E(eV)
   0   2.0000     -19.229711      -523.2670
   1   2.0000     -10.317434      -280.7516
   2   2.0000      -1.125430       -30.6245
   3   2.0000      -0.801925       -21.8215
   4   2.0000      -0.605630       -16.4800
   5   2.0000      -0.535350       -14.5676
   6   2.0000      -0.525600       -14.3023
   7   2.0000      -0.434826       -11.8322
   8   2.0000      -0.375522       -10.2185
   9   0.0000       0.082171         2.2360
  10   0.0000       0.118203         3.2165
  11   0.0000       0.139260         3.7895
  12   0.0000       0.174673         4.7531
  13   0.0000       0.185279         5.0417

MULLIKEN ATOMIC CHARGES
-----------------------
   0 C :   -0.000062
   1 O :    0.000024
   2 H :   -0.000077
   3 H :   -0.000003
   4 H :    0.000001
   5 H :   -0.000013
   6 C :   -0.163342
   7 O :   -0.485097
   8 H :    0.313866
   9 H :    0.100503
  10 H :    0.130288
  11 H :    0.103912
Sum of atomic charges:    0.0000000

LOEWDIN ATOMIC CHARGES
----------------------
   0 C :   -0.000091
   1 O :   -0.000160
   2 H :   -0.000125
   3 H :   -0.000002
   4 H :   -0.000002
   5 H :   -0.000011
   6 C :   -0.355003
   7 O :   -0.098034
   8 H :    0.155990
   9 H :    0.097561
  10 H :    0.098152
  11 H :    0.101724

  Mayer bond orders larger than 0.1
B(  6-C ,  7-O ) :   0.9991 B(  6-C ,  9-H ) :   0.9683 B(  6-C , 10-H ) :   0.9742
B(  6-C , 11-H ) :   0.9794 B(  7-O ,  8-H ) :   0.9011

Dispersion correction           -0.000278659
FINAL SINGLE POINT ENERGY      -115.732799612939

DIPOLE MOMENT
-------------
                                X             Y             Z
Electronic contribution:     -1.76161       0.06681      -0.64271
Nuclear contribution   :      2.13430      -0.57469       0.90447
                        -----------------------------------------
Total Dipole Moment    :      0.37269      -0.50788       0.26176
                        -----------------------------------------
Magnitude (a.u.)       :      0.68217
Magnitude (Debye)      :      1.73394

Rotational constants in cm-1:     4.431894     0.782413     0.759727
Rotational constants in MHz : 132864.841630 23456.161957 22776.050016

                             ****ORCA TERMINATED NORMALLY****
TOTAL RUN TIME: 0 days 0 hours 5 minutes 30 seconds 105 msec
