                         Program Version 4.1.2  - RELEASE  -
|  1> #Run DFT-D3 single point of the dimer
|  2> ! wB97X-D3 def2-TZVP TIGHTSCF CHELPG PMODEL PAL8
|  3>
|  4> %base "14-110_DFT_AB"
|  5>
|  6> %scf
|  7> MaxIter 1000
|  8> end
|  9>
| 10> * xyz 0 1
| 11>   C                      -7.605909            2.443021             -5.622041
| 12>   O                      -8.394434            3.474753             -5.066151
| 13>   H                      -8.746984            3.268596             -4.163043
| 14>   H                      -6.908455            2.024404             -4.832031
| 15>   H                      -8.242513            1.688588             -6.000919
| 16>   H                      -7.027775            2.828739             -6.512241
| 17>   C                      -11.246257           4.690061             -5.507770
| 18>   O                      -11.667383           5.099352             -6.767872
| 19>   H                      -10.915478           4.982300             -7.343913
| 20>   H                      -10.329714           5.154487             -5.161061
| 21>   H                      -11.975830           4.830696             -4.695046
| 22>   H                      -10.984927           3.649927             -5.510068
| 23> *
| 24>
| 25> #Run DFT-D3 single point of the molecule with dimer basis set
| 26> $new_job
| 27> %base "14-110_DFT_A"
| 28> ! wB97X-D3 def2-TZVP TIGHTSCF CHELPG PMODEL
| 29>
| 30> %scf
| 31> MaxIter 1000
| 32> end
| 33>
| 34> * xyz 0 1
| 35>   C                      -7.605909            2.443021             -5.622041
| 36>   O                      -8.394434            3.474753             -5.066151
| 37>   H                      -8.746984            3.268596             -4.163043
| 38>   H                      -6.908455            2.024404             -4.832031
| 39>   H                      -8.242513            1.688588             -6.000919
| 40>   H                      -7.027775            2.828739             -6.512241
| 41>   C                    : -11.246257           4.690061             -5.507770
| 42>   O                    : -11.667383           5.099352             -6.767872
| 43>   H                    : -10.915478           4.982300             -7.343913
| 44>   H                    : -10.329714           5.154487             -5.161061
| 45>   H                    : -11.975830           4.830696             -4.695046
| 46>   H                    : -10.984927           3.649927             -5.510068
| 47> *
| 48>
| 49> #Run DFT-D3 single point of the particle with dimer basis set
| 50> $new_job
| 51> %base "14-110_DFT_B"
| 52> ! wB97X-D3 def2-TZVP TIGHTSCF CHELPG PMODEL
| 53>
| 54> %scf
| 55> MaxIter 1000
| 56> end
| 57>
| 58> * xyz 0 1
| 59>   C                    : -7.605909            2.443021             -5.622041
| 60>   O                    : -8.394434            3.474753             -5.066151
| 61>   H                    : -8.746984            3.268596             -4.163043
| 62>   H                    : -6.908455            2.024404             -4.832031
| 63>   H                    : -8.242513            1.688588             -6.000919
| 64>   H                    : -7.027775            2.828739             -6.512241
| 65>   C                      -11.246257           4.690061             -5.507770
| 66>   O                      -11.667383           5.099352             -6.767872
| 67>   H                      -10.915478           4.982300             -7.343913
| 68>   H                      -10.329714           5.154487             -5.161061
| 69>   H                      -11.975830           4.830696             -4.695046
| 70>   H                      -10.984927           3.649927             -5.510068
| 71> *
| 72>
| 73>                          ****END OF INPUT****
 Total Charge           Charge          ....    0
 Multiplicity           Mult            ....    1
 Number of Electrons    NEL             ....   36
Dispersion correction           -0.001754350
FINAL SINGLE POINT ENERGY      -231.466333762110
Dispersion correction           -0.000251405
FINAL SINGLE POINT ENERGY      -115.731953567109

CARTESIAN COORDINATES (ANGSTROEM)
---------------------------------
  C     -7.605909    2.443021   -5.622041
  O     -8.394434    3.474753   -5.066151
  H     -8.746984    3.268596   -4.163043
  H     -6.908455    2.024404   -4.832031
  H     -8.242513    1.688588   -6.000919
  H     -7.027775    2.828739   -6.512241
  C    -11.246257    4.690061   -5.507770
  O    -11.667383    5.099352   -6.767872
  H    -10.915478    4.982300   -7.343913
  H    -10.329714    5.154487   -5.161061
  H    -11.975830    4.830696   -4.695046
  H    -10.984927    3.649927   -5.510068

 Multiplicity           Mult            ....    1
 Number of Electrons    NEL             ....   18
 Basis Dimension        Dim             ....  172

ORBITAL ENERGIES
----------------

  NO   OCC          E(Eh)            E(eV)
   0   2.0000     -19.232890      -523.3535
   1   2.0000     -10.308081      -280.4971
   2   2.0000      -1.147541       -31.2262
   3   2.0000      -0.797674       -21.7058
   4   2.0000      -0.620848       -16.8941
   5   2.0000      -0.540748       -14.7145
   6   2.0000      -0.532837       -14.4992
   7   2.0000      -0.437142       -11.8952
   8   2.0000      -0.371980       -10.1221
   9   0.0000       0.077171         2.0999
  10   0.0000       0.120313         3.2739
  11   0.0000       0.142912         3.8888
  12   0.0000       0.177770         4.8374
  13   0.0000       0.184431         5.0186

MULLIKEN ATOMIC CHARGES
-----------------------
   0 C :    0.000027
   1 O :   -0.002748
   2 H :   -0.000486
   3 H :    0.000041
   4 H :   -0.000428
   5 H :   -0.000015
   6 C :   -0.159167
   7 O :   -0.460169
   8 H :    0.315643
   9 H :    0.093377
  10 H :    0.116628
  11 H :    0.097294
Sum of atomic charges:    0.0000000

LOEWDIN ATOMIC CHARGES
----------------------
   0 C :   -0.001073
   1 O :   -0.008738
   2 H :   -0.003044
   3 H :   -0.000010
   4 H :   -0.000229
   5 H :   -0.000022
   6 C :   -0.403013
   7 O :   -0.051064
   8 H :    0.171224
   9 H :    0.093456
  10 H :    0.110666
  11 H :    0.091847

  Mayer bond orders larger than 0.1
B(  6-C ,  7-O ) :   1.0059 B(  6-C ,  9-H ) :   0.9774 B(  6-C , 10-H ) :   0.9684
B(  6-C , 11-H ) :   0.9821 B(  7-O ,  8-H ) :   0.8991

Dispersion correction           -0.000225554
FINAL SINGLE POINT ENERGY      -115.733453676712

DIPOLE MOMENT
-------------
                                X             Y             Z
Electronic contribution:     -0.78519       0.64780      -1.67930
Nuclear contribution   :      1.42455      -0.88096       1.79527
                        -----------------------------------------
Total Dipole Moment    :      0.63936      -0.23316       0.11596
                        -----------------------------------------
Magnitude (a.u.)       :      0.69036
Magnitude (Debye)      :      1.75475

Rotational constants in cm-1:     4.486263     0.851525     0.813605
Rotational constants in MHz : 134494.767527 25528.087112 24391.277354

                             ****ORCA TERMINATED NORMALLY****
TOTAL RUN TIME: 0 days 0 hours 0 minutes 57 seconds 930 msec
