                         Program Version 4.1.2  - RELEASE  -
|  1> #Run DFT-D3 single point of the dimer
|  2> ! wB97X-D3 def2-TZVP TIGHTSCF CHELPG PMODEL PAL8
|  3>
|  4> %base "15-73_DFT_AB"
|  5>
|  6> %scf
|  7> MaxIter 1000
|  8> end
|  9>
| 10> * xyz 0 1
| 11>   C                      0.395747             0.499302             3.166637
| 12>   O                      -0.741435            1.109411             2.820772
| 13>   H                      -1.443136            0.800324             3.428644
| 14>   H                      0.572906             0.753819             4.234277
| 15>   H                      0.320529             -0.597235            3.056164
| 16>   H                      1.203881             0.845296             2.442496
| 17>   C                      -3.965883            2.048784             1.559939
| 18>   O                      -4.866182            2.913644             0.896219
| 19>   H                      -4.545150            3.804829             0.903590
| 20>   H                      -2.981201            2.397897             1.317964
| 21>   H                      -4.019442            2.084970             2.665880
| 22>   H                      -4.032542            0.968432             1.362334
| 23> *
| 24>
| 25> #Run DFT-D3 single point of the molecule with dimer basis set
| 26> $new_job
| 27> %base "15-73_DFT_A"
| 28> ! wB97X-D3 def2-TZVP TIGHTSCF CHELPG PMODEL
| 29>
| 30> %scf
| 31> MaxIter 1000
| 32> end
| 33>
| 34> * xyz 0 1
| 35>   C                      0.395747             0.499302             3.166637
| 36>   O                      -0.741435            1.109411             2.820772
| 37>   H                      -1.443136            0.800324             3.428644
| 38>   H                      0.572906             0.753819             4.234277
| 39>   H                      0.320529             -0.597235            3.056164
| 40>   H                      1.203881             0.845296             2.442496
| 41>   C                    : -3.965883            2.048784             1.559939
| 42>   O                    : -4.866182            2.913644             0.896219
| 43>   H                    : -4.545150            3.804829             0.903590
| 44>   H                    : -2.981201            2.397897             1.317964
| 45>   H                    : -4.019442            2.084970             2.665880
| 46>   H                    : -4.032542            0.968432             1.362334
| 47> *
| 48>
| 49> #Run DFT-D3 single point of the particle with dimer basis set
| 50> $new_job
| 51> %base "15-73_DFT_B"
| 52> ! wB97X-D3 def2-TZVP TIGHTSCF CHELPG PMODEL
| 53>
| 54> %scf
| 55> MaxIter 1000
| 56> end
| 57>
| 58> * xyz 0 1
| 59>   C                    : 0.395747             0.499302             3.166637
| 60>   O                    : -0.741435            1.109411             2.820772
| 61>   H                    : -1.443136            0.800324             3.428644
| 62>   H                    : 0.572906             0.753819             4.234277
| 63>   H                    : 0.320529             -0.597235            3.056164
| 64>   H                    : 1.203881             0.845296             2.442496
| 65>   C                      -3.965883            2.048784             1.559939
| 66>   O                      -4.866182            2.913644             0.896219
| 67>   H                      -4.545150            3.804829             0.903590
| 68>   H                      -2.981201            2.397897             1.317964
| 69>   H                      -4.019442            2.084970             2.665880
| 70>   H                      -4.032542            0.968432             1.362334
| 71> *
| 72>
| 73>                          ****END OF INPUT****
 Total Charge           Charge          ....    0
 Multiplicity           Mult            ....    1
 Number of Electrons    NEL             ....   36
Dispersion correction           -0.001311440
FINAL SINGLE POINT ENERGY      -231.460096119907
Dispersion correction           -0.000199292
FINAL SINGLE POINT ENERGY      -115.728355040562

CARTESIAN COORDINATES (ANGSTROEM)
---------------------------------
  C      0.395747    0.499302    3.166637
  O     -0.741435    1.109411    2.820772
  H     -1.443136    0.800324    3.428644
  H      0.572906    0.753819    4.234277
  H      0.320529   -0.597235    3.056164
  H      1.203881    0.845296    2.442496
  C     -3.965883    2.048784    1.559939
  O     -4.866182    2.913644    0.896219
  H     -4.545150    3.804829    0.903590
  H     -2.981201    2.397897    1.317964
  H     -4.019442    2.084970    2.665880
  H     -4.032542    0.968432    1.362334

 Multiplicity           Mult            ....    1
 Number of Electrons    NEL             ....   18
 Basis Dimension        Dim             ....  172

ORBITAL ENERGIES
----------------

  NO   OCC          E(Eh)            E(eV)
   0   2.0000     -19.229081      -523.2499
   1   2.0000     -10.314346      -280.6676
   2   2.0000      -1.137782       -30.9606
   3   2.0000      -0.799307       -21.7502
   4   2.0000      -0.615675       -16.7534
   5   2.0000      -0.544387       -14.8135
   6   2.0000      -0.528012       -14.3679
   7   2.0000      -0.428739       -11.6666
   8   2.0000      -0.371652       -10.1132
   9   0.0000       0.082111         2.2344
  10   0.0000       0.116083         3.1588
  11   0.0000       0.136173         3.7055
  12   0.0000       0.180894         4.9224
  13   0.0000       0.189501         5.1566

MULLIKEN ATOMIC CHARGES
-----------------------
   0 C :   -0.000366
   1 O :   -0.000323
   2 H :   -0.000312
   3 H :    0.000002
   4 H :    0.000011
   5 H :    0.000013
   6 C :   -0.167133
   7 O :   -0.476567
   8 H :    0.318634
   9 H :    0.101509
  10 H :    0.098398
  11 H :    0.126135
Sum of atomic charges:   -0.0000000

LOEWDIN ATOMIC CHARGES
----------------------
   0 C :   -0.000162
   1 O :   -0.001684
   2 H :   -0.001085
   3 H :   -0.000004
   4 H :   -0.000004
   5 H :   -0.000006
   6 C :   -0.387017
   7 O :   -0.070731
   8 H :    0.162362
   9 H :    0.092076
  10 H :    0.095881
  11 H :    0.110375

  Mayer bond orders larger than 0.1
B(  6-C ,  7-O ) :   1.0001 B(  6-C ,  9-H ) :   0.9932 B(  6-C , 10-H ) :   0.9706
B(  6-C , 11-H ) :   0.9692 B(  7-O ,  8-H ) :   0.8971

Dispersion correction           -0.000250009
FINAL SINGLE POINT ENERGY      -115.730509651739

DIPOLE MOMENT
-------------
                                X             Y             Z
Electronic contribution:     -1.32641       0.97350      -0.98613
Nuclear contribution   :      1.91406      -0.74450       1.24695
                        -----------------------------------------
Total Dipole Moment    :      0.58764       0.22899       0.26083
                        -----------------------------------------
Magnitude (a.u.)       :      0.68249
Magnitude (Debye)      :      1.73475

Rotational constants in cm-1:     4.517805     0.820260     0.789768
Rotational constants in MHz : 135440.400559 24590.770858 23676.634440

                             ****ORCA TERMINATED NORMALLY****
TOTAL RUN TIME: 0 days 0 hours 1 minutes 1 seconds 584 msec
