                         Program Version 4.1.2  - RELEASE  -
|  1> #Run DFT-D3 single point of the dimer
|  2> ! wB97X-D3 def2-TZVP TIGHTSCF CHELPG PMODEL PAL8
|  3>
|  4> %base "8-25_DFT_AB"
|  5>
|  6> %scf
|  7> MaxIter 1000
|  8> end
|  9>
| 10> * xyz 0 1
| 11>   C                      1.242681             -1.490844            -1.242399
| 12>   O                      2.017750             -2.223303            -0.392427
| 13>   H                      2.854270             -2.385998            -0.915143
| 14>   H                      0.235646             -1.382705            -0.890573
| 15>   H                      1.563453             -0.460555            -1.422829
| 16>   H                      1.015853             -1.921014            -2.215583
| 17>   C                      -1.927420            -4.681478            -0.819635
| 18>   O                      -1.601244            -3.450223            -0.213688
| 19>   H                      -0.920131            -3.522494            0.448102
| 20>   H                      -0.976342            -5.266866            -0.868850
| 21>   H                      -2.627015            -5.271775            -0.204945
| 22>   H                      -2.341092            -4.634469            -1.832706
| 23> *
| 24>
| 25> #Run DFT-D3 single point of the molecule with dimer basis set
| 26> $new_job
| 27> %base "8-25_DFT_A"
| 28> ! wB97X-D3 def2-TZVP TIGHTSCF CHELPG PMODEL
| 29>
| 30> %scf
| 31> MaxIter 1000
| 32> end
| 33>
| 34> * xyz 0 1
| 35>   C                      1.242681             -1.490844            -1.242399
| 36>   O                      2.017750             -2.223303            -0.392427
| 37>   H                      2.854270             -2.385998            -0.915143
| 38>   H                      0.235646             -1.382705            -0.890573
| 39>   H                      1.563453             -0.460555            -1.422829
| 40>   H                      1.015853             -1.921014            -2.215583
| 41>   C                    : -1.927420            -4.681478            -0.819635
| 42>   O                    : -1.601244            -3.450223            -0.213688
| 43>   H                    : -0.920131            -3.522494            0.448102
| 44>   H                    : -0.976342            -5.266866            -0.868850
| 45>   H                    : -2.627015            -5.271775            -0.204945
| 46>   H                    : -2.341092            -4.634469            -1.832706
| 47> *
| 48>
| 49> #Run DFT-D3 single point of the particle with dimer basis set
| 50> $new_job
| 51> %base "8-25_DFT_B"
| 52> ! wB97X-D3 def2-TZVP TIGHTSCF CHELPG PMODEL
| 53>
| 54> %scf
| 55> MaxIter 1000
| 56> end
| 57>
| 58> * xyz 0 1
| 59>   C                    : 1.242681             -1.490844            -1.242399
| 60>   O                    : 2.017750             -2.223303            -0.392427
| 61>   H                    : 2.854270             -2.385998            -0.915143
| 62>   H                    : 0.235646             -1.382705            -0.890573
| 63>   H                    : 1.563453             -0.460555            -1.422829
| 64>   H                    : 1.015853             -1.921014            -2.215583
| 65>   C                      -1.927420            -4.681478            -0.819635
| 66>   O                      -1.601244            -3.450223            -0.213688
| 67>   H                      -0.920131            -3.522494            0.448102
| 68>   H                      -0.976342            -5.266866            -0.868850
| 69>   H                      -2.627015            -5.271775            -0.204945
| 70>   H                      -2.341092            -4.634469            -1.832706
| 71> *
| 72>
| 73>                          ****END OF INPUT****
 Total Charge           Charge          ....    0
 Multiplicity           Mult            ....    1
 Number of Electrons    NEL             ....   36
Dispersion correction           -0.001549422
FINAL SINGLE POINT ENERGY      -231.465457768996
Dispersion correction           -0.000235095
FINAL SINGLE POINT ENERGY      -115.729807955172

CARTESIAN COORDINATES (ANGSTROEM)
---------------------------------
  C      1.242681   -1.490844   -1.242399
  O      2.017750   -2.223303   -0.392427
  H      2.854270   -2.385998   -0.915143
  H      0.235646   -1.382705   -0.890573
  H      1.563453   -0.460555   -1.422829
  H      1.015853   -1.921014   -2.215583
  C     -1.927420   -4.681478   -0.819635
  O     -1.601244   -3.450223   -0.213688
  H     -0.920131   -3.522494    0.448102
  H     -0.976342   -5.266866   -0.868850
  H     -2.627015   -5.271775   -0.204945
  H     -2.341092   -4.634469   -1.832706

 Multiplicity           Mult            ....    1
 Number of Electrons    NEL             ....   18
 Basis Dimension        Dim             ....  172

ORBITAL ENERGIES
----------------

  NO   OCC          E(Eh)            E(eV)
   0   2.0000     -19.228215      -523.2263
   1   2.0000     -10.318472      -280.7799
   2   2.0000      -1.136018       -30.9126
   3   2.0000      -0.796589       -21.6763
   4   2.0000      -0.612989       -16.6803
   5   2.0000      -0.537875       -14.6363
   6   2.0000      -0.536840       -14.6082
   7   2.0000      -0.422990       -11.5101
   8   2.0000      -0.372102       -10.1254
   9   0.0000       0.085259         2.3200
  10   0.0000       0.124939         3.3998
  11   0.0000       0.149842         4.0774
  12   0.0000       0.169972         4.6252
  13   0.0000       0.200296         5.4503

MULLIKEN ATOMIC CHARGES
-----------------------
   0 C :   -0.004674
   1 O :    0.000587
   2 H :    0.000029
   3 H :   -0.005064
   4 H :   -0.000551
   5 H :    0.000243
   6 C :   -0.161579
   7 O :   -0.477903
   8 H :    0.322407
   9 H :    0.100300
  10 H :    0.100752
  11 H :    0.125454
Sum of atomic charges:   -0.0000000

LOEWDIN ATOMIC CHARGES
----------------------
   0 C :   -0.006545
   1 O :   -0.000370
   2 H :   -0.000025
   3 H :   -0.006161
   4 H :   -0.000104
   5 H :   -0.000508
   6 C :   -0.387439
   7 O :   -0.066517
   8 H :    0.164921
   9 H :    0.100518
  10 H :    0.094873
  11 H :    0.107357

  Mayer bond orders larger than 0.1
B(  6-C ,  7-O ) :   0.9921 B(  6-C ,  9-H ) :   0.9900 B(  6-C , 10-H ) :   0.9709
B(  6-C , 11-H ) :   0.9690 B(  7-O ,  8-H ) :   0.8922

Dispersion correction           -0.000250231
FINAL SINGLE POINT ENERGY      -115.732751887679

DIPOLE MOMENT
-------------
                                X             Y             Z
Electronic contribution:      0.22655       1.71240       0.63809
Nuclear contribution   :      0.08393      -2.27314      -0.45869
                        -----------------------------------------
Total Dipole Moment    :      0.31047      -0.56074       0.17940
                        -----------------------------------------
Magnitude (a.u.)       :      0.66559
Magnitude (Debye)      :      1.69179

Rotational constants in cm-1:     4.359020     0.822935     0.795695
Rotational constants in MHz : 130680.121596 24670.967634 23854.336796

                             ****ORCA TERMINATED NORMALLY****
TOTAL RUN TIME: 0 days 0 hours 0 minutes 43 seconds 102 msec
