                         Program Version 4.1.2  - RELEASE  -
|  1> #Run DFT-D3 single point of the dimer
|  2> ! wB97X-D3 def2-TZVP TIGHTSCF CHELPG PMODEL PAL8
|  3>
|  4> %base "9-209_DFT_AB"
|  5>
|  6> %scf
|  7> MaxIter 1000
|  8> end
|  9>
| 10> * xyz 0 1
| 11>   C                      4.706203             3.239788             0.780180
| 12>   O                      4.902455             3.772127             -0.475501
| 13>   H                      5.840434             3.599339             -0.761379
| 14>   H                      5.637058             3.269896             1.351008
| 15>   H                      3.858075             3.700776             1.224186
| 16>   H                      4.302059             2.223933             0.724914
| 17>   C                      8.440851             4.101556             -1.792450
| 18>   O                      7.899929             3.599774             -0.570047
| 19>   H                      8.574306             3.057650             -0.195285
| 20>   H                      9.545632             4.229841             -1.805738
| 21>   H                      8.330681             3.390921             -2.631952
| 22>   H                      8.075778             5.093911             -2.047035
| 23> *
| 24>
| 25> #Run DFT-D3 single point of the molecule with dimer basis set
| 26> $new_job
| 27> %base "9-209_DFT_A"
| 28> ! wB97X-D3 def2-TZVP TIGHTSCF CHELPG PMODEL
| 29>
| 30> %scf
| 31> MaxIter 1000
| 32> end
| 33>
| 34> * xyz 0 1
| 35>   C                      4.706203             3.239788             0.780180
| 36>   O                      4.902455             3.772127             -0.475501
| 37>   H                      5.840434             3.599339             -0.761379
| 38>   H                      5.637058             3.269896             1.351008
| 39>   H                      3.858075             3.700776             1.224186
| 40>   H                      4.302059             2.223933             0.724914
| 41>   C                    : 8.440851             4.101556             -1.792450
| 42>   O                    : 7.899929             3.599774             -0.570047
| 43>   H                    : 8.574306             3.057650             -0.195285
| 44>   H                    : 9.545632             4.229841             -1.805738
| 45>   H                    : 8.330681             3.390921             -2.631952
| 46>   H                    : 8.075778             5.093911             -2.047035
| 47> *
| 48>
| 49> #Run DFT-D3 single point of the particle with dimer basis set
| 50> $new_job
| 51> %base "9-209_DFT_B"
| 52> ! wB97X-D3 def2-TZVP TIGHTSCF CHELPG PMODEL
| 53>
| 54> %scf
| 55> MaxIter 1000
| 56> end
| 57>
| 58> * xyz 0 1
| 59>   C                    : 4.706203             3.239788             0.780180
| 60>   O                    : 4.902455             3.772127             -0.475501
| 61>   H                    : 5.840434             3.599339             -0.761379
| 62>   H                    : 5.637058             3.269896             1.351008
| 63>   H                    : 3.858075             3.700776             1.224186
| 64>   H                    : 4.302059             2.223933             0.724914
| 65>   C                      8.440851             4.101556             -1.792450
| 66>   O                      7.899929             3.599774             -0.570047
| 67>   H                      8.574306             3.057650             -0.195285
| 68>   H                      9.545632             4.229841             -1.805738
| 69>   H                      8.330681             3.390921             -2.631952
| 70>   H                      8.075778             5.093911             -2.047035
| 71> *
| 72>
| 73>                          ****END OF INPUT****
 Total Charge           Charge          ....    0
 Multiplicity           Mult            ....    1
 Number of Electrons    NEL             ....   36
Dispersion correction           -0.001718042
FINAL SINGLE POINT ENERGY      -231.470500833776
Dispersion correction           -0.000227306
FINAL SINGLE POINT ENERGY      -115.729893905136

CARTESIAN COORDINATES (ANGSTROEM)
---------------------------------
  C      4.706203    3.239788    0.780180
  O      4.902455    3.772127   -0.475501
  H      5.840434    3.599339   -0.761379
  H      5.637058    3.269896    1.351008
  H      3.858075    3.700776    1.224186
  H      4.302059    2.223933    0.724914
  C      8.440851    4.101556   -1.792450
  O      7.899929    3.599774   -0.570047
  H      8.574306    3.057650   -0.195285
  H      9.545632    4.229841   -1.805738
  H      8.330681    3.390921   -2.631952
  H      8.075778    5.093911   -2.047035

 Multiplicity           Mult            ....    1
 Number of Electrons    NEL             ....   18
 Basis Dimension        Dim             ....  172

ORBITAL ENERGIES
----------------

  NO   OCC          E(Eh)            E(eV)
   0   2.0000     -19.234423      -523.3953
   1   2.0000     -10.317802      -280.7617
   2   2.0000      -1.139445       -31.0059
   3   2.0000      -0.797743       -21.7077
   4   2.0000      -0.615686       -16.7537
   5   2.0000      -0.540947       -14.7199
   6   2.0000      -0.519850       -14.1458
   7   2.0000      -0.439425       -11.9574
   8   2.0000      -0.376738       -10.2516
   9   0.0000       0.102106         2.7784
  10   0.0000       0.124027         3.3750
  11   0.0000       0.148812         4.0494
  12   0.0000       0.186347         5.0708
  13   0.0000       0.201266         5.4767

MULLIKEN ATOMIC CHARGES
-----------------------
   0 C :    0.002239
   1 O :   -0.000032
   2 H :   -0.005092
   3 H :   -0.004091
   4 H :   -0.000151
   5 H :   -0.000176
   6 C :   -0.182331
   7 O :   -0.457543
   8 H :    0.312533
   9 H :    0.106451
  10 H :    0.105639
  11 H :    0.122553
Sum of atomic charges:    0.0000000

LOEWDIN ATOMIC CHARGES
----------------------
   0 C :   -0.004788
   1 O :   -0.002827
   2 H :   -0.027435
   3 H :   -0.002775
   4 H :   -0.000046
   5 H :   -0.000053
   6 C :   -0.381932
   7 O :   -0.044063
   8 H :    0.159738
   9 H :    0.100470
  10 H :    0.097876
  11 H :    0.105835

  Mayer bond orders larger than 0.1
B(  6-C ,  7-O ) :   0.9967 B(  6-C ,  9-H ) :   0.9720 B(  6-C , 10-H ) :   0.9723
B(  6-C , 11-H ) :   0.9753 B(  7-O ,  8-H ) :   0.9021

Dispersion correction           -0.000259508
FINAL SINGLE POINT ENERGY      -115.732718791123

DIPOLE MOMENT
-------------
                                X             Y             Z
Electronic contribution:     -0.95180      -0.55000       1.64134
Nuclear contribution   :      1.63495       0.41693      -1.88000
                        -----------------------------------------
Total Dipole Moment    :      0.68315      -0.13307      -0.23866
                        -----------------------------------------
Magnitude (a.u.)       :      0.73577
Magnitude (Debye)      :      1.87018

Rotational constants in cm-1:     4.386345     0.808737     0.780491
Rotational constants in MHz : 131499.306465 24245.335217 23398.545140

                             ****ORCA TERMINATED NORMALLY****
TOTAL RUN TIME: 0 days 0 hours 0 minutes 43 seconds 797 msec
