                         Program Version 4.1.2  - RELEASE  -
|  1> #Run DFT-D3 single point of the dimer
|  2> ! wB97X-D3 def2-TZVP TIGHTSCF CHELPG PMODEL PAL8
|  3>
|  4> %base "13-187_DFT_AB"
|  5>
|  6> %scf
|  7> MaxIter 1000
|  8> end
|  9>
| 10> * xyz 0 1
| 11>   C                      1.910665             -7.406347            -1.538785
| 12>   O                      2.346387             -8.085483            -0.372654
| 13>   H                      1.583944             -8.353732            0.133408
| 14>   H                      1.126425             -6.632266            -1.441613
| 15>   H                      2.766215             -6.993816            -2.162697
| 16>   H                      1.572978             -8.172519            -2.191011
| 17>   C                      4.431725             -7.665055            2.090697
| 18>   O                      3.952023             -6.491349            1.410912
| 19>   H                      3.328230             -6.798843            0.777364
| 20>   H                      4.780630             -7.528567            3.165821
| 21>   H                      3.676790             -8.425385            2.224436
| 22>   H                      5.257846             -8.104573            1.525051
| 23> *
| 24>
| 25> #Run DFT-D3 single point of the molecule with dimer basis set
| 26> $new_job
| 27> %base "13-187_DFT_A"
| 28> ! wB97X-D3 def2-TZVP TIGHTSCF CHELPG PMODEL
| 29>
| 30> %scf
| 31> MaxIter 1000
| 32> end
| 33>
| 34> * xyz 0 1
| 35>   C                      1.910665             -7.406347            -1.538785
| 36>   O                      2.346387             -8.085483            -0.372654
| 37>   H                      1.583944             -8.353732            0.133408
| 38>   H                      1.126425             -6.632266            -1.441613
| 39>   H                      2.766215             -6.993816            -2.162697
| 40>   H                      1.572978             -8.172519            -2.191011
| 41>   C                    : 4.431725             -7.665055            2.090697
| 42>   O                    : 3.952023             -6.491349            1.410912
| 43>   H                    : 3.328230             -6.798843            0.777364
| 44>   H                    : 4.780630             -7.528567            3.165821
| 45>   H                    : 3.676790             -8.425385            2.224436
| 46>   H                    : 5.257846             -8.104573            1.525051
| 47> *
| 48>
| 49> #Run DFT-D3 single point of the particle with dimer basis set
| 50> $new_job
| 51> %base "13-187_DFT_B"
| 52> ! wB97X-D3 def2-TZVP TIGHTSCF CHELPG PMODEL
| 53>
| 54> %scf
| 55> MaxIter 1000
| 56> end
| 57>
| 58> * xyz 0 1
| 59>   C                    : 1.910665             -7.406347            -1.538785
| 60>   O                    : 2.346387             -8.085483            -0.372654
| 61>   H                    : 1.583944             -8.353732            0.133408
| 62>   H                    : 1.126425             -6.632266            -1.441613
| 63>   H                    : 2.766215             -6.993816            -2.162697
| 64>   H                    : 1.572978             -8.172519            -2.191011
| 65>   C                      4.431725             -7.665055            2.090697
| 66>   O                      3.952023             -6.491349            1.410912
| 67>   H                      3.328230             -6.798843            0.777364
| 68>   H                      4.780630             -7.528567            3.165821
| 69>   H                      3.676790             -8.425385            2.224436
| 70>   H                      5.257846             -8.104573            1.525051
| 71> *
| 72>
| 73>                          ****END OF INPUT****
 Total Charge           Charge          ....    0
 Multiplicity           Mult            ....    1
 Number of Electrons    NEL             ....   36
Dispersion correction           -0.001912036
FINAL SINGLE POINT ENERGY      -231.468945443361
Dispersion correction           -0.000253578
FINAL SINGLE POINT ENERGY      -115.729939006123

CARTESIAN COORDINATES (ANGSTROEM)
---------------------------------
  C      1.910665   -7.406347   -1.538785
  O      2.346387   -8.085483   -0.372654
  H      1.583944   -8.353732    0.133408
  H      1.126425   -6.632266   -1.441613
  H      2.766215   -6.993816   -2.162697
  H      1.572978   -8.172519   -2.191011
  C      4.431725   -7.665055    2.090697
  O      3.952023   -6.491349    1.410912
  H      3.328230   -6.798843    0.777364
  H      4.780630   -7.528567    3.165821
  H      3.676790   -8.425385    2.224436
  H      5.257846   -8.104573    1.525051

 Multiplicity           Mult            ....    1
 Number of Electrons    NEL             ....   18
 Basis Dimension        Dim             ....  172

ORBITAL ENERGIES
----------------

  NO   OCC          E(Eh)            E(eV)
   0   2.0000     -19.232273      -523.3368
   1   2.0000     -10.319102      -280.7970
   2   2.0000      -1.135745       -30.9052
   3   2.0000      -0.796875       -21.6841
   4   2.0000      -0.610849       -16.6221
   5   2.0000      -0.541502       -14.7350
   6   2.0000      -0.521532       -14.1916
   7   2.0000      -0.433827       -11.8050
   8   2.0000      -0.377991       -10.2857
   9   0.0000       0.069128         1.8811
  10   0.0000       0.130081         3.5397
  11   0.0000       0.151828         4.1315
  12   0.0000       0.163964         4.4617
  13   0.0000       0.189468         5.1557

MULLIKEN ATOMIC CHARGES
-----------------------
   0 C :   -0.000949
   1 O :   -0.004932
   2 H :   -0.000338
   3 H :   -0.000139
   4 H :   -0.000396
   5 H :    0.000006
   6 C :   -0.182566
   7 O :   -0.464398
   8 H :    0.313194
   9 H :    0.118936
  10 H :    0.111619
  11 H :    0.109963
Sum of atomic charges:    0.0000000

LOEWDIN ATOMIC CHARGES
----------------------
   0 C :   -0.004971
   1 O :   -0.017085
   2 H :   -0.001843
   3 H :   -0.000168
   4 H :   -0.000411
   5 H :   -0.000102
   6 C :   -0.373702
   7 O :   -0.070905
   8 H :    0.163052
   9 H :    0.115941
  10 H :    0.093087
  11 H :    0.097106

  Mayer bond orders larger than 0.1
B(  6-C ,  7-O ) :   0.9911 B(  6-C ,  9-H ) :   0.9700 B(  6-C , 10-H ) :   0.9776
B(  6-C , 11-H ) :   0.9783 B(  7-O ,  8-H ) :   0.9139

Dispersion correction           -0.000260129
FINAL SINGLE POINT ENERGY      -115.731426224399

DIPOLE MOMENT
-------------
                                X             Y             Z
Electronic contribution:     -0.55716       1.66505      -0.83641
Nuclear contribution   :      0.33515      -2.35216       0.71947
                        -----------------------------------------
Total Dipole Moment    :     -0.22202      -0.68712      -0.11694
                        -----------------------------------------
Magnitude (a.u.)       :      0.73151
Magnitude (Debye)      :      1.85934

Rotational constants in cm-1:     4.386250     0.795735     0.774028
Rotational constants in MHz : 131496.481178 23855.528343 23204.775449

                             ****ORCA TERMINATED NORMALLY****
TOTAL RUN TIME: 0 days 0 hours 1 minutes 6 seconds 918 msec
