                         Program Version 4.1.2  - RELEASE  -
|  1> #Run DFT-D3 single point of the dimer
|  2> ! wB97X-D3 def2-TZVP TIGHTSCF CHELPG PMODEL PAL8
|  3>
|  4> %base "5-192_DFT_AB"
|  5>
|  6> %scf
|  7> MaxIter 1000
|  8> end
|  9>
| 10> * xyz 0 1
| 11>   C                      9.232826             7.132321             -7.033316
| 12>   O                      10.592627            7.419423             -6.848917
| 13>   H                      10.680403            8.235310             -6.330198
| 14>   H                      8.796829             7.760952             -7.816381
| 15>   H                      9.160430             6.058070             -7.413036
| 16>   H                      8.596397             7.211376             -6.145535
| 17>   C                      10.113427            10.935619            -6.481662
| 18>   O                      10.630876            10.295021            -5.295632
| 19>   H                      10.413318            10.834888            -4.519883
| 20>   H                      9.238122             11.581264            -6.278384
| 21>   H                      10.971074            11.496609            -6.993023
| 22>   H                      9.793802             10.043394            -7.079421
| 23> *
| 24>
| 25> #Run DFT-D3 single point of the molecule with dimer basis set
| 26> $new_job
| 27> %base "5-192_DFT_A"
| 28> ! wB97X-D3 def2-TZVP TIGHTSCF CHELPG PMODEL
| 29>
| 30> %scf
| 31> MaxIter 1000
| 32> end
| 33>
| 34> * xyz 0 1
| 35>   C                      9.232826             7.132321             -7.033316
| 36>   O                      10.592627            7.419423             -6.848917
| 37>   H                      10.680403            8.235310             -6.330198
| 38>   H                      8.796829             7.760952             -7.816381
| 39>   H                      9.160430             6.058070             -7.413036
| 40>   H                      8.596397             7.211376             -6.145535
| 41>   C                    : 10.113427            10.935619            -6.481662
| 42>   O                    : 10.630876            10.295021            -5.295632
| 43>   H                    : 10.413318            10.834888            -4.519883
| 44>   H                    : 9.238122             11.581264            -6.278384
| 45>   H                    : 10.971074            11.496609            -6.993023
| 46>   H                    : 9.793802             10.043394            -7.079421
| 47> *
| 48>
| 49> #Run DFT-D3 single point of the particle with dimer basis set
| 50> $new_job
| 51> %base "5-192_DFT_B"
| 52> ! wB97X-D3 def2-TZVP TIGHTSCF CHELPG PMODEL
| 53>
| 54> %scf
| 55> MaxIter 1000
| 56> end
| 57>
| 58> * xyz 0 1
| 59>   C                    : 9.232826             7.132321             -7.033316
| 60>   O                    : 10.592627            7.419423             -6.848917
| 61>   H                    : 10.680403            8.235310             -6.330198
| 62>   H                    : 8.796829             7.760952             -7.816381
| 63>   H                    : 9.160430             6.058070             -7.413036
| 64>   H                    : 8.596397             7.211376             -6.145535
| 65>   C                      10.113427            10.935619            -6.481662
| 66>   O                      10.630876            10.295021            -5.295632
| 67>   H                      10.413318            10.834888            -4.519883
| 68>   H                      9.238122             11.581264            -6.278384
| 69>   H                      10.971074            11.496609            -6.993023
| 70>   H                      9.793802             10.043394            -7.079421
| 71> *
| 72>
| 73>                          ****END OF INPUT****
 Total Charge           Charge          ....    0
 Multiplicity           Mult            ....    1
 Number of Electrons    NEL             ....   36
Dispersion correction           -0.001967173
FINAL SINGLE POINT ENERGY      -231.473436772537
Dispersion correction           -0.000253040
FINAL SINGLE POINT ENERGY      -115.735740525914

CARTESIAN COORDINATES (ANGSTROEM)
---------------------------------
  C      9.232826    7.132321   -7.033316
  O     10.592627    7.419423   -6.848917
  H     10.680403    8.235310   -6.330198
  H      8.796829    7.760952   -7.816381
  H      9.160430    6.058070   -7.413036
  H      8.596397    7.211376   -6.145535
  C     10.113427   10.935619   -6.481662
  O     10.630876   10.295021   -5.295632
  H     10.413318   10.834888   -4.519883
  H      9.238122   11.581264   -6.278384
  H     10.971074   11.496609   -6.993023
  H      9.793802   10.043394   -7.079421

 Multiplicity           Mult            ....    1
 Number of Electrons    NEL             ....   18
 Basis Dimension        Dim             ....  172

ORBITAL ENERGIES
----------------

  NO   OCC          E(Eh)            E(eV)
   0   2.0000     -19.228326      -523.2294
   1   2.0000     -10.324360      -280.9401
   2   2.0000      -1.124193       -30.5908
   3   2.0000      -0.787498       -21.4289
   4   2.0000      -0.603862       -16.4319
   5   2.0000      -0.536436       -14.5972
   6   2.0000      -0.513264       -13.9666
   7   2.0000      -0.435561       -11.8522
   8   2.0000      -0.371162       -10.0998
   9   0.0000       0.092920         2.5285
  10   0.0000       0.119353         3.2478
  11   0.0000       0.154420         4.2020
  12   0.0000       0.184260         5.0140
  13   0.0000       0.191251         5.2042

MULLIKEN ATOMIC CHARGES
-----------------------
   0 C :    0.001541
   1 O :   -0.000055
   2 H :   -0.002514
   3 H :   -0.001039
   4 H :    0.000071
   5 H :   -0.000928
   6 C :   -0.174650
   7 O :   -0.474435
   8 H :    0.308666
   9 H :    0.114749
  10 H :    0.110248
  11 H :    0.118345
Sum of atomic charges:   -0.0000000

LOEWDIN ATOMIC CHARGES
----------------------
   0 C :   -0.004687
   1 O :   -0.001718
   2 H :   -0.016599
   3 H :   -0.001888
   4 H :   -0.000023
   5 H :   -0.000326
   6 C :   -0.369260
   7 O :   -0.096272
   8 H :    0.167546
   9 H :    0.098590
  10 H :    0.107178
  11 H :    0.117457

  Mayer bond orders larger than 0.1
B(  6-C ,  7-O ) :   0.9935 B(  6-C ,  9-H ) :   0.9702 B(  6-C , 10-H ) :   0.9725
B(  6-C , 11-H ) :   0.9804 B(  7-O ,  8-H ) :   0.9012

Dispersion correction           -0.000264235
FINAL SINGLE POINT ENERGY      -115.731914144010

DIPOLE MOMENT
-------------
                                X             Y             Z
Electronic contribution:      0.62537      -0.77126       1.38140
Nuclear contribution   :     -0.99640       1.37074      -1.34807
                        -----------------------------------------
Total Dipole Moment    :     -0.37103       0.59948       0.03333
                        -----------------------------------------
Magnitude (a.u.)       :      0.70579
Magnitude (Debye)      :      1.79399

Rotational constants in cm-1:     3.981823     0.805569     0.781741
Rotational constants in MHz : 119372.042244 24150.355818 23436.017318

                             ****ORCA TERMINATED NORMALLY****
TOTAL RUN TIME: 0 days 0 hours 1 minutes 1 seconds 424 msec
