                         Program Version 4.1.2  - RELEASE  -
|  1> #Run DFT-D3 single point of the dimer
|  2> ! wB97X-D3 def2-TZVP TIGHTSCF CHELPG PMODEL PAL8
|  3>
|  4> %base "19-29_DFT_AB"
|  5>
|  6> %scf
|  7> MaxIter 1000
|  8> end
|  9>
| 10> * xyz 0 1
| 11>   C                      -9.778594            2.584819             -7.098236
| 12>   O                      -10.503116           3.623638             -6.480022
| 13>   H                      -10.501269           4.334988             -7.158476
| 14>   H                      -9.911806            2.435577             -8.131833
| 15>   H                      -8.678102            2.671316             -7.052734
| 16>   H                      -9.924804            1.624095             -6.681747
| 17>   C                      -7.813093            3.815094             -3.595980
| 18>   O                      -8.973304            4.465805             -3.233209
| 19>   H                      -9.505764            3.723539             -2.902711
| 20>   H                      -7.259391            3.521370             -2.695800
| 21>   H                      -8.012084            2.912106             -4.172752
| 22>   H                      -7.196577            4.471481             -4.184724
| 23> *
| 24>
| 25> #Run DFT-D3 single point of the molecule with dimer basis set
| 26> $new_job
| 27> %base "19-29_DFT_A"
| 28> ! wB97X-D3 def2-TZVP TIGHTSCF CHELPG PMODEL
| 29>
| 30> %scf
| 31> MaxIter 1000
| 32> end
| 33>
| 34> * xyz 0 1
| 35>   C                      -9.778594            2.584819             -7.098236
| 36>   O                      -10.503116           3.623638             -6.480022
| 37>   H                      -10.501269           4.334988             -7.158476
| 38>   H                      -9.911806            2.435577             -8.131833
| 39>   H                      -8.678102            2.671316             -7.052734
| 40>   H                      -9.924804            1.624095             -6.681747
| 41>   C                    : -7.813093            3.815094             -3.595980
| 42>   O                    : -8.973304            4.465805             -3.233209
| 43>   H                    : -9.505764            3.723539             -2.902711
| 44>   H                    : -7.259391            3.521370             -2.695800
| 45>   H                    : -8.012084            2.912106             -4.172752
| 46>   H                    : -7.196577            4.471481             -4.184724
| 47> *
| 48>
| 49> #Run DFT-D3 single point of the particle with dimer basis set
| 50> $new_job
| 51> %base "19-29_DFT_B"
| 52> ! wB97X-D3 def2-TZVP TIGHTSCF CHELPG PMODEL
| 53>
| 54> %scf
| 55> MaxIter 1000
| 56> end
| 57>
| 58> * xyz 0 1
| 59>   C                    : -9.778594            2.584819             -7.098236
| 60>   O                    : -10.503116           3.623638             -6.480022
| 61>   H                    : -10.501269           4.334988             -7.158476
| 62>   H                    : -9.911806            2.435577             -8.131833
| 63>   H                    : -8.678102            2.671316             -7.052734
| 64>   H                    : -9.924804            1.624095             -6.681747
| 65>   C                      -7.813093            3.815094             -3.595980
| 66>   O                      -8.973304            4.465805             -3.233209
| 67>   H                      -9.505764            3.723539             -2.902711
| 68>   H                      -7.259391            3.521370             -2.695800
| 69>   H                      -8.012084            2.912106             -4.172752
| 70>   H                      -7.196577            4.471481             -4.184724
| 71> *
| 72>
| 73>                          ****END OF INPUT****
 Total Charge           Charge          ....    0
 Multiplicity           Mult            ....    1
 Number of Electrons    NEL             ....   36
Dispersion correction           -0.001498893
FINAL SINGLE POINT ENERGY      -231.463027627723
Dispersion correction           -0.000251189
FINAL SINGLE POINT ENERGY      -115.728700896374

CARTESIAN COORDINATES (ANGSTROEM)
---------------------------------
  C     -9.778594    2.584819   -7.098236
  O    -10.503116    3.623638   -6.480022
  H    -10.501269    4.334988   -7.158476
  H     -9.911806    2.435577   -8.131833
  H     -8.678102    2.671316   -7.052734
  H     -9.924804    1.624095   -6.681747
  C     -7.813093    3.815094   -3.595980
  O     -8.973304    4.465805   -3.233209
  H     -9.505764    3.723539   -2.902711
  H     -7.259391    3.521370   -2.695800
  H     -8.012084    2.912106   -4.172752
  H     -7.196577    4.471481   -4.184724

 Multiplicity           Mult            ....    1
 Number of Electrons    NEL             ....   18
 Basis Dimension        Dim             ....  172

ORBITAL ENERGIES
----------------

  NO   OCC          E(Eh)            E(eV)
   0   2.0000     -19.232201      -523.3348
   1   2.0000     -10.307577      -280.4834
   2   2.0000      -1.150886       -31.3172
   3   2.0000      -0.790412       -21.5082
   4   2.0000      -0.616989       -16.7891
   5   2.0000      -0.547503       -14.8983
   6   2.0000      -0.531916       -14.4742
   7   2.0000      -0.440133       -11.9766
   8   2.0000      -0.370831       -10.0908
   9   0.0000       0.081628         2.2212
  10   0.0000       0.119758         3.2588
  11   0.0000       0.152985         4.1629
  12   0.0000       0.167537         4.5589
  13   0.0000       0.194490         5.2924

MULLIKEN ATOMIC CHARGES
-----------------------
   0 C :    0.002039
   1 O :   -0.000725
   2 H :   -0.000118
   3 H :    0.000058
   4 H :   -0.001103
   5 H :   -0.000634
   6 C :   -0.169366
   7 O :   -0.457892
   8 H :    0.315865
   9 H :    0.099353
  10 H :    0.099298
  11 H :    0.113225
Sum of atomic charges:    0.0000000

LOEWDIN ATOMIC CHARGES
----------------------
   0 C :   -0.001713
   1 O :   -0.001220
   2 H :   -0.000160
   3 H :   -0.000007
   4 H :   -0.000848
   5 H :   -0.000171
   6 C :   -0.415645
   7 O :   -0.054287
   8 H :    0.183580
   9 H :    0.094063
  10 H :    0.093027
  11 H :    0.103381

  Mayer bond orders larger than 0.1
B(  6-C ,  7-O ) :   0.9979 B(  6-C ,  9-H ) :   0.9782 B(  6-C , 10-H ) :   0.9800
B(  6-C , 11-H ) :   0.9762 B(  7-O ,  8-H ) :   0.9003

Dispersion correction           -0.000199809
FINAL SINGLE POINT ENERGY      -115.734051616773

DIPOLE MOMENT
-------------
                                X             Y             Z
Electronic contribution:     -1.47914       1.04485       0.38810
Nuclear contribution   :      1.57405      -1.73239      -0.32631
                        -----------------------------------------
Total Dipole Moment    :      0.09491      -0.68754       0.06180
                        -----------------------------------------
Magnitude (a.u.)       :      0.69681
Magnitude (Debye)      :      1.77114

Rotational constants in cm-1:     4.231538     0.879938     0.843226
Rotational constants in MHz : 126858.331172 26379.889568 25279.282812

                             ****ORCA TERMINATED NORMALLY****
TOTAL RUN TIME: 0 days 0 hours 0 minutes 53 seconds 515 msec
