                         Program Version 4.1.2  - RELEASE  -
|  1> #Run DFT-D3 single point of the dimer
|  2> ! wB97X-D3 def2-TZVP TIGHTSCF CHELPG PMODEL PAL8
|  3>
|  4> %base "21-165_DFT_AB"
|  5>
|  6> %scf
|  7> MaxIter 1000
|  8> end
|  9>
| 10> * xyz 0 1
| 11>   C                      10.255258            4.616426             -2.356627
| 12>   O                      10.164642            5.270184             -3.607741
| 13>   H                      10.425874            6.171939             -3.548714
| 14>   H                      9.666499             5.091302             -1.575199
| 15>   H                      9.825242             3.594422             -2.483479
| 16>   H                      11.290342            4.483366             -2.121845
| 17>   C                      11.631059            3.059737             -5.774985
| 18>   O                      10.905304            2.740194             -4.618997
| 19>   H                      10.421295            3.465015             -4.263803
| 20>   H                      12.212335            2.216138             -6.149784
| 21>   H                      10.839864            3.262608             -6.530480
| 22>   H                      12.263251            3.898941             -5.592891
| 23> *
| 24>
| 25> #Run DFT-D3 single point of the molecule with dimer basis set
| 26> $new_job
| 27> %base "21-165_DFT_A"
| 28> ! wB97X-D3 def2-TZVP TIGHTSCF CHELPG PMODEL
| 29>
| 30> %scf
| 31> MaxIter 1000
| 32> end
| 33>
| 34> * xyz 0 1
| 35>   C                      10.255258            4.616426             -2.356627
| 36>   O                      10.164642            5.270184             -3.607741
| 37>   H                      10.425874            6.171939             -3.548714
| 38>   H                      9.666499             5.091302             -1.575199
| 39>   H                      9.825242             3.594422             -2.483479
| 40>   H                      11.290342            4.483366             -2.121845
| 41>   C                    : 11.631059            3.059737             -5.774985
| 42>   O                    : 10.905304            2.740194             -4.618997
| 43>   H                    : 10.421295            3.465015             -4.263803
| 44>   H                    : 12.212335            2.216138             -6.149784
| 45>   H                    : 10.839864            3.262608             -6.530480
| 46>   H                    : 12.263251            3.898941             -5.592891
| 47> *
| 48>
| 49> #Run DFT-D3 single point of the particle with dimer basis set
| 50> $new_job
| 51> %base "21-165_DFT_B"
| 52> ! wB97X-D3 def2-TZVP TIGHTSCF CHELPG PMODEL
| 53>
| 54> %scf
| 55> MaxIter 1000
| 56> end
| 57>
| 58> * xyz 0 1
| 59>   C                    : 10.255258            4.616426             -2.356627
| 60>   O                    : 10.164642            5.270184             -3.607741
| 61>   H                    : 10.425874            6.171939             -3.548714
| 62>   H                    : 9.666499             5.091302             -1.575199
| 63>   H                    : 9.825242             3.594422             -2.483479
| 64>   H                    : 11.290342            4.483366             -2.121845
| 65>   C                      11.631059            3.059737             -5.774985
| 66>   O                      10.905304            2.740194             -4.618997
| 67>   H                      10.421295            3.465015             -4.263803
| 68>   H                      12.212335            2.216138             -6.149784
| 69>   H                      10.839864            3.262608             -6.530480
| 70>   H                      12.263251            3.898941             -5.592891
| 71> *
| 72>
| 73>                          ****END OF INPUT****
 Total Charge           Charge          ....    0
 Multiplicity           Mult            ....    1
 Number of Electrons    NEL             ....   36
Dispersion correction           -0.002006805
FINAL SINGLE POINT ENERGY      -231.471618034559
Dispersion correction           -0.000240996
FINAL SINGLE POINT ENERGY      -115.735438270991

CARTESIAN COORDINATES (ANGSTROEM)
---------------------------------
  C     10.255258    4.616426   -2.356627
  O     10.164642    5.270184   -3.607741
  H     10.425874    6.171939   -3.548714
  H      9.666499    5.091302   -1.575199
  H      9.825242    3.594422   -2.483479
  H     11.290342    4.483366   -2.121845
  C     11.631059    3.059737   -5.774985
  O     10.905304    2.740194   -4.618997
  H     10.421295    3.465015   -4.263803
  H     12.212335    2.216138   -6.149784
  H     10.839864    3.262608   -6.530480
  H     12.263251    3.898941   -5.592891

 Multiplicity           Mult            ....    1
 Number of Electrons    NEL             ....   18
 Basis Dimension        Dim             ....  172

ORBITAL ENERGIES
----------------

  NO   OCC          E(Eh)            E(eV)
   0   2.0000     -19.223057      -523.0860
   1   2.0000     -10.311859      -280.6000
   2   2.0000      -1.139101       -30.9965
   3   2.0000      -0.799300       -21.7501
   4   2.0000      -0.611679       -16.6446
   5   2.0000      -0.550042       -14.9674
   6   2.0000      -0.536004       -14.5854
   7   2.0000      -0.423292       -11.5184
   8   2.0000      -0.369684       -10.0596
   9   0.0000       0.074698         2.0326
  10   0.0000       0.137532         3.7424
  11   0.0000       0.157942         4.2978
  12   0.0000       0.169844         4.6217
  13   0.0000       0.185896         5.0585

MULLIKEN ATOMIC CHARGES
-----------------------
   0 C :   -0.014379
   1 O :   -0.004735
   2 H :   -0.000366
   3 H :   -0.000795
   4 H :   -0.000919
   5 H :    0.001392
   6 C :   -0.158995
   7 O :   -0.472483
   8 H :    0.320284
   9 H :    0.123629
  10 H :    0.100785
  11 H :    0.106582
Sum of atomic charges:   -0.0000000

LOEWDIN ATOMIC CHARGES
----------------------
   0 C :   -0.023368
   1 O :   -0.017941
   2 H :   -0.000762
   3 H :   -0.000334
   4 H :   -0.006585
   5 H :   -0.002280
   6 C :   -0.380272
   7 O :   -0.041156
   8 H :    0.171249
   9 H :    0.109328
  10 H :    0.102084
  11 H :    0.090036

  Mayer bond orders larger than 0.1
B(  6-C ,  7-O ) :   0.9874 B(  6-C ,  9-H ) :   0.9689 B(  6-C , 10-H ) :   0.9946
B(  6-C , 11-H ) :   0.9725 B(  7-O ,  8-H ) :   0.8966

Dispersion correction           -0.000222390
FINAL SINGLE POINT ENERGY      -115.732784724555

DIPOLE MOMENT
-------------
                                X             Y             Z
Electronic contribution:     -0.70887      -0.50906       1.44331
Nuclear contribution   :      0.70906       1.09126      -1.69605
                        -----------------------------------------
Total Dipole Moment    :      0.00019       0.58220      -0.25274
                        -----------------------------------------
Magnitude (a.u.)       :      0.63469
Magnitude (Debye)      :      1.61326

Rotational constants in cm-1:     4.352787     0.843197     0.820898
Rotational constants in MHz : 130493.272865 25278.423859 24609.890588

                             ****ORCA TERMINATED NORMALLY****
TOTAL RUN TIME: 0 days 0 hours 1 minutes 7 seconds 76 msec
