                         Program Version 4.1.2  - RELEASE  -
|  1> #Run DFT geometry optimization
|  2> ! wB97X-D3 def2-TZVP TIGHTSCF Grid5 FinalGrid6 Opt CHELPG PAL4
|  3>
|  4> %base "5_geo_opt"
|  5> %geom MaxIter 500
|  6> end
|  7>
|  8> %geom
|  9>   Constraints
| 10>     { B 0 1 C }
| 11>   end
| 12> end
| 13>
| 14>
| 15> * xyz 0 1
| 16>   C                    3.011308             -1.180897            0.598492
| 17>   O                    4.394673             -1.128050            0.874308
| 18>   H                    4.772196             -0.379022            0.412493
| 19>   H                    2.806434             -1.318965            -0.469350
| 20>   H                    2.611632             -2.040265            1.135898
| 21>   H                    2.484757             -0.284491            0.945659
| 22> *
| 23>
| 24>                          ****END OF INPUT****
 Total Charge           Charge          ....    0
 Multiplicity           Mult            ....    1
 Number of Electrons    NEL             ....   18
Dispersion correction           -0.000239267
FINAL SINGLE POINT ENERGY      -115.738051352966
Dispersion correction            ... done
                    ***********************HURRAY********************

CARTESIAN COORDINATES (ANGSTROEM)
---------------------------------
  C      3.011347   -1.180930    0.598522
  O      4.394720   -1.128024    0.874285
  H      4.772206   -0.378983    0.412485
  H      2.806431   -1.318976   -0.469319
  H      2.611523   -2.040256    1.135872
  H      2.484773   -0.284520    0.945655

 Multiplicity           Mult            ....    1
 Number of Electrons    NEL             ....   18
 Basis Dimension        Dim             ....   86

ORBITAL ENERGIES
----------------

  NO   OCC          E(Eh)            E(eV)
   0   2.0000     -19.228095      -523.2231
   1   2.0000     -10.315112      -280.6885
   2   2.0000      -1.136805       -30.9340
   3   2.0000      -0.795348       -21.6425
   4   2.0000      -0.611594       -16.6423
   5   2.0000      -0.541767       -14.7422
   6   2.0000      -0.526335       -14.3223
   7   2.0000      -0.433796       -11.8042
   8   2.0000      -0.373610       -10.1664
   9   0.0000       0.116644         3.1740
  10   0.0000       0.156672         4.2633
  11   0.0000       0.202578         5.5124
  12   0.0000       0.205116         5.5815
  13   0.0000       0.226368         6.1598

MULLIKEN ATOMIC CHARGES
-----------------------
   0 C :   -0.150864
   1 O :   -0.477636
   2 H :    0.313011
   3 H :    0.098628
   4 H :    0.118229
   5 H :    0.098632
Sum of atomic charges:   -0.0000000

LOEWDIN ATOMIC CHARGES
----------------------
   0 C :   -0.385166
   1 O :   -0.076092
   2 H :    0.165778
   3 H :    0.093397
   4 H :    0.108686
   5 H :    0.093396

  Mayer bond orders larger than 0.1
B(  0-C ,  1-O ) :   0.9987 B(  0-C ,  3-H ) :   0.9755 B(  0-C ,  4-H ) :   0.9749
B(  0-C ,  5-H ) :   0.9755 B(  1-O ,  2-H ) :   0.9002

Dispersion correction           -0.000239282
FINAL SINGLE POINT ENERGY      -115.738051366838

DIPOLE MOMENT
-------------
                                X             Y             Z
Electronic contribution:      1.75605      -0.02825       0.41982
Nuclear contribution   :     -2.06588       0.47582      -0.81745
                        -----------------------------------------
Total Dipole Moment    :     -0.30983       0.44757      -0.39763
                        -----------------------------------------
Magnitude (a.u.)       :      0.67411
Magnitude (Debye)      :      1.71345

Rotational constants in cm-1:     4.293024     0.833781     0.804894
Rotational constants in MHz : 128701.615901 24996.133363 24130.104384

                             ****ORCA TERMINATED NORMALLY****
TOTAL RUN TIME: 0 days 0 hours 0 minutes 37 seconds 317 msec
