                         Program Version 4.1.2  - RELEASE  -
|  1> #Run DFT-D3 single point of the dimer
|  2> ! wB97X-D3 def2-TZVP TIGHTSCF CHELPG PMODEL PAL8
|  3>
|  4> %base "5-91_DFT_AB"
|  5>
|  6> %scf
|  7> MaxIter 1000
|  8> end
|  9>
| 10> * xyz 0 1
| 11>   C                      3.523408             -5.923778            2.070169
| 12>   O                      3.834441             -4.576411            1.836301
| 13>   H                      4.763971             -4.562166            1.509061
| 14>   H                      2.729272             -5.991882            2.856450
| 15>   H                      3.330591             -6.484672            1.252621
| 16>   H                      4.446997             -6.457884            2.510366
| 17>   C                      6.084113             -8.611953            1.806768
| 18>   O                      7.327695             -8.626183            2.447015
| 19>   H                      7.478803             -8.353929            3.386143
| 20>   H                      5.727032             -7.640368            1.558098
| 21>   H                      5.902592             -9.304816            1.042302
| 22>   H                      5.355908             -8.998010            2.538191
| 23> *
| 24>
| 25> #Run DFT-D3 single point of the molecule with dimer basis set
| 26> $new_job
| 27> %base "5-91_DFT_A"
| 28> ! wB97X-D3 def2-TZVP TIGHTSCF CHELPG PMODEL
| 29>
| 30> %scf
| 31> MaxIter 1000
| 32> end
| 33>
| 34> * xyz 0 1
| 35>   C                      3.523408             -5.923778            2.070169
| 36>   O                      3.834441             -4.576411            1.836301
| 37>   H                      4.763971             -4.562166            1.509061
| 38>   H                      2.729272             -5.991882            2.856450
| 39>   H                      3.330591             -6.484672            1.252621
| 40>   H                      4.446997             -6.457884            2.510366
| 41>   C                    : 6.084113             -8.611953            1.806768
| 42>   O                    : 7.327695             -8.626183            2.447015
| 43>   H                    : 7.478803             -8.353929            3.386143
| 44>   H                    : 5.727032             -7.640368            1.558098
| 45>   H                    : 5.902592             -9.304816            1.042302
| 46>   H                    : 5.355908             -8.998010            2.538191
| 47> *
| 48>
| 49> #Run DFT-D3 single point of the particle with dimer basis set
| 50> $new_job
| 51> %base "5-91_DFT_B"
| 52> ! wB97X-D3 def2-TZVP TIGHTSCF CHELPG PMODEL
| 53>
| 54> %scf
| 55> MaxIter 1000
| 56> end
| 57>
| 58> * xyz 0 1
| 59>   C                    : 3.523408             -5.923778            2.070169
| 60>   O                    : 3.834441             -4.576411            1.836301
| 61>   H                    : 4.763971             -4.562166            1.509061
| 62>   H                    : 2.729272             -5.991882            2.856450
| 63>   H                    : 3.330591             -6.484672            1.252621
| 64>   H                    : 4.446997             -6.457884            2.510366
| 65>   C                      6.084113             -8.611953            1.806768
| 66>   O                      7.327695             -8.626183            2.447015
| 67>   H                      7.478803             -8.353929            3.386143
| 68>   H                      5.727032             -7.640368            1.558098
| 69>   H                      5.902592             -9.304816            1.042302
| 70>   H                      5.355908             -8.998010            2.538191
| 71> *
| 72>
| 73>                          ****END OF INPUT****
 Total Charge           Charge          ....    0
 Multiplicity           Mult            ....    1
 Number of Electrons    NEL             ....   36
Dispersion correction           -0.001639347
FINAL SINGLE POINT ENERGY      -231.444642123454
Dispersion correction           -0.000230739
FINAL SINGLE POINT ENERGY      -115.726414546388

CARTESIAN COORDINATES (ANGSTROEM)
---------------------------------
  C      3.523408   -5.923778    2.070169
  O      3.834441   -4.576411    1.836301
  H      4.763971   -4.562166    1.509061
  H      2.729272   -5.991882    2.856450
  H      3.330591   -6.484672    1.252621
  H      4.446997   -6.457884    2.510366
  C      6.084113   -8.611953    1.806768
  O      7.327695   -8.626183    2.447015
  H      7.478803   -8.353929    3.386143
  H      5.727032   -7.640368    1.558098
  H      5.902592   -9.304816    1.042302
  H      5.355908   -8.998010    2.538191

 Multiplicity           Mult            ....    1
 Number of Electrons    NEL             ....   18
 Basis Dimension        Dim             ....  172

ORBITAL ENERGIES
----------------

  NO   OCC          E(Eh)            E(eV)
   0   2.0000     -19.224159      -523.1159
   1   2.0000     -10.307294      -280.4757
   2   2.0000      -1.124055       -30.5871
   3   2.0000      -0.806244       -21.9390
   4   2.0000      -0.617061       -16.7911
   5   2.0000      -0.551378       -15.0038
   6   2.0000      -0.528158       -14.3719
   7   2.0000      -0.404147       -10.9974
   8   2.0000      -0.369329       -10.0500
   9   0.0000       0.084853         2.3090
  10   0.0000       0.112222         3.0537
  11   0.0000       0.152328         4.1451
  12   0.0000       0.163345         4.4449
  13   0.0000       0.194861         5.3024

MULLIKEN ATOMIC CHARGES
-----------------------
   0 C :   -0.003881
   1 O :    0.000027
   2 H :   -0.000057
   3 H :    0.000003
   4 H :    0.000278
   5 H :    0.001598
   6 C :   -0.130556
   7 O :   -0.525315
   8 H :    0.336314
   9 H :    0.100940
  10 H :    0.126537
  11 H :    0.094113
Sum of atomic charges:   -0.0000000

LOEWDIN ATOMIC CHARGES
----------------------
   0 C :   -0.008447
   1 O :   -0.000019
   2 H :   -0.000203
   3 H :   -0.000064
   4 H :   -0.001273
   5 H :   -0.009998
   6 C :   -0.378984
   7 O :   -0.088695
   8 H :    0.188448
   9 H :    0.096592
  10 H :    0.100087
  11 H :    0.102556

  Mayer bond orders larger than 0.1
B(  6-C ,  7-O ) :   0.9819 B(  6-C ,  9-H ) :   0.9781 B(  6-C , 10-H ) :   0.9614
B(  6-C , 11-H ) :   0.9953 B(  7-O ,  8-H ) :   0.8718

Dispersion correction           -0.000265041
FINAL SINGLE POINT ENERGY      -115.718973662140

DIPOLE MOMENT
-------------
                                X             Y             Z
Electronic contribution:      1.76691       0.01027       0.50977
Nuclear contribution   :     -2.21617       0.15007      -0.13130
                        -----------------------------------------
Total Dipole Moment    :     -0.44925       0.16034       0.37847
                        -----------------------------------------
Magnitude (a.u.)       :      0.60892
Magnitude (Debye)      :      1.54774

Rotational constants in cm-1:     4.804356     0.814811     0.799665
Rotational constants in MHz : 144030.970369 24427.427939 23973.355691

                             ****ORCA TERMINATED NORMALLY****
TOTAL RUN TIME: 0 days 0 hours 0 minutes 43 seconds 688 msec
