                         Program Version 4.1.2  - RELEASE  -
|  1> #Run DFT-D3 single point of the dimer
|  2> ! wB97X-D3 def2-TZVP TIGHTSCF CHELPG PMODEL PAL8
|  3>
|  4> %base "12-62_DFT_AB"
|  5>
|  6> %scf
|  7> MaxIter 1000
|  8> end
|  9>
| 10> * xyz 0 1
| 11>   C                      6.939438             8.381128             7.470866
| 12>   O                      6.725867             7.125149             6.925908
| 13>   H                      6.458362             6.563001             7.707976
| 14>   H                      6.795791             9.090185             6.659182
| 15>   H                      6.342889             8.682943             8.259780
| 16>   H                      7.982865             8.432314             7.760599
| 17>   C                      7.095750             3.934989             5.712976
| 18>   O                      8.233398             3.019336             5.783510
| 19>   H                      8.730311             3.165655             4.956165
| 20>   H                      6.340234             3.723684             6.452433
| 21>   H                      7.425371             4.894638             6.015371
| 22>   H                      6.636750             3.988568             4.765022
| 23> *
| 24>
| 25> #Run DFT-D3 single point of the molecule with dimer basis set
| 26> $new_job
| 27> %base "12-62_DFT_A"
| 28> ! wB97X-D3 def2-TZVP TIGHTSCF CHELPG PMODEL
| 29>
| 30> %scf
| 31> MaxIter 1000
| 32> end
| 33>
| 34> * xyz 0 1
| 35>   C                      6.939438             8.381128             7.470866
| 36>   O                      6.725867             7.125149             6.925908
| 37>   H                      6.458362             6.563001             7.707976
| 38>   H                      6.795791             9.090185             6.659182
| 39>   H                      6.342889             8.682943             8.259780
| 40>   H                      7.982865             8.432314             7.760599
| 41>   C                    : 7.095750             3.934989             5.712976
| 42>   O                    : 8.233398             3.019336             5.783510
| 43>   H                    : 8.730311             3.165655             4.956165
| 44>   H                    : 6.340234             3.723684             6.452433
| 45>   H                    : 7.425371             4.894638             6.015371
| 46>   H                    : 6.636750             3.988568             4.765022
| 47> *
| 48>
| 49> #Run DFT-D3 single point of the particle with dimer basis set
| 50> $new_job
| 51> %base "12-62_DFT_B"
| 52> ! wB97X-D3 def2-TZVP TIGHTSCF CHELPG PMODEL
| 53>
| 54> %scf
| 55> MaxIter 1000
| 56> end
| 57>
| 58> * xyz 0 1
| 59>   C                    : 6.939438             8.381128             7.470866
| 60>   O                    : 6.725867             7.125149             6.925908
| 61>   H                    : 6.458362             6.563001             7.707976
| 62>   H                    : 6.795791             9.090185             6.659182
| 63>   H                    : 6.342889             8.682943             8.259780
| 64>   H                    : 7.982865             8.432314             7.760599
| 65>   C                      7.095750             3.934989             5.712976
| 66>   O                      8.233398             3.019336             5.783510
| 67>   H                      8.730311             3.165655             4.956165
| 68>   H                      6.340234             3.723684             6.452433
| 69>   H                      7.425371             4.894638             6.015371
| 70>   H                      6.636750             3.988568             4.765022
| 71> *
| 72>
| 73>                          ****END OF INPUT****
 Total Charge           Charge          ....    0
 Multiplicity           Mult            ....    1
 Number of Electrons    NEL             ....   36
Dispersion correction           -0.001344084
FINAL SINGLE POINT ENERGY      -231.462211310772
Dispersion correction           -0.000215229
FINAL SINGLE POINT ENERGY      -115.729834062536

CARTESIAN COORDINATES (ANGSTROEM)
---------------------------------
  C      6.939438    8.381128    7.470866
  O      6.725867    7.125149    6.925908
  H      6.458362    6.563001    7.707976
  H      6.795791    9.090185    6.659182
  H      6.342889    8.682943    8.259780
  H      7.982865    8.432314    7.760599
  C      7.095750    3.934989    5.712976
  O      8.233398    3.019336    5.783510
  H      8.730311    3.165655    4.956165
  H      6.340234    3.723684    6.452433
  H      7.425371    4.894638    6.015371
  H      6.636750    3.988568    4.765022

 Multiplicity           Mult            ....    1
 Number of Electrons    NEL             ....   18
 Basis Dimension        Dim             ....  172

ORBITAL ENERGIES
----------------

  NO   OCC          E(Eh)            E(eV)
   0   2.0000     -19.231388      -523.3127
   1   2.0000     -10.306839      -280.4633
   2   2.0000      -1.119659       -30.4675
   3   2.0000      -0.804052       -21.8794
   4   2.0000      -0.600464       -16.3394
   5   2.0000      -0.542711       -14.7679
   6   2.0000      -0.523835       -14.2543
   7   2.0000      -0.440454       -11.9854
   8   2.0000      -0.374452       -10.1894
   9   0.0000       0.084539         2.3004
  10   0.0000       0.115878         3.1532
  11   0.0000       0.143398         3.9021
  12   0.0000       0.185506         5.0479
  13   0.0000       0.188109         5.1187

MULLIKEN ATOMIC CHARGES
-----------------------
   0 C :   -0.000595
   1 O :   -0.000420
   2 H :   -0.000739
   3 H :    0.000023
   4 H :   -0.000005
   5 H :   -0.000011
   6 C :   -0.173554
   7 O :   -0.481059
   8 H :    0.314202
   9 H :    0.120202
  10 H :    0.107294
  11 H :    0.114663
Sum of atomic charges:    0.0000000

LOEWDIN ATOMIC CHARGES
----------------------
   0 C :   -0.000568
   1 O :   -0.006583
   2 H :   -0.002391
   3 H :   -0.000020
   4 H :   -0.000013
   5 H :   -0.000033
   6 C :   -0.343083
   7 O :   -0.115512
   8 H :    0.175701
   9 H :    0.107956
  10 H :    0.094481
  11 H :    0.090064

  Mayer bond orders larger than 0.1
B(  6-C ,  7-O ) :   0.9875 B(  6-C ,  9-H ) :   0.9725 B(  6-C , 10-H ) :   0.9850
B(  6-C , 11-H ) :   0.9741 B(  7-O ,  8-H ) :   0.9005

Dispersion correction           -0.000247378
FINAL SINGLE POINT ENERGY      -115.730941992780

DIPOLE MOMENT
-------------
                                X             Y             Z
Electronic contribution:      1.32541      -1.24646       0.13787
Nuclear contribution   :     -1.50881       1.73566      -0.67500
                        -----------------------------------------
Total Dipole Moment    :     -0.18340       0.48920      -0.53713
                        -----------------------------------------
Magnitude (a.u.)       :      0.74930
Magnitude (Debye)      :      1.90458

Rotational constants in cm-1:     4.492244     0.791536     0.761063
Rotational constants in MHz : 134674.085322 23729.661519 22816.096023

                             ****ORCA TERMINATED NORMALLY****
TOTAL RUN TIME: 0 days 0 hours 0 minutes 57 seconds 972 msec
