                         Program Version 4.1.2  - RELEASE  -
|  1> #Run DFT-D3 single point of the dimer
|  2> ! wB97X-D3 def2-TZVP TIGHTSCF CHELPG PMODEL PAL8
|  3>
|  4> %base "8-176_DFT_AB"
|  5>
|  6> %scf
|  7> MaxIter 1000
|  8> end
|  9>
| 10> * xyz 0 1
| 11>   C                      -8.672339            -9.634608            2.156683
| 12>   O                      -9.971335            -9.241413            1.851202
| 13>   H                      -9.983889            -8.358073            1.480838
| 14>   H                      -8.841103            -10.336527           3.011248
| 15>   H                      -8.160852            -10.192829           1.358109
| 16>   H                      -8.033910            -8.807568            2.415028
| 17>   C                      -10.411031           -6.497166            -1.425488
| 18>   O                      -10.103061           -6.686543            -0.088535
| 19>   H                      -9.212419            -6.309215            0.118963
| 20>   H                      -11.253937           -5.788915            -1.566383
| 21>   H                      -9.499957            -5.949211            -1.949446
| 22>   H                      -10.717005           -7.407105            -1.952296
| 23> *
| 24>
| 25> #Run DFT-D3 single point of the molecule with dimer basis set
| 26> $new_job
| 27> %base "8-176_DFT_A"
| 28> ! wB97X-D3 def2-TZVP TIGHTSCF CHELPG PMODEL
| 29>
| 30> %scf
| 31> MaxIter 1000
| 32> end
| 33>
| 34> * xyz 0 1
| 35>   C                      -8.672339            -9.634608            2.156683
| 36>   O                      -9.971335            -9.241413            1.851202
| 37>   H                      -9.983889            -8.358073            1.480838
| 38>   H                      -8.841103            -10.336527           3.011248
| 39>   H                      -8.160852            -10.192829           1.358109
| 40>   H                      -8.033910            -8.807568            2.415028
| 41>   C                    : -10.411031           -6.497166            -1.425488
| 42>   O                    : -10.103061           -6.686543            -0.088535
| 43>   H                    : -9.212419            -6.309215            0.118963
| 44>   H                    : -11.253937           -5.788915            -1.566383
| 45>   H                    : -9.499957            -5.949211            -1.949446
| 46>   H                    : -10.717005           -7.407105            -1.952296
| 47> *
| 48>
| 49> #Run DFT-D3 single point of the particle with dimer basis set
| 50> $new_job
| 51> %base "8-176_DFT_B"
| 52> ! wB97X-D3 def2-TZVP TIGHTSCF CHELPG PMODEL
| 53>
| 54> %scf
| 55> MaxIter 1000
| 56> end
| 57>
| 58> * xyz 0 1
| 59>   C                    : -8.672339            -9.634608            2.156683
| 60>   O                    : -9.971335            -9.241413            1.851202
| 61>   H                    : -9.983889            -8.358073            1.480838
| 62>   H                    : -8.841103            -10.336527           3.011248
| 63>   H                    : -8.160852            -10.192829           1.358109
| 64>   H                    : -8.033910            -8.807568            2.415028
| 65>   C                      -10.411031           -6.497166            -1.425488
| 66>   O                      -10.103061           -6.686543            -0.088535
| 67>   H                      -9.212419            -6.309215            0.118963
| 68>   H                      -11.253937           -5.788915            -1.566383
| 69>   H                      -9.499957            -5.949211            -1.949446
| 70>   H                      -10.717005           -7.407105            -1.952296
| 71> *
| 72>
| 73>                          ****END OF INPUT****
 Total Charge           Charge          ....    0
 Multiplicity           Mult            ....    1
 Number of Electrons    NEL             ....   36
Dispersion correction           -0.001411195
FINAL SINGLE POINT ENERGY      -231.466984662008
Dispersion correction           -0.000242181
FINAL SINGLE POINT ENERGY      -115.734064667665

CARTESIAN COORDINATES (ANGSTROEM)
---------------------------------
  C     -8.672339   -9.634608    2.156683
  O     -9.971335   -9.241413    1.851202
  H     -9.983889   -8.358073    1.480838
  H     -8.841103  -10.336527    3.011248
  H     -8.160852  -10.192829    1.358109
  H     -8.033910   -8.807568    2.415028
  C    -10.411031   -6.497166   -1.425488
  O    -10.103061   -6.686543   -0.088535
  H     -9.212419   -6.309215    0.118963
  H    -11.253937   -5.788915   -1.566383
  H     -9.499957   -5.949211   -1.949446
  H    -10.717005   -7.407105   -1.952296

 Multiplicity           Mult            ....    1
 Number of Electrons    NEL             ....   18
 Basis Dimension        Dim             ....  172

ORBITAL ENERGIES
----------------

  NO   OCC          E(Eh)            E(eV)
   0   2.0000     -19.234697      -523.4027
   1   2.0000     -10.323154      -280.9073
   2   2.0000      -1.140878       -31.0449
   3   2.0000      -0.786786       -21.4095
   4   2.0000      -0.610971       -16.6254
   5   2.0000      -0.541783       -14.7427
   6   2.0000      -0.532666       -14.4946
   7   2.0000      -0.421550       -11.4710
   8   2.0000      -0.370969       -10.0946
   9   0.0000       0.089345         2.4312
  10   0.0000       0.114141         3.1059
  11   0.0000       0.151055         4.1104
  12   0.0000       0.182475         4.9654
  13   0.0000       0.197103         5.3634

MULLIKEN ATOMIC CHARGES
-----------------------
   0 C :   -0.002409
   1 O :    0.000001
   2 H :   -0.007298
   3 H :   -0.000160
   4 H :    0.000259
   5 H :    0.000058
   6 C :   -0.162416
   7 O :   -0.464516
   8 H :    0.329438
   9 H :    0.102827
  10 H :    0.089760
  11 H :    0.114456
Sum of atomic charges:   -0.0000000

LOEWDIN ATOMIC CHARGES
----------------------
   0 C :   -0.001540
   1 O :   -0.002205
   2 H :   -0.021280
   3 H :   -0.000050
   4 H :   -0.000047
   5 H :   -0.000138
   6 C :   -0.419281
   7 O :   -0.052865
   8 H :    0.192965
   9 H :    0.097325
  10 H :    0.108275
  11 H :    0.098842

  Mayer bond orders larger than 0.1
B(  6-C ,  7-O ) :   1.0093 B(  6-C ,  9-H ) :   0.9717 B(  6-C , 10-H ) :   0.9861
B(  6-C , 11-H ) :   0.9718 B(  7-O ,  8-H ) :   0.8854

Dispersion correction           -0.000257718
FINAL SINGLE POINT ENERGY      -115.728132789077

DIPOLE MOMENT
-------------
                                X             Y             Z
Electronic contribution:      0.23634      -0.47035       1.84794
Nuclear contribution   :      0.21274       0.79132      -2.20608
                        -----------------------------------------
Total Dipole Moment    :      0.44908       0.32097      -0.35814
                        -----------------------------------------
Magnitude (a.u.)       :      0.65800
Magnitude (Debye)      :      1.67250

Rotational constants in cm-1:     4.095181     0.850910     0.807112
Rotational constants in MHz : 122770.443330 25509.653754 24196.608077

                             ****ORCA TERMINATED NORMALLY****
TOTAL RUN TIME: 0 days 0 hours 0 minutes 43 seconds 266 msec
