                         Program Version 4.1.2  - RELEASE  -
|  1> #Run DFT-D3 single point of the dimer
|  2> ! wB97X-D3 def2-TZVP TIGHTSCF CHELPG PMODEL PAL8
|  3>
|  4> %base "16-202_DFT_AB"
|  5>
|  6> %scf
|  7> MaxIter 1000
|  8> end
|  9>
| 10> * xyz 0 1
| 11>   C                      0.741644             -9.961062            -5.985418
| 12>   O                      -0.296424            -10.858472           -5.471608
| 13>   H                      -0.946359            -10.348229           -4.948801
| 14>   H                      1.510999             -10.492507           -6.512257
| 15>   H                      0.381211             -9.186542            -6.686297
| 16>   H                      1.110891             -9.255089            -5.188916
| 17>   C                      -2.724335            -7.779231            -3.663963
| 18>   O                      -2.306535            -8.949450            -4.368580
| 19>   H                      -3.146143            -9.301360            -4.569485
| 20>   H                      -3.622942            -8.116595            -3.058919
| 21>   H                      -2.015280            -7.343031            -2.985387
| 22>   H                      -3.217830            -7.021954            -4.316722
| 23> *
| 24>
| 25> #Run DFT-D3 single point of the molecule with dimer basis set
| 26> $new_job
| 27> %base "16-202_DFT_A"
| 28> ! wB97X-D3 def2-TZVP TIGHTSCF CHELPG PMODEL
| 29>
| 30> %scf
| 31> MaxIter 1000
| 32> end
| 33>
| 34> * xyz 0 1
| 35>   C                      0.741644             -9.961062            -5.985418
| 36>   O                      -0.296424            -10.858472           -5.471608
| 37>   H                      -0.946359            -10.348229           -4.948801
| 38>   H                      1.510999             -10.492507           -6.512257
| 39>   H                      0.381211             -9.186542            -6.686297
| 40>   H                      1.110891             -9.255089            -5.188916
| 41>   C                    : -2.724335            -7.779231            -3.663963
| 42>   O                    : -2.306535            -8.949450            -4.368580
| 43>   H                    : -3.146143            -9.301360            -4.569485
| 44>   H                    : -3.622942            -8.116595            -3.058919
| 45>   H                    : -2.015280            -7.343031            -2.985387
| 46>   H                    : -3.217830            -7.021954            -4.316722
| 47> *
| 48>
| 49> #Run DFT-D3 single point of the particle with dimer basis set
| 50> $new_job
| 51> %base "16-202_DFT_B"
| 52> ! wB97X-D3 def2-TZVP TIGHTSCF CHELPG PMODEL
| 53>
| 54> %scf
| 55> MaxIter 1000
| 56> end
| 57>
| 58> * xyz 0 1
| 59>   C                    : 0.741644             -9.961062            -5.985418
| 60>   O                    : -0.296424            -10.858472           -5.471608
| 61>   H                    : -0.946359            -10.348229           -4.948801
| 62>   H                    : 1.510999             -10.492507           -6.512257
| 63>   H                    : 0.381211             -9.186542            -6.686297
| 64>   H                    : 1.110891             -9.255089            -5.188916
| 65>   C                      -2.724335            -7.779231            -3.663963
| 66>   O                      -2.306535            -8.949450            -4.368580
| 67>   H                      -3.146143            -9.301360            -4.569485
| 68>   H                      -3.622942            -8.116595            -3.058919
| 69>   H                      -2.015280            -7.343031            -2.985387
| 70>   H                      -3.217830            -7.021954            -4.316722
| 71> *
| 72>
| 73>                          ****END OF INPUT****
 Total Charge           Charge          ....    0
 Multiplicity           Mult            ....    1
 Number of Electrons    NEL             ....   36
Dispersion correction           -0.001521241
FINAL SINGLE POINT ENERGY      -231.462909494659
Dispersion correction           -0.000282302
FINAL SINGLE POINT ENERGY      -115.729142898819

CARTESIAN COORDINATES (ANGSTROEM)
---------------------------------
  C      0.741644   -9.961062   -5.985418
  O     -0.296424  -10.858472   -5.471608
  H     -0.946359  -10.348229   -4.948801
  H      1.510999  -10.492507   -6.512257
  H      0.381211   -9.186542   -6.686297
  H      1.110891   -9.255089   -5.188916
  C     -2.724335   -7.779231   -3.663963
  O     -2.306535   -8.949450   -4.368580
  H     -3.146143   -9.301360   -4.569485
  H     -3.622942   -8.116595   -3.058919
  H     -2.015280   -7.343031   -2.985387
  H     -3.217830   -7.021954   -4.316722

 Multiplicity           Mult            ....    1
 Number of Electrons    NEL             ....   18
 Basis Dimension        Dim             ....  172

ORBITAL ENERGIES
----------------

  NO   OCC          E(Eh)            E(eV)
   0   2.0000     -19.232443      -523.3414
   1   2.0000     -10.321583      -280.8646
   2   2.0000      -1.146557       -31.1994
   3   2.0000      -0.792906       -21.5761
   4   2.0000      -0.613551       -16.6956
   5   2.0000      -0.539773       -14.6880
   6   2.0000      -0.529529       -14.4092
   7   2.0000      -0.445966       -12.1353
   8   2.0000      -0.372186       -10.1277
   9   0.0000       0.099611         2.7106
  10   0.0000       0.120148         3.2694
  11   0.0000       0.153736         4.1834
  12   0.0000       0.190953         5.1961
  13   0.0000       0.194767         5.2999

MULLIKEN ATOMIC CHARGES
-----------------------
   0 C :    0.002157
   1 O :    0.001037
   2 H :   -0.011900
   3 H :   -0.000231
   4 H :   -0.001960
   5 H :   -0.001032
   6 C :   -0.197486
   7 O :   -0.439190
   8 H :    0.311453
   9 H :    0.098028
  10 H :    0.133100
  11 H :    0.106025
Sum of atomic charges:   -0.0000000

LOEWDIN ATOMIC CHARGES
----------------------
   0 C :   -0.003602
   1 O :   -0.003239
   2 H :   -0.033044
   3 H :   -0.000051
   4 H :   -0.000722
   5 H :   -0.000344
   6 C :   -0.380967
   7 O :   -0.040628
   8 H :    0.157865
   9 H :    0.103493
  10 H :    0.102408
  11 H :    0.098832

  Mayer bond orders larger than 0.1
B(  6-C ,  7-O ) :   0.9902 B(  6-C ,  9-H ) :   0.9914 B(  6-C , 10-H ) :   0.9724
B(  6-C , 11-H ) :   0.9631 B(  7-O ,  8-H ) :   0.9050

Dispersion correction           -0.000221399
FINAL SINGLE POINT ENERGY      -115.726520341429

DIPOLE MOMENT
-------------
                                X             Y             Z
Electronic contribution:      0.99024      -1.40149      -0.92116
Nuclear contribution   :     -1.68537       1.63816       1.08995
                        -----------------------------------------
Total Dipole Moment    :     -0.69513       0.23667       0.16879
                        -----------------------------------------
Magnitude (a.u.)       :      0.75346
Magnitude (Debye)      :      1.91515

Rotational constants in cm-1:     4.232223     0.827995     0.790805
Rotational constants in MHz : 126878.867310 24822.671044 23707.737320

                             ****ORCA TERMINATED NORMALLY****
TOTAL RUN TIME: 0 days 0 hours 0 minutes 57 seconds 745 msec
