                         Program Version 4.1.2  - RELEASE  -
|  1> #Run DFT-D3 single point of the dimer
|  2> ! wB97X-D3 def2-TZVP TIGHTSCF CHELPG PMODEL PAL8
|  3>
|  4> %base "2-44_DFT_AB"
|  5>
|  6> %scf
|  7> MaxIter 1000
|  8> end
|  9>
| 10> * xyz 0 1
| 11>   C                      -10.786374           -2.434926            6.102013
| 12>   O                      -9.534967            -2.920032            6.721126
| 13>   H                      -9.546065            -3.876163            6.859019
| 14>   H                      -10.700096           -1.362841            6.063289
| 15>   H                      -10.879818           -2.671802            5.082183
| 16>   H                      -11.722517           -2.729585            6.503359
| 17>   C                      -10.753965           0.838930             8.326161
| 18>   O                      -11.929895           0.101893             8.683760
| 19>   H                      -12.632640           0.206416             8.026388
| 20>   H                      -9.922303            0.742004             8.990890
| 21>   H                      -10.459346           0.413032             7.399984
| 22>   H                      -10.986522           1.865628             8.128027
| 23> *
| 24>
| 25> #Run DFT-D3 single point of the molecule with dimer basis set
| 26> $new_job
| 27> %base "2-44_DFT_A"
| 28> ! wB97X-D3 def2-TZVP TIGHTSCF CHELPG PMODEL
| 29>
| 30> %scf
| 31> MaxIter 1000
| 32> end
| 33>
| 34> * xyz 0 1
| 35>   C                      -10.786374           -2.434926            6.102013
| 36>   O                      -9.534967            -2.920032            6.721126
| 37>   H                      -9.546065            -3.876163            6.859019
| 38>   H                      -10.700096           -1.362841            6.063289
| 39>   H                      -10.879818           -2.671802            5.082183
| 40>   H                      -11.722517           -2.729585            6.503359
| 41>   C                    : -10.753965           0.838930             8.326161
| 42>   O                    : -11.929895           0.101893             8.683760
| 43>   H                    : -12.632640           0.206416             8.026388
| 44>   H                    : -9.922303            0.742004             8.990890
| 45>   H                    : -10.459346           0.413032             7.399984
| 46>   H                    : -10.986522           1.865628             8.128027
| 47> *
| 48>
| 49> #Run DFT-D3 single point of the particle with dimer basis set
| 50> $new_job
| 51> %base "2-44_DFT_B"
| 52> ! wB97X-D3 def2-TZVP TIGHTSCF CHELPG PMODEL
| 53>
| 54> %scf
| 55> MaxIter 1000
| 56> end
| 57>
| 58> * xyz 0 1
| 59>   C                    : -10.786374           -2.434926            6.102013
| 60>   O                    : -9.534967            -2.920032            6.721126
| 61>   H                    : -9.546065            -3.876163            6.859019
| 62>   H                    : -10.700096           -1.362841            6.063289
| 63>   H                    : -10.879818           -2.671802            5.082183
| 64>   H                    : -11.722517           -2.729585            6.503359
| 65>   C                      -10.753965           0.838930             8.326161
| 66>   O                      -11.929895           0.101893             8.683760
| 67>   H                      -12.632640           0.206416             8.026388
| 68>   H                      -9.922303            0.742004             8.990890
| 69>   H                      -10.459346           0.413032             7.399984
| 70>   H                      -10.986522           1.865628             8.128027
| 71> *
| 72>
| 73>                          ****END OF INPUT****
 Total Charge           Charge          ....    0
 Multiplicity           Mult            ....    1
 Number of Electrons    NEL             ....   36
Dispersion correction           -0.001742791
FINAL SINGLE POINT ENERGY      -231.458787005542
Dispersion correction           -0.000293167
FINAL SINGLE POINT ENERGY      -115.727870495205

CARTESIAN COORDINATES (ANGSTROEM)
---------------------------------
  C    -10.786374   -2.434926    6.102013
  O     -9.534967   -2.920032    6.721126
  H     -9.546065   -3.876163    6.859019
  H    -10.700096   -1.362841    6.063289
  H    -10.879818   -2.671802    5.082183
  H    -11.722517   -2.729585    6.503359
  C    -10.753965    0.838930    8.326161
  O    -11.929895    0.101893    8.683760
  H    -12.632640    0.206416    8.026388
  H     -9.922303    0.742004    8.990890
  H    -10.459346    0.413032    7.399984
  H    -10.986522    1.865628    8.128027

 Multiplicity           Mult            ....    1
 Number of Electrons    NEL             ....   18
 Basis Dimension        Dim             ....  172

ORBITAL ENERGIES
----------------

  NO   OCC          E(Eh)            E(eV)
   0   2.0000     -19.225562      -523.1541
   1   2.0000     -10.306840      -280.4634
   2   2.0000      -1.125014       -30.6132
   3   2.0000      -0.802926       -21.8487
   4   2.0000      -0.606003       -16.4902
   5   2.0000      -0.542117       -14.7518
   6   2.0000      -0.537565       -14.6279
   7   2.0000      -0.428793       -11.6680
   8   2.0000      -0.369122       -10.0443
   9   0.0000       0.085777         2.3341
  10   0.0000       0.123335         3.3561
  11   0.0000       0.152513         4.1501
  12   0.0000       0.167643         4.5618
  13   0.0000       0.195325         5.3151

MULLIKEN ATOMIC CHARGES
-----------------------
   0 C :   -0.002068
   1 O :   -0.000069
   2 H :   -0.000016
   3 H :    0.002842
   4 H :    0.000034
   5 H :   -0.001301
   6 C :   -0.146335
   7 O :   -0.496491
   8 H :    0.317615
   9 H :    0.125164
  10 H :    0.092291
  11 H :    0.108334
Sum of atomic charges:    0.0000000

LOEWDIN ATOMIC CHARGES
----------------------
   0 C :   -0.004892
   1 O :   -0.000041
   2 H :   -0.000004
   3 H :   -0.004845
   4 H :   -0.000051
   5 H :   -0.000934
   6 C :   -0.352741
   7 O :   -0.098035
   8 H :    0.171388
   9 H :    0.104949
  10 H :    0.092895
  11 H :    0.092310

  Mayer bond orders larger than 0.1
B(  6-C ,  7-O ) :   0.9795 B(  6-C ,  9-H ) :   0.9712 B(  6-C , 10-H ) :   0.9897
B(  6-C , 11-H ) :   0.9829 B(  7-O ,  8-H ) :   0.8942

Dispersion correction           -0.000228831
FINAL SINGLE POINT ENERGY      -115.730474593402

DIPOLE MOMENT
-------------
                                X             Y             Z
Electronic contribution:     -1.32589      -0.88657       0.70455
Nuclear contribution   :      1.38740       1.27014      -1.28982
                        -----------------------------------------
Total Dipole Moment    :      0.06152       0.38357      -0.58527
                        -----------------------------------------
Magnitude (a.u.)       :      0.70246
Magnitude (Debye)      :      1.78552

Rotational constants in cm-1:     4.512858     0.817059     0.785781
Rotational constants in MHz : 135292.069866 24494.820120 23557.110800

                             ****ORCA TERMINATED NORMALLY****
TOTAL RUN TIME: 0 days 0 hours 5 minutes 50 seconds 993 msec
