                         Program Version 4.1.2  - RELEASE  -
|  1> #Run DFT-D3 single point of the dimer
|  2> ! wB97X-D3 def2-TZVP TIGHTSCF CHELPG PMODEL PAL8
|  3>
|  4> %base "7-91_DFT_AB"
|  5>
|  6> %scf
|  7> MaxIter 1000
|  8> end
|  9>
| 10> * xyz 0 1
| 11>   C                      -4.531715            -3.327488            3.855180
| 12>   O                      -5.285925            -4.508734            4.030222
| 13>   H                      -4.623814            -5.225967            3.998889
| 14>   H                      -4.056107            -3.085744            4.805620
| 15>   H                      -3.844368            -3.437728            3.013197
| 16>   H                      -5.163979            -2.483007            3.642173
| 17>   C                      -10.607702           -6.279182            4.956583
| 18>   O                      -9.962878            -5.256019            4.217466
| 19>   H                      -9.160693            -5.027956            4.776524
| 20>   H                      -10.191750           -7.315485            4.792045
| 21>   H                      -10.521289           -6.060253            6.014975
| 22>   H                      -11.670653           -6.322046            4.700460
| 23> *
| 24>
| 25> #Run DFT-D3 single point of the molecule with dimer basis set
| 26> $new_job
| 27> %base "7-91_DFT_A"
| 28> ! wB97X-D3 def2-TZVP TIGHTSCF CHELPG PMODEL
| 29>
| 30> %scf
| 31> MaxIter 1000
| 32> end
| 33>
| 34> * xyz 0 1
| 35>   C                      -4.531715            -3.327488            3.855180
| 36>   O                      -5.285925            -4.508734            4.030222
| 37>   H                      -4.623814            -5.225967            3.998889
| 38>   H                      -4.056107            -3.085744            4.805620
| 39>   H                      -3.844368            -3.437728            3.013197
| 40>   H                      -5.163979            -2.483007            3.642173
| 41>   C                    : -10.607702           -6.279182            4.956583
| 42>   O                    : -9.962878            -5.256019            4.217466
| 43>   H                    : -9.160693            -5.027956            4.776524
| 44>   H                    : -10.191750           -7.315485            4.792045
| 45>   H                    : -10.521289           -6.060253            6.014975
| 46>   H                    : -11.670653           -6.322046            4.700460
| 47> *
| 48>
| 49> #Run DFT-D3 single point of the particle with dimer basis set
| 50> $new_job
| 51> %base "7-91_DFT_B"
| 52> ! wB97X-D3 def2-TZVP TIGHTSCF CHELPG PMODEL
| 53>
| 54> %scf
| 55> MaxIter 1000
| 56> end
| 57>
| 58> * xyz 0 1
| 59>   C                    : -4.531715            -3.327488            3.855180
| 60>   O                    : -5.285925            -4.508734            4.030222
| 61>   H                    : -4.623814            -5.225967            3.998889
| 62>   H                    : -4.056107            -3.085744            4.805620
| 63>   H                    : -3.844368            -3.437728            3.013197
| 64>   H                    : -5.163979            -2.483007            3.642173
| 65>   C                      -10.607702           -6.279182            4.956583
| 66>   O                      -9.962878            -5.256019            4.217466
| 67>   H                      -9.160693            -5.027956            4.776524
| 68>   H                      -10.191750           -7.315485            4.792045
| 69>   H                      -10.521289           -6.060253            6.014975
| 70>   H                      -11.670653           -6.322046            4.700460
| 71> *
| 72>
| 73>                          ****END OF INPUT****
 Total Charge           Charge          ....    0
 Multiplicity           Mult            ....    1
 Number of Electrons    NEL             ....   36
Dispersion correction           -0.000625024
FINAL SINGLE POINT ENERGY      -231.468690481707
Dispersion correction           -0.000221102
FINAL SINGLE POINT ENERGY      -115.734594283627

CARTESIAN COORDINATES (ANGSTROEM)
---------------------------------
  C     -4.531715   -3.327488    3.855180
  O     -5.285925   -4.508734    4.030222
  H     -4.623814   -5.225967    3.998889
  H     -4.056107   -3.085744    4.805620
  H     -3.844368   -3.437728    3.013197
  H     -5.163979   -2.483007    3.642173
  C    -10.607702   -6.279182    4.956583
  O     -9.962878   -5.256019    4.217466
  H     -9.160693   -5.027956    4.776524
  H    -10.191750   -7.315485    4.792045
  H    -10.521289   -6.060253    6.014975
  H    -11.670653   -6.322046    4.700460

 Multiplicity           Mult            ....    1
 Number of Electrons    NEL             ....   18
 Basis Dimension        Dim             ....  172

ORBITAL ENERGIES
----------------

  NO   OCC          E(Eh)            E(eV)
   0   2.0000     -19.236225      -523.4443
   1   2.0000     -10.315633      -280.7026
   2   2.0000      -1.130763       -30.7696
   3   2.0000      -0.788397       -21.4534
   4   2.0000      -0.606447       -16.5023
   5   2.0000      -0.536211       -14.5910
   6   2.0000      -0.526976       -14.3397
   7   2.0000      -0.437257       -11.8984
   8   2.0000      -0.372587       -10.1386
   9   0.0000       0.082702         2.2504
  10   0.0000       0.107687         2.9303
  11   0.0000       0.150384         4.0922
  12   0.0000       0.166034         4.5180
  13   0.0000       0.193603         5.2682

MULLIKEN ATOMIC CHARGES
-----------------------
   0 C :   -0.000031
   1 O :   -0.000022
   2 H :   -0.000004
   3 H :    0.000001
   4 H :    0.000001
   5 H :    0.000001
   6 C :   -0.176921
   7 O :   -0.466166
   8 H :    0.317521
   9 H :    0.096317
  10 H :    0.107991
  11 H :    0.121312
Sum of atomic charges:    0.0000000

LOEWDIN ATOMIC CHARGES
----------------------
   0 C :   -0.000013
   1 O :   -0.000056
   2 H :   -0.000007
   3 H :   -0.000000
   4 H :   -0.000000
   5 H :   -0.000001
   6 C :   -0.396017
   7 O :   -0.097865
   8 H :    0.196498
   9 H :    0.098321
  10 H :    0.092941
  11 H :    0.106200

  Mayer bond orders larger than 0.1
B(  6-C ,  7-O ) :   1.0066 B(  6-C ,  9-H ) :   0.9668 B(  6-C , 10-H ) :   0.9850
B(  6-C , 11-H ) :   0.9741 B(  7-O ,  8-H ) :   0.8957

Dispersion correction           -0.000244282
FINAL SINGLE POINT ENERGY      -115.733114415348

DIPOLE MOMENT
-------------
                                X             Y             Z
Electronic contribution:      0.70289       1.35583      -1.11258
Nuclear contribution   :     -0.47692      -1.58913       1.75460
                        -----------------------------------------
Total Dipole Moment    :      0.22597      -0.23330       0.64202
                        -----------------------------------------
Magnitude (a.u.)       :      0.71950
Magnitude (Debye)      :      1.82882

Rotational constants in cm-1:     4.159575     0.827639     0.794749
Rotational constants in MHz : 124700.924479 24811.989222 23825.984388

                             ****ORCA TERMINATED NORMALLY****
TOTAL RUN TIME: 0 days 0 hours 0 minutes 49 seconds 308 msec
