                         Program Version 4.1.2  - RELEASE  -
|  1> #Run DFT-D3 single point of the dimer
|  2> ! wB97X-D3 def2-TZVP TIGHTSCF CHELPG PMODEL PAL8
|  3>
|  4> %base "19-127_DFT_AB"
|  5>
|  6> %scf
|  7> MaxIter 1000
|  8> end
|  9>
| 10> * xyz 0 1
| 11>   C                      5.736915             6.096399             -5.489844
| 12>   O                      5.154897             4.938208             -6.015251
| 13>   H                      5.492586             4.122501             -5.681083
| 14>   H                      5.357355             6.307799             -4.486453
| 15>   H                      6.834772             6.055645             -5.421734
| 16>   H                      5.315370             6.965713             -6.146136
| 17>   C                      3.287968             3.226782             -8.639468
| 18>   O                      3.947243             4.453909             -8.971919
| 19>   H                      3.956798             5.002304             -8.197140
| 20>   H                      2.430109             3.437104             -7.954319
| 21>   H                      2.974935             2.722716             -9.528785
| 22>   H                      3.895933             2.592943             -7.977857
| 23> *
| 24>
| 25> #Run DFT-D3 single point of the molecule with dimer basis set
| 26> $new_job
| 27> %base "19-127_DFT_A"
| 28> ! wB97X-D3 def2-TZVP TIGHTSCF CHELPG PMODEL
| 29>
| 30> %scf
| 31> MaxIter 1000
| 32> end
| 33>
| 34> * xyz 0 1
| 35>   C                      5.736915             6.096399             -5.489844
| 36>   O                      5.154897             4.938208             -6.015251
| 37>   H                      5.492586             4.122501             -5.681083
| 38>   H                      5.357355             6.307799             -4.486453
| 39>   H                      6.834772             6.055645             -5.421734
| 40>   H                      5.315370             6.965713             -6.146136
| 41>   C                    : 3.287968             3.226782             -8.639468
| 42>   O                    : 3.947243             4.453909             -8.971919
| 43>   H                    : 3.956798             5.002304             -8.197140
| 44>   H                    : 2.430109             3.437104             -7.954319
| 45>   H                    : 2.974935             2.722716             -9.528785
| 46>   H                    : 3.895933             2.592943             -7.977857
| 47> *
| 48>
| 49> #Run DFT-D3 single point of the particle with dimer basis set
| 50> $new_job
| 51> %base "19-127_DFT_B"
| 52> ! wB97X-D3 def2-TZVP TIGHTSCF CHELPG PMODEL
| 53>
| 54> %scf
| 55> MaxIter 1000
| 56> end
| 57>
| 58> * xyz 0 1
| 59>   C                    : 5.736915             6.096399             -5.489844
| 60>   O                    : 5.154897             4.938208             -6.015251
| 61>   H                    : 5.492586             4.122501             -5.681083
| 62>   H                    : 5.357355             6.307799             -4.486453
| 63>   H                    : 6.834772             6.055645             -5.421734
| 64>   H                    : 5.315370             6.965713             -6.146136
| 65>   C                      3.287968             3.226782             -8.639468
| 66>   O                      3.947243             4.453909             -8.971919
| 67>   H                      3.956798             5.002304             -8.197140
| 68>   H                      2.430109             3.437104             -7.954319
| 69>   H                      2.974935             2.722716             -9.528785
| 70>   H                      3.895933             2.592943             -7.977857
| 71> *
| 72>
| 73>                          ****END OF INPUT****
 Total Charge           Charge          ....    0
 Multiplicity           Mult            ....    1
 Number of Electrons    NEL             ....   36
Dispersion correction           -0.001664285
FINAL SINGLE POINT ENERGY      -231.470123856717
Dispersion correction           -0.000259027
FINAL SINGLE POINT ENERGY      -115.731531220763

CARTESIAN COORDINATES (ANGSTROEM)
---------------------------------
  C      5.736915    6.096399   -5.489844
  O      5.154897    4.938208   -6.015251
  H      5.492586    4.122501   -5.681083
  H      5.357355    6.307799   -4.486453
  H      6.834772    6.055645   -5.421734
  H      5.315370    6.965713   -6.146136
  C      3.287968    3.226782   -8.639468
  O      3.947243    4.453909   -8.971919
  H      3.956798    5.002304   -8.197140
  H      2.430109    3.437104   -7.954319
  H      2.974935    2.722716   -9.528785
  H      3.895933    2.592943   -7.977857

 Multiplicity           Mult            ....    1
 Number of Electrons    NEL             ....   18
 Basis Dimension        Dim             ....  172

ORBITAL ENERGIES
----------------

  NO   OCC          E(Eh)            E(eV)
   0   2.0000     -19.229179      -523.2526
   1   2.0000     -10.316455      -280.7250
   2   2.0000      -1.133017       -30.8310
   3   2.0000      -0.797324       -21.6963
   4   2.0000      -0.613057       -16.6821
   5   2.0000      -0.536209       -14.5910
   6   2.0000      -0.525841       -14.3089
   7   2.0000      -0.440725       -11.9927
   8   2.0000      -0.370661       -10.0862
   9   0.0000       0.072108         1.9622
  10   0.0000       0.124908         3.3989
  11   0.0000       0.143998         3.9184
  12   0.0000       0.167680         4.5628
  13   0.0000       0.198674         5.4062

MULLIKEN ATOMIC CHARGES
-----------------------
   0 C :   -0.001844
   1 O :   -0.001901
   2 H :   -0.000125
   3 H :    0.000030
   4 H :    0.000100
   5 H :    0.000010
   6 C :   -0.170682
   7 O :   -0.473039
   8 H :    0.312426
   9 H :    0.101688
  10 H :    0.131090
  11 H :    0.102247
Sum of atomic charges:   -0.0000000

LOEWDIN ATOMIC CHARGES
----------------------
   0 C :   -0.001323
   1 O :   -0.005641
   2 H :   -0.000592
   3 H :   -0.000025
   4 H :   -0.000018
   5 H :   -0.000256
   6 C :   -0.369480
   7 O :   -0.080738
   8 H :    0.159628
   9 H :    0.100450
  10 H :    0.103204
  11 H :    0.094790

  Mayer bond orders larger than 0.1
B(  6-C ,  7-O ) :   0.9939 B(  6-C ,  9-H ) :   0.9837 B(  6-C , 10-H ) :   0.9733
B(  6-C , 11-H ) :   0.9706 B(  7-O ,  8-H ) :   0.9053

Dispersion correction           -0.000240848
FINAL SINGLE POINT ENERGY      -115.733807754889

DIPOLE MOMENT
-------------
                                X             Y             Z
Electronic contribution:      0.87077       1.44636      -0.73282
Nuclear contribution   :     -1.14365      -1.59526       1.35798
                        -----------------------------------------
Total Dipole Moment    :     -0.27288      -0.14889       0.62516
                        -----------------------------------------
Magnitude (a.u.)       :      0.69818
Magnitude (Debye)      :      1.77464

Rotational constants in cm-1:     4.286507     0.820527     0.781776
Rotational constants in MHz : 128506.235911 24598.786991 23437.052904

                             ****ORCA TERMINATED NORMALLY****
TOTAL RUN TIME: 0 days 0 hours 0 minutes 48 seconds 875 msec
