                         Program Version 4.1.2  - RELEASE  -
|  1> #Run DFT-D3 single point of the dimer
|  2> ! wB97X-D3 def2-TZVP TIGHTSCF CHELPG PMODEL PAL8
|  3>
|  4> %base "3-157_DFT_AB"
|  5>
|  6> %scf
|  7> MaxIter 1000
|  8> end
|  9>
| 10> * xyz 0 1
| 11>   C                      6.369187             -9.904875            -6.703849
| 12>   O                      6.245421             -9.413843            -5.411142
| 13>   H                      6.942337             -9.718965            -4.856947
| 14>   H                      5.664437             -9.421000            -7.422368
| 15>   H                      7.396688             -9.835106            -7.022802
| 16>   H                      6.137889             -10.954571           -6.839164
| 17>   C                      3.923328             -6.015317            -7.830760
| 18>   O                      4.716939             -7.094620            -7.366473
| 19>   H                      4.814119             -6.920206            -6.427046
| 20>   H                      4.304052             -5.098530            -7.480728
| 21>   H                      3.776047             -6.051977            -8.912283
| 22>   H                      2.902792             -6.095236            -7.415277
| 23> *
| 24>
| 25> #Run DFT-D3 single point of the molecule with dimer basis set
| 26> $new_job
| 27> %base "3-157_DFT_A"
| 28> ! wB97X-D3 def2-TZVP TIGHTSCF CHELPG PMODEL
| 29>
| 30> %scf
| 31> MaxIter 1000
| 32> end
| 33>
| 34> * xyz 0 1
| 35>   C                      6.369187             -9.904875            -6.703849
| 36>   O                      6.245421             -9.413843            -5.411142
| 37>   H                      6.942337             -9.718965            -4.856947
| 38>   H                      5.664437             -9.421000            -7.422368
| 39>   H                      7.396688             -9.835106            -7.022802
| 40>   H                      6.137889             -10.954571           -6.839164
| 41>   C                    : 3.923328             -6.015317            -7.830760
| 42>   O                    : 4.716939             -7.094620            -7.366473
| 43>   H                    : 4.814119             -6.920206            -6.427046
| 44>   H                    : 4.304052             -5.098530            -7.480728
| 45>   H                    : 3.776047             -6.051977            -8.912283
| 46>   H                    : 2.902792             -6.095236            -7.415277
| 47> *
| 48>
| 49> #Run DFT-D3 single point of the particle with dimer basis set
| 50> $new_job
| 51> %base "3-157_DFT_B"
| 52> ! wB97X-D3 def2-TZVP TIGHTSCF CHELPG PMODEL
| 53>
| 54> %scf
| 55> MaxIter 1000
| 56> end
| 57>
| 58> * xyz 0 1
| 59>   C                    : 6.369187             -9.904875            -6.703849
| 60>   O                    : 6.245421             -9.413843            -5.411142
| 61>   H                    : 6.942337             -9.718965            -4.856947
| 62>   H                    : 5.664437             -9.421000            -7.422368
| 63>   H                    : 7.396688             -9.835106            -7.022802
| 64>   H                    : 6.137889             -10.954571           -6.839164
| 65>   C                      3.923328             -6.015317            -7.830760
| 66>   O                      4.716939             -7.094620            -7.366473
| 67>   H                      4.814119             -6.920206            -6.427046
| 68>   H                      4.304052             -5.098530            -7.480728
| 69>   H                      3.776047             -6.051977            -8.912283
| 70>   H                      2.902792             -6.095236            -7.415277
| 71> *
| 72>
| 73>                          ****END OF INPUT****
 Total Charge           Charge          ....    0
 Multiplicity           Mult            ....    1
 Number of Electrons    NEL             ....   36
Dispersion correction           -0.001477496
FINAL SINGLE POINT ENERGY      -231.469759387909
Dispersion correction           -0.000240114
FINAL SINGLE POINT ENERGY      -115.732751859594

CARTESIAN COORDINATES (ANGSTROEM)
---------------------------------
  C      6.369187   -9.904875   -6.703849
  O      6.245421   -9.413843   -5.411142
  H      6.942337   -9.718965   -4.856947
  H      5.664437   -9.421000   -7.422368
  H      7.396688   -9.835106   -7.022802
  H      6.137889  -10.954571   -6.839164
  C      3.923328   -6.015317   -7.830760
  O      4.716939   -7.094620   -7.366473
  H      4.814119   -6.920206   -6.427046
  H      4.304052   -5.098530   -7.480728
  H      3.776047   -6.051977   -8.912283
  H      2.902792   -6.095236   -7.415277

 Multiplicity           Mult            ....    1
 Number of Electrons    NEL             ....   18
 Basis Dimension        Dim             ....  172

ORBITAL ENERGIES
----------------

  NO   OCC          E(Eh)            E(eV)
   0   2.0000     -19.230769      -523.2958
   1   2.0000     -10.310453      -280.5617
   2   2.0000      -1.137883       -30.9634
   3   2.0000      -0.796501       -21.6739
   4   2.0000      -0.612695       -16.6723
   5   2.0000      -0.543738       -14.7959
   6   2.0000      -0.527050       -14.3418
   7   2.0000      -0.442140       -12.0313
   8   2.0000      -0.371565       -10.1108
   9   0.0000       0.092568         2.5189
  10   0.0000       0.122398         3.3306
  11   0.0000       0.156968         4.2713
  12   0.0000       0.173225         4.7137
  13   0.0000       0.203094         5.5265

MULLIKEN ATOMIC CHARGES
-----------------------
   0 C :    0.001525
   1 O :   -0.000126
   2 H :    0.000006
   3 H :   -0.009989
   4 H :   -0.000024
   5 H :   -0.000118
   6 C :   -0.167780
   7 O :   -0.459236
   8 H :    0.312854
   9 H :    0.102921
  10 H :    0.123470
  11 H :    0.096495
Sum of atomic charges:    0.0000000

LOEWDIN ATOMIC CHARGES
----------------------
   0 C :   -0.007998
   1 O :   -0.000702
   2 H :   -0.000032
   3 H :   -0.011459
   4 H :   -0.000112
   5 H :   -0.000047
   6 C :   -0.377936
   7 O :   -0.066012
   8 H :    0.172440
   9 H :    0.085932
  10 H :    0.109359
  11 H :    0.096567

  Mayer bond orders larger than 0.1
B(  6-C ,  7-O ) :   0.9914 B(  6-C ,  9-H ) :   0.9790 B(  6-C , 10-H ) :   0.9742
B(  6-C , 11-H ) :   0.9778 B(  7-O ,  8-H ) :   0.9000

Dispersion correction           -0.000217980
FINAL SINGLE POINT ENERGY      -115.733972388962

DIPOLE MOMENT
-------------
                                X             Y             Z
Electronic contribution:      1.13515      -1.37346       0.37305
Nuclear contribution   :     -1.39618       1.92858       0.02501
                        -----------------------------------------
Total Dipole Moment    :     -0.26102       0.55512       0.39806
                        -----------------------------------------
Magnitude (a.u.)       :      0.73126
Magnitude (Debye)      :      1.85871

Rotational constants in cm-1:     4.323572     0.838558     0.801229
Rotational constants in MHz : 129617.414460 25139.333455 24020.234631

                             ****ORCA TERMINATED NORMALLY****
TOTAL RUN TIME: 0 days 0 hours 6 minutes 22 seconds 824 msec
