                         Program Version 4.1.2  - RELEASE  -
|  1> #Run DFT-D3 single point of the dimer
|  2> ! wB97X-D3 def2-TZVP TIGHTSCF CHELPG PMODEL PAL8
|  3>
|  4> %base "17-139_DFT_AB"
|  5>
|  6> %scf
|  7> MaxIter 1000
|  8> end
|  9>
| 10> * xyz 0 1
| 11>   C                      2.761676             -6.208087            3.528277
| 12>   O                      3.031626             -7.417651            2.918432
| 13>   H                      2.459564             -7.478778            2.192738
| 14>   H                      3.046349             -6.231249            4.572474
| 15>   H                      3.447008             -5.440362            3.205289
| 16>   H                      1.725867             -5.883107            3.328720
| 17>   C                      3.336545             -6.019057            -0.127289
| 18>   O                      2.124200             -6.692143            -0.632479
| 19>   H                      2.245712             -6.788249            -1.551181
| 20>   H                      3.279200             -5.674546            0.871108
| 21>   H                      4.169471             -6.729841            -0.125674
| 22>   H                      3.693860             -5.153305            -0.729483
| 23> *
| 24>
| 25> #Run DFT-D3 single point of the molecule with dimer basis set
| 26> $new_job
| 27> %base "17-139_DFT_A"
| 28> ! wB97X-D3 def2-TZVP TIGHTSCF CHELPG PMODEL
| 29>
| 30> %scf
| 31> MaxIter 1000
| 32> end
| 33>
| 34> * xyz 0 1
| 35>   C                      2.761676             -6.208087            3.528277
| 36>   O                      3.031626             -7.417651            2.918432
| 37>   H                      2.459564             -7.478778            2.192738
| 38>   H                      3.046349             -6.231249            4.572474
| 39>   H                      3.447008             -5.440362            3.205289
| 40>   H                      1.725867             -5.883107            3.328720
| 41>   C                    : 3.336545             -6.019057            -0.127289
| 42>   O                    : 2.124200             -6.692143            -0.632479
| 43>   H                    : 2.245712             -6.788249            -1.551181
| 44>   H                    : 3.279200             -5.674546            0.871108
| 45>   H                    : 4.169471             -6.729841            -0.125674
| 46>   H                    : 3.693860             -5.153305            -0.729483
| 47> *
| 48>
| 49> #Run DFT-D3 single point of the particle with dimer basis set
| 50> $new_job
| 51> %base "17-139_DFT_B"
| 52> ! wB97X-D3 def2-TZVP TIGHTSCF CHELPG PMODEL
| 53>
| 54> %scf
| 55> MaxIter 1000
| 56> end
| 57>
| 58> * xyz 0 1
| 59>   C                    : 2.761676             -6.208087            3.528277
| 60>   O                    : 3.031626             -7.417651            2.918432
| 61>   H                    : 2.459564             -7.478778            2.192738
| 62>   H                    : 3.046349             -6.231249            4.572474
| 63>   H                    : 3.447008             -5.440362            3.205289
| 64>   H                    : 1.725867             -5.883107            3.328720
| 65>   C                      3.336545             -6.019057            -0.127289
| 66>   O                      2.124200             -6.692143            -0.632479
| 67>   H                      2.245712             -6.788249            -1.551181
| 68>   H                      3.279200             -5.674546            0.871108
| 69>   H                      4.169471             -6.729841            -0.125674
| 70>   H                      3.693860             -5.153305            -0.729483
| 71> *
| 72>
| 73>                          ****END OF INPUT****
 Total Charge           Charge          ....    0
 Multiplicity           Mult            ....    1
 Number of Electrons    NEL             ....   36
Dispersion correction           -0.002044821
FINAL SINGLE POINT ENERGY      -231.464624060510
Dispersion correction           -0.000222216
FINAL SINGLE POINT ENERGY      -115.731220279592

CARTESIAN COORDINATES (ANGSTROEM)
---------------------------------
  C      2.761676   -6.208087    3.528277
  O      3.031626   -7.417651    2.918432
  H      2.459564   -7.478778    2.192738
  H      3.046349   -6.231249    4.572474
  H      3.447008   -5.440362    3.205289
  H      1.725867   -5.883107    3.328720
  C      3.336545   -6.019057   -0.127289
  O      2.124200   -6.692143   -0.632479
  H      2.245712   -6.788249   -1.551181
  H      3.279200   -5.674546    0.871108
  H      4.169471   -6.729841   -0.125674
  H      3.693860   -5.153305   -0.729483

 Multiplicity           Mult            ....    1
 Number of Electrons    NEL             ....   18
 Basis Dimension        Dim             ....  172

ORBITAL ENERGIES
----------------

  NO   OCC          E(Eh)            E(eV)
   0   2.0000     -19.231034      -523.3030
   1   2.0000     -10.317817      -280.7621
   2   2.0000      -1.126772       -30.6610
   3   2.0000      -0.803936       -21.8762
   4   2.0000      -0.603701       -16.4275
   5   2.0000      -0.532069       -14.4783
   6   2.0000      -0.526850       -14.3363
   7   2.0000      -0.442587       -12.0434
   8   2.0000      -0.377041       -10.2598
   9   0.0000       0.092037         2.5045
  10   0.0000       0.121402         3.3035
  11   0.0000       0.150615         4.0984
  12   0.0000       0.178655         4.8614
  13   0.0000       0.191127         5.2008

MULLIKEN ATOMIC CHARGES
-----------------------
   0 C :    0.002932
   1 O :   -0.000607
   2 H :    0.000083
   3 H :    0.000258
   4 H :   -0.000786
   5 H :   -0.000679
   6 C :   -0.187824
   7 O :   -0.471628
   8 H :    0.308385
   9 H :    0.126494
  10 H :    0.110217
  11 H :    0.113156
Sum of atomic charges:    0.0000000

LOEWDIN ATOMIC CHARGES
----------------------
   0 C :   -0.008250
   1 O :   -0.001845
   2 H :   -0.004243
   3 H :   -0.000052
   4 H :   -0.003110
   5 H :   -0.000376
   6 C :   -0.337239
   7 O :   -0.098119
   8 H :    0.146574
   9 H :    0.105506
  10 H :    0.098948
  11 H :    0.102204

  Mayer bond orders larger than 0.1
B(  6-C ,  7-O ) :   0.9981 B(  6-C ,  9-H ) :   0.9759 B(  6-C , 10-H ) :   0.9856
B(  6-C , 11-H ) :   0.9677 B(  7-O ,  8-H ) :   0.9082

Dispersion correction           -0.000274012
FINAL SINGLE POINT ENERGY      -115.730071625613

DIPOLE MOMENT
-------------
                                X             Y             Z
Electronic contribution:     -1.69662      -0.80488      -0.45884
Nuclear contribution   :      2.29716       1.03516       0.10184
                        -----------------------------------------
Total Dipole Moment    :      0.60055       0.23028      -0.35699
                        -----------------------------------------
Magnitude (a.u.)       :      0.73561
Magnitude (Debye)      :      1.86978

Rotational constants in cm-1:     4.487671     0.767941     0.743958
Rotational constants in MHz : 134536.988047 23022.297243 22303.294859

                             ****ORCA TERMINATED NORMALLY****
TOTAL RUN TIME: 0 days 0 hours 1 minutes 13 seconds 951 msec
