                         Program Version 4.1.2  - RELEASE  -
|  1> #Run DFT-D3 single point of the dimer
|  2> ! wB97X-D3 def2-TZVP TIGHTSCF CHELPG PMODEL PAL8
|  3>
|  4> %base "3-158_DFT_AB"
|  5>
|  6> %scf
|  7> MaxIter 1000
|  8> end
|  9>
| 10> * xyz 0 1
| 11>   C                      5.253205             4.507074             -3.053376
| 12>   O                      5.078979             3.592392             -4.076095
| 13>   H                      5.864764             3.683690             -4.620839
| 14>   H                      4.340975             4.627776             -2.440658
| 15>   H                      6.206101             4.469384             -2.478846
| 16>   H                      5.314553             5.510813             -3.427747
| 17>   C                      7.637441             1.901830             -7.124614
| 18>   O                      8.006855             2.786531             -8.216993
| 19>   H                      7.777060             3.687754             -7.978037
| 20>   H                      8.049334             0.952244             -7.248517
| 21>   H                      8.035517             2.236352             -6.181729
| 22>   H                      6.562761             1.806006             -7.065401
| 23> *
| 24>
| 25> #Run DFT-D3 single point of the molecule with dimer basis set
| 26> $new_job
| 27> %base "3-158_DFT_A"
| 28> ! wB97X-D3 def2-TZVP TIGHTSCF CHELPG PMODEL
| 29>
| 30> %scf
| 31> MaxIter 1000
| 32> end
| 33>
| 34> * xyz 0 1
| 35>   C                      5.253205             4.507074             -3.053376
| 36>   O                      5.078979             3.592392             -4.076095
| 37>   H                      5.864764             3.683690             -4.620839
| 38>   H                      4.340975             4.627776             -2.440658
| 39>   H                      6.206101             4.469384             -2.478846
| 40>   H                      5.314553             5.510813             -3.427747
| 41>   C                    : 7.637441             1.901830             -7.124614
| 42>   O                    : 8.006855             2.786531             -8.216993
| 43>   H                    : 7.777060             3.687754             -7.978037
| 44>   H                    : 8.049334             0.952244             -7.248517
| 45>   H                    : 8.035517             2.236352             -6.181729
| 46>   H                    : 6.562761             1.806006             -7.065401
| 47> *
| 48>
| 49> #Run DFT-D3 single point of the particle with dimer basis set
| 50> $new_job
| 51> %base "3-158_DFT_B"
| 52> ! wB97X-D3 def2-TZVP TIGHTSCF CHELPG PMODEL
| 53>
| 54> %scf
| 55> MaxIter 1000
| 56> end
| 57>
| 58> * xyz 0 1
| 59>   C                    : 5.253205             4.507074             -3.053376
| 60>   O                    : 5.078979             3.592392             -4.076095
| 61>   H                    : 5.864764             3.683690             -4.620839
| 62>   H                    : 4.340975             4.627776             -2.440658
| 63>   H                    : 6.206101             4.469384             -2.478846
| 64>   H                    : 5.314553             5.510813             -3.427747
| 65>   C                      7.637441             1.901830             -7.124614
| 66>   O                      8.006855             2.786531             -8.216993
| 67>   H                      7.777060             3.687754             -7.978037
| 68>   H                      8.049334             0.952244             -7.248517
| 69>   H                      8.035517             2.236352             -6.181729
| 70>   H                      6.562761             1.806006             -7.065401
| 71> *
| 72>
| 73>                          ****END OF INPUT****
 Total Charge           Charge          ....    0
 Multiplicity           Mult            ....    1
 Number of Electrons    NEL             ....   36
Dispersion correction           -0.001028101
FINAL SINGLE POINT ENERGY      -231.462445760389
Dispersion correction           -0.000230770
FINAL SINGLE POINT ENERGY      -115.728764062362

CARTESIAN COORDINATES (ANGSTROEM)
---------------------------------
  C      5.253205    4.507074   -3.053376
  O      5.078979    3.592392   -4.076095
  H      5.864764    3.683690   -4.620839
  H      4.340975    4.627776   -2.440658
  H      6.206101    4.469384   -2.478846
  H      5.314553    5.510813   -3.427747
  C      7.637441    1.901830   -7.124614
  O      8.006855    2.786531   -8.216993
  H      7.777060    3.687754   -7.978037
  H      8.049334    0.952244   -7.248517
  H      8.035517    2.236352   -6.181729
  H      6.562761    1.806006   -7.065401

 Multiplicity           Mult            ....    1
 Number of Electrons    NEL             ....   18
 Basis Dimension        Dim             ....  172

ORBITAL ENERGIES
----------------

  NO   OCC          E(Eh)            E(eV)
   0   2.0000     -19.228145      -523.2244
   1   2.0000     -10.307818      -280.4900
   2   2.0000      -1.122456       -30.5436
   3   2.0000      -0.805130       -21.9087
   4   2.0000      -0.602021       -16.3818
   5   2.0000      -0.544363       -14.8129
   6   2.0000      -0.527538       -14.3550
   7   2.0000      -0.434266       -11.8170
   8   2.0000      -0.375716       -10.2237
   9   0.0000       0.079200         2.1551
  10   0.0000       0.115173         3.1340
  11   0.0000       0.146703         3.9920
  12   0.0000       0.182228         4.9587
  13   0.0000       0.186325         5.0702

MULLIKEN ATOMIC CHARGES
-----------------------
   0 C :    0.000001
   1 O :   -0.000007
   2 H :   -0.000346
   3 H :   -0.000000
   4 H :   -0.000012
   5 H :   -0.000003
   6 C :   -0.158193
   7 O :   -0.488329
   8 H :    0.314342
   9 H :    0.124532
  10 H :    0.101442
  11 H :    0.106573
Sum of atomic charges:    0.0000000

LOEWDIN ATOMIC CHARGES
----------------------
   0 C :   -0.000026
   1 O :   -0.000110
   2 H :   -0.001022
   3 H :   -0.000000
   4 H :   -0.000003
   5 H :   -0.000000
   6 C :   -0.343867
   7 O :   -0.105892
   8 H :    0.164672
   9 H :    0.097307
  10 H :    0.093646
  11 H :    0.095296

  Mayer bond orders larger than 0.1
B(  6-C ,  7-O ) :   0.9961 B(  6-C ,  9-H ) :   0.9737 B(  6-C , 10-H ) :   0.9793
B(  6-C , 11-H ) :   0.9784 B(  7-O ,  8-H ) :   0.9001

Dispersion correction           -0.000250200
FINAL SINGLE POINT ENERGY      -115.733607130868

DIPOLE MOMENT
-------------
                                X             Y             Z
Electronic contribution:      0.50440       0.94574      -1.43288
Nuclear contribution   :     -0.79200      -0.77002       2.05909
                        -----------------------------------------
Total Dipole Moment    :     -0.28760       0.17572       0.62621
                        -----------------------------------------
Magnitude (a.u.)       :      0.71115
Magnitude (Debye)      :      1.80759

Rotational constants in cm-1:     4.501182     0.792974     0.772653
Rotational constants in MHz : 134942.045567 23772.758502 23163.539732

                             ****ORCA TERMINATED NORMALLY****
TOTAL RUN TIME: 0 days 0 hours 6 minutes 22 seconds 430 msec
