                         Program Version 4.1.2  - RELEASE  -
|  1> #Run DFT-D3 single point of the dimer
|  2> ! wB97X-D3 def2-TZVP TIGHTSCF CHELPG PMODEL PAL8
|  3>
|  4> %base "17-35_DFT_AB"
|  5>
|  6> %scf
|  7> MaxIter 1000
|  8> end
|  9>
| 10> * xyz 0 1
| 11>   C                      -1.552654            -0.347999            4.263472
| 12>   O                      -0.675985            -0.786314            3.238730
| 13>   H                      -1.311521            -0.903148            2.507645
| 14>   H                      -1.893925            0.644904             3.934240
| 15>   H                      -2.420135            -0.936720            4.503697
| 16>   H                      -1.047543            -0.169033            5.200596
| 17>   C                      -4.294630            2.636762             2.112842
| 18>   O                      -2.945016            2.913256             2.396499
| 19>   H                      -2.375241            2.588121             1.690587
| 20>   H                      -4.235161            1.715632             1.468674
| 21>   H                      -4.920146            2.517834             3.005229
| 22>   H                      -4.786454            3.438552             1.510866
| 23> *
| 24>
| 25> #Run DFT-D3 single point of the molecule with dimer basis set
| 26> $new_job
| 27> %base "17-35_DFT_A"
| 28> ! wB97X-D3 def2-TZVP TIGHTSCF CHELPG PMODEL
| 29>
| 30> %scf
| 31> MaxIter 1000
| 32> end
| 33>
| 34> * xyz 0 1
| 35>   C                      -1.552654            -0.347999            4.263472
| 36>   O                      -0.675985            -0.786314            3.238730
| 37>   H                      -1.311521            -0.903148            2.507645
| 38>   H                      -1.893925            0.644904             3.934240
| 39>   H                      -2.420135            -0.936720            4.503697
| 40>   H                      -1.047543            -0.169033            5.200596
| 41>   C                    : -4.294630            2.636762             2.112842
| 42>   O                    : -2.945016            2.913256             2.396499
| 43>   H                    : -2.375241            2.588121             1.690587
| 44>   H                    : -4.235161            1.715632             1.468674
| 45>   H                    : -4.920146            2.517834             3.005229
| 46>   H                    : -4.786454            3.438552             1.510866
| 47> *
| 48>
| 49> #Run DFT-D3 single point of the particle with dimer basis set
| 50> $new_job
| 51> %base "17-35_DFT_B"
| 52> ! wB97X-D3 def2-TZVP TIGHTSCF CHELPG PMODEL
| 53>
| 54> %scf
| 55> MaxIter 1000
| 56> end
| 57>
| 58> * xyz 0 1
| 59>   C                    : -1.552654            -0.347999            4.263472
| 60>   O                    : -0.675985            -0.786314            3.238730
| 61>   H                    : -1.311521            -0.903148            2.507645
| 62>   H                    : -1.893925            0.644904             3.934240
| 63>   H                    : -2.420135            -0.936720            4.503697
| 64>   H                    : -1.047543            -0.169033            5.200596
| 65>   C                      -4.294630            2.636762             2.112842
| 66>   O                      -2.945016            2.913256             2.396499
| 67>   H                      -2.375241            2.588121             1.690587
| 68>   H                      -4.235161            1.715632             1.468674
| 69>   H                      -4.920146            2.517834             3.005229
| 70>   H                      -4.786454            3.438552             1.510866
| 71> *
| 72>
| 73>                          ****END OF INPUT****
 Total Charge           Charge          ....    0
 Multiplicity           Mult            ....    1
 Number of Electrons    NEL             ....   36
Dispersion correction           -0.001350504
FINAL SINGLE POINT ENERGY      -231.463364243029
Dispersion correction           -0.000224197
FINAL SINGLE POINT ENERGY      -115.730858839596

CARTESIAN COORDINATES (ANGSTROEM)
---------------------------------
  C     -1.552654   -0.347999    4.263472
  O     -0.675985   -0.786314    3.238730
  H     -1.311521   -0.903148    2.507645
  H     -1.893925    0.644904    3.934240
  H     -2.420135   -0.936720    4.503697
  H     -1.047543   -0.169033    5.200596
  C     -4.294630    2.636762    2.112842
  O     -2.945016    2.913256    2.396499
  H     -2.375241    2.588121    1.690587
  H     -4.235161    1.715632    1.468674
  H     -4.920146    2.517834    3.005229
  H     -4.786454    3.438552    1.510866

 Multiplicity           Mult            ....    1
 Number of Electrons    NEL             ....   18
 Basis Dimension        Dim             ....  172

ORBITAL ENERGIES
----------------

  NO   OCC          E(Eh)            E(eV)
   0   2.0000     -19.228811      -523.2426
   1   2.0000     -10.319964      -280.8205
   2   2.0000      -1.137010       -30.9396
   3   2.0000      -0.791313       -21.5327
   4   2.0000      -0.610108       -16.6019
   5   2.0000      -0.543288       -14.7836
   6   2.0000      -0.532310       -14.4849
   7   2.0000      -0.425550       -11.5798
   8   2.0000      -0.369681       -10.0595
   9   0.0000       0.084250         2.2926
  10   0.0000       0.120450         3.2776
  11   0.0000       0.150969         4.1081
  12   0.0000       0.169418         4.6101
  13   0.0000       0.199556         5.4302

MULLIKEN ATOMIC CHARGES
-----------------------
   0 C :    0.004278
   1 O :    0.000038
   2 H :   -0.000275
   3 H :   -0.012119
   4 H :   -0.000144
   5 H :   -0.000295
   6 C :   -0.162334
   7 O :   -0.473683
   8 H :    0.321409
   9 H :    0.098106
  10 H :    0.123130
  11 H :    0.101890
Sum of atomic charges:    0.0000000

LOEWDIN ATOMIC CHARGES
----------------------
   0 C :   -0.001649
   1 O :   -0.000026
   2 H :   -0.000131
   3 H :   -0.006932
   4 H :   -0.000020
   5 H :   -0.000018
   6 C :   -0.394584
   7 O :   -0.074399
   8 H :    0.171971
   9 H :    0.102893
  10 H :    0.105914
  11 H :    0.096982

  Mayer bond orders larger than 0.1
B(  6-C ,  7-O ) :   0.9921 B(  6-C ,  9-H ) :   0.9960 B(  6-C , 10-H ) :   0.9721
B(  6-C , 11-H ) :   0.9655 B(  7-O ,  8-H ) :   0.8942

Dispersion correction           -0.000241892
FINAL SINGLE POINT ENERGY      -115.731411912312

DIPOLE MOMENT
-------------
                                X             Y             Z
Electronic contribution:      1.64203       0.43762       0.60092
Nuclear contribution   :     -1.81273      -0.75121      -1.16547
                        -----------------------------------------
Total Dipole Moment    :     -0.17071      -0.31359      -0.56456
                        -----------------------------------------
Magnitude (a.u.)       :      0.66798
Magnitude (Debye)      :      1.69788

Rotational constants in cm-1:     4.197086     0.838288     0.801856
Rotational constants in MHz : 125825.480443 25131.249410 24039.027160

                             ****ORCA TERMINATED NORMALLY****
TOTAL RUN TIME: 0 days 0 hours 1 minutes 9 seconds 963 msec
