                         Program Version 4.1.2  - RELEASE  -
|  1> #Run DFT-D3 single point of the dimer
|  2> ! wB97X-D3 def2-TZVP TIGHTSCF CHELPG PMODEL PAL8
|  3>
|  4> %base "13-179_DFT_AB"
|  5>
|  6> %scf
|  7> MaxIter 1000
|  8> end
|  9>
| 10> * xyz 0 1
| 11>   C                      5.169243             -9.493771            5.503406
| 12>   O                      3.942726             -9.233860            4.939729
| 13>   H                      3.428846             -8.678624            5.570812
| 14>   H                      5.209470             -9.584556            6.578923
| 15>   H                      5.409796             -10.512706           5.172332
| 16>   H                      5.951064             -8.839104            5.193346
| 17>   C                      1.483143             -6.670682            7.141050
| 18>   O                      2.279742             -7.741575            6.943652
| 19>   H                      2.653894             -7.988781            7.827667
| 20>   H                      0.787316             -6.515755            6.273544
| 21>   H                      0.770089             -6.797256            7.967102
| 22>   H                      2.020372             -5.751115            7.456566
| 23> *
| 24>
| 25> #Run DFT-D3 single point of the molecule with dimer basis set
| 26> $new_job
| 27> %base "13-179_DFT_A"
| 28> ! wB97X-D3 def2-TZVP TIGHTSCF CHELPG PMODEL
| 29>
| 30> %scf
| 31> MaxIter 1000
| 32> end
| 33>
| 34> * xyz 0 1
| 35>   C                      5.169243             -9.493771            5.503406
| 36>   O                      3.942726             -9.233860            4.939729
| 37>   H                      3.428846             -8.678624            5.570812
| 38>   H                      5.209470             -9.584556            6.578923
| 39>   H                      5.409796             -10.512706           5.172332
| 40>   H                      5.951064             -8.839104            5.193346
| 41>   C                    : 1.483143             -6.670682            7.141050
| 42>   O                    : 2.279742             -7.741575            6.943652
| 43>   H                    : 2.653894             -7.988781            7.827667
| 44>   H                    : 0.787316             -6.515755            6.273544
| 45>   H                    : 0.770089             -6.797256            7.967102
| 46>   H                    : 2.020372             -5.751115            7.456566
| 47> *
| 48>
| 49> #Run DFT-D3 single point of the particle with dimer basis set
| 50> $new_job
| 51> %base "13-179_DFT_B"
| 52> ! wB97X-D3 def2-TZVP TIGHTSCF CHELPG PMODEL
| 53>
| 54> %scf
| 55> MaxIter 1000
| 56> end
| 57>
| 58> * xyz 0 1
| 59>   C                    : 5.169243             -9.493771            5.503406
| 60>   O                    : 3.942726             -9.233860            4.939729
| 61>   H                    : 3.428846             -8.678624            5.570812
| 62>   H                    : 5.209470             -9.584556            6.578923
| 63>   H                    : 5.409796             -10.512706           5.172332
| 64>   H                    : 5.951064             -8.839104            5.193346
| 65>   C                      1.483143             -6.670682            7.141050
| 66>   O                      2.279742             -7.741575            6.943652
| 67>   H                      2.653894             -7.988781            7.827667
| 68>   H                      0.787316             -6.515755            6.273544
| 69>   H                      0.770089             -6.797256            7.967102
| 70>   H                      2.020372             -5.751115            7.456566
| 71> *
| 72>
| 73>                          ****END OF INPUT****
 Total Charge           Charge          ....    0
 Multiplicity           Mult            ....    1
 Number of Electrons    NEL             ....   36
Dispersion correction           -0.001481931
FINAL SINGLE POINT ENERGY      -231.469718827162
Dispersion correction           -0.000237899
FINAL SINGLE POINT ENERGY      -115.732259689812

CARTESIAN COORDINATES (ANGSTROEM)
---------------------------------
  C      5.169243   -9.493771    5.503406
  O      3.942726   -9.233860    4.939729
  H      3.428846   -8.678624    5.570812
  H      5.209470   -9.584556    6.578923
  H      5.409796  -10.512706    5.172332
  H      5.951064   -8.839104    5.193346
  C      1.483143   -6.670682    7.141050
  O      2.279742   -7.741575    6.943652
  H      2.653894   -7.988781    7.827667
  H      0.787316   -6.515755    6.273544
  H      0.770089   -6.797256    7.967102
  H      2.020372   -5.751115    7.456566

 Multiplicity           Mult            ....    1
 Number of Electrons    NEL             ....   18
 Basis Dimension        Dim             ....  172

ORBITAL ENERGIES
----------------

  NO   OCC          E(Eh)            E(eV)
   0   2.0000     -19.237613      -523.4821
   1   2.0000     -10.312717      -280.6233
   2   2.0000      -1.156190       -31.4615
   3   2.0000      -0.787412       -21.4266
   4   2.0000      -0.625639       -17.0245
   5   2.0000      -0.548239       -14.9184
   6   2.0000      -0.529283       -14.4025
   7   2.0000      -0.429257       -11.6807
   8   2.0000      -0.369183       -10.0460
   9   0.0000       0.093000         2.5307
  10   0.0000       0.119918         3.2631
  11   0.0000       0.152304         4.1444
  12   0.0000       0.185859         5.0575
  13   0.0000       0.202990         5.5237

MULLIKEN ATOMIC CHARGES
-----------------------
   0 C :   -0.000278
   1 O :    0.000457
   2 H :   -0.009909
   3 H :   -0.000845
   4 H :   -0.000187
   5 H :    0.000139
   6 C :   -0.161061
   7 O :   -0.446871
   8 H :    0.321588
   9 H :    0.116332
  10 H :    0.089786
  11 H :    0.090849
Sum of atomic charges:    0.0000000

LOEWDIN ATOMIC CHARGES
----------------------
   0 C :   -0.002299
   1 O :   -0.003268
   2 H :   -0.035851
   3 H :   -0.000393
   4 H :   -0.000045
   5 H :   -0.000023
   6 C :   -0.451266
   7 O :   -0.003823
   8 H :    0.197864
   9 H :    0.114804
  10 H :    0.091226
  11 H :    0.093076

  Mayer bond orders larger than 0.1
B(  6-C ,  7-O ) :   1.0100 B(  6-C ,  9-H ) :   0.9740 B(  6-C , 10-H ) :   0.9745
B(  6-C , 11-H ) :   0.9711 B(  7-O ,  8-H ) :   0.8850

Dispersion correction           -0.000224977
FINAL SINGLE POINT ENERGY      -115.730261312767

DIPOLE MOMENT
-------------
                                X             Y             Z
Electronic contribution:      1.17067      -1.49928      -0.51458
Nuclear contribution   :     -1.24159       1.69526       1.15584
                        -----------------------------------------
Total Dipole Moment    :     -0.07092       0.19599       0.64127
                        -----------------------------------------
Magnitude (a.u.)       :      0.67429
Magnitude (Debye)      :      1.71390

Rotational constants in cm-1:     4.229948     0.889026     0.846022
Rotational constants in MHz : 126810.643994 26652.338942 25363.098617

                             ****ORCA TERMINATED NORMALLY****
TOTAL RUN TIME: 0 days 0 hours 1 minutes 14 seconds 57 msec
