                         Program Version 4.1.2  - RELEASE  -
|  1> #Run DFT-D3 single point of the dimer
|  2> ! wB97X-D3 def2-TZVP TIGHTSCF CHELPG PMODEL PAL8
|  3>
|  4> %base "7-136_DFT_AB"
|  5>
|  6> %scf
|  7> MaxIter 1000
|  8> end
|  9>
| 10> * xyz 0 1
| 11>   C                      -6.417568            5.724779             -9.595401
| 12>   O                      -6.496729            5.320561             -10.985951
| 13>   H                      -5.837591            4.593481             -11.037787
| 14>   H                      -5.394733            5.521762             -9.256778
| 15>   H                      -6.775722            6.772513             -9.423022
| 16>   H                      -7.171860            5.219922             -8.997641
| 17>   C                      -5.953416            6.441439             -5.791146
| 18>   O                      -4.882713            6.105189             -6.733241
| 19>   H                      -4.725952            5.151699             -6.657263
| 20>   H                      -5.894636            7.567412             -5.696806
| 21>   H                      -6.940423            6.332680             -6.210736
| 22>   H                      -5.806236            5.876499             -4.860108
| 23> *
| 24>
| 25> #Run DFT-D3 single point of the molecule with dimer basis set
| 26> $new_job
| 27> %base "7-136_DFT_A"
| 28> ! wB97X-D3 def2-TZVP TIGHTSCF CHELPG PMODEL
| 29>
| 30> %scf
| 31> MaxIter 1000
| 32> end
| 33>
| 34> * xyz 0 1
| 35>   C                      -6.417568            5.724779             -9.595401
| 36>   O                      -6.496729            5.320561             -10.985951
| 37>   H                      -5.837591            4.593481             -11.037787
| 38>   H                      -5.394733            5.521762             -9.256778
| 39>   H                      -6.775722            6.772513             -9.423022
| 40>   H                      -7.171860            5.219922             -8.997641
| 41>   C                    : -5.953416            6.441439             -5.791146
| 42>   O                    : -4.882713            6.105189             -6.733241
| 43>   H                    : -4.725952            5.151699             -6.657263
| 44>   H                    : -5.894636            7.567412             -5.696806
| 45>   H                    : -6.940423            6.332680             -6.210736
| 46>   H                    : -5.806236            5.876499             -4.860108
| 47> *
| 48>
| 49> #Run DFT-D3 single point of the particle with dimer basis set
| 50> $new_job
| 51> %base "7-136_DFT_B"
| 52> ! wB97X-D3 def2-TZVP TIGHTSCF CHELPG PMODEL
| 53>
| 54> %scf
| 55> MaxIter 1000
| 56> end
| 57>
| 58> * xyz 0 1
| 59>   C                    : -6.417568            5.724779             -9.595401
| 60>   O                    : -6.496729            5.320561             -10.985951
| 61>   H                    : -5.837591            4.593481             -11.037787
| 62>   H                    : -5.394733            5.521762             -9.256778
| 63>   H                    : -6.775722            6.772513             -9.423022
| 64>   H                    : -7.171860            5.219922             -8.997641
| 65>   C                      -5.953416            6.441439             -5.791146
| 66>   O                      -4.882713            6.105189             -6.733241
| 67>   H                      -4.725952            5.151699             -6.657263
| 68>   H                      -5.894636            7.567412             -5.696806
| 69>   H                      -6.940423            6.332680             -6.210736
| 70>   H                      -5.806236            5.876499             -4.860108
| 71> *
| 72>
| 73>                          ****END OF INPUT****
 Total Charge           Charge          ....    0
 Multiplicity           Mult            ....    1
 Number of Electrons    NEL             ....   36
Dispersion correction           -0.001893101
FINAL SINGLE POINT ENERGY      -231.461932366189
Dispersion correction           -0.000248476
FINAL SINGLE POINT ENERGY      -115.729093437891

CARTESIAN COORDINATES (ANGSTROEM)
---------------------------------
  C     -6.417568    5.724779   -9.595401
  O     -6.496729    5.320561  -10.985951
  H     -5.837591    4.593481  -11.037787
  H     -5.394733    5.521762   -9.256778
  H     -6.775722    6.772513   -9.423022
  H     -7.171860    5.219922   -8.997641
  C     -5.953416    6.441439   -5.791146
  O     -4.882713    6.105189   -6.733241
  H     -4.725952    5.151699   -6.657263
  H     -5.894636    7.567412   -5.696806
  H     -6.940423    6.332680   -6.210736
  H     -5.806236    5.876499   -4.860108

 Multiplicity           Mult            ....    1
 Number of Electrons    NEL             ....   18
 Basis Dimension        Dim             ....  172

ORBITAL ENERGIES
----------------

  NO   OCC          E(Eh)            E(eV)
   0   2.0000     -19.230843      -523.2979
   1   2.0000     -10.320599      -280.8378
   2   2.0000      -1.120107       -30.4797
   3   2.0000      -0.794452       -21.6181
   4   2.0000      -0.600324       -16.3356
   5   2.0000      -0.545846       -14.8532
   6   2.0000      -0.510296       -13.8859
   7   2.0000      -0.437941       -11.9170
   8   2.0000      -0.374392       -10.1877
   9   0.0000       0.089397         2.4326
  10   0.0000       0.125664         3.4195
  11   0.0000       0.146410         3.9840
  12   0.0000       0.173231         4.7139
  13   0.0000       0.191733         5.2173

MULLIKEN ATOMIC CHARGES
-----------------------
   0 C :    0.005242
   1 O :   -0.000172
   2 H :   -0.000006
   3 H :   -0.009704
   4 H :   -0.002147
   5 H :   -0.002078
   6 C :   -0.177320
   7 O :   -0.476304
   8 H :    0.312391
   9 H :    0.119762
  10 H :    0.114499
  11 H :    0.115837
Sum of atomic charges:   -0.0000000

LOEWDIN ATOMIC CHARGES
----------------------
   0 C :   -0.012342
   1 O :   -0.000058
   2 H :   -0.000007
   3 H :   -0.009665
   4 H :   -0.000839
   5 H :   -0.000958
   6 C :   -0.353564
   7 O :   -0.101403
   8 H :    0.168767
   9 H :    0.118009
  10 H :    0.092098
  11 H :    0.099961

  Mayer bond orders larger than 0.1
B(  6-C ,  7-O ) :   0.9954 B(  6-C ,  9-H ) :   0.9780 B(  6-C , 10-H ) :   0.9688
B(  6-C , 11-H ) :   0.9754 B(  7-O ,  8-H ) :   0.9011

Dispersion correction           -0.000260813
FINAL SINGLE POINT ENERGY      -115.731656966013

DIPOLE MOMENT
-------------
                                X             Y             Z
Electronic contribution:      1.27693      -0.38955      -1.09300
Nuclear contribution   :     -1.63242      -0.05887       1.54492
                        -----------------------------------------
Total Dipole Moment    :     -0.35549      -0.44842       0.45192
                        -----------------------------------------
Magnitude (a.u.)       :      0.72917
Magnitude (Debye)      :      1.85339

Rotational constants in cm-1:     4.144928     0.794510     0.756304
Rotational constants in MHz : 124261.827357 23818.796718 22673.414047

                             ****ORCA TERMINATED NORMALLY****
TOTAL RUN TIME: 0 days 0 hours 0 minutes 59 seconds 750 msec
