                         Program Version 4.1.2  - RELEASE  -
|  1> #Run DFT-D3 single point of the dimer
|  2> ! wB97X-D3 def2-TZVP TIGHTSCF CHELPG PMODEL PAL8
|  3>
|  4> %base "10-184_DFT_AB"
|  5>
|  6> %scf
|  7> MaxIter 1000
|  8> end
|  9>
| 10> * xyz 0 1
| 11>   C                      -8.361043            1.058468             -6.906396
| 12>   O                      -9.492160            1.326144             -6.168459
| 13>   H                      -9.849423            2.166295             -6.511082
| 14>   H                      -7.803364            0.157782             -6.442815
| 15>   H                      -8.639304            0.758687             -7.941751
| 16>   H                      -7.696354            1.944430             -6.972373
| 17>   C                      -10.662962           -1.607547            -4.088527
| 18>   O                      -10.258622           -0.258442            -3.936760
| 19>   H                      -10.017454           0.121259             -4.773741
| 20>   H                      -11.732139           -1.712669            -4.350679
| 21>   H                      -10.143052           -2.104407            -4.915810
| 22>   H                      -10.367152           -2.179557            -3.182991
| 23> *
| 24>
| 25> #Run DFT-D3 single point of the molecule with dimer basis set
| 26> $new_job
| 27> %base "10-184_DFT_A"
| 28> ! wB97X-D3 def2-TZVP TIGHTSCF CHELPG PMODEL
| 29>
| 30> %scf
| 31> MaxIter 1000
| 32> end
| 33>
| 34> * xyz 0 1
| 35>   C                      -8.361043            1.058468             -6.906396
| 36>   O                      -9.492160            1.326144             -6.168459
| 37>   H                      -9.849423            2.166295             -6.511082
| 38>   H                      -7.803364            0.157782             -6.442815
| 39>   H                      -8.639304            0.758687             -7.941751
| 40>   H                      -7.696354            1.944430             -6.972373
| 41>   C                    : -10.662962           -1.607547            -4.088527
| 42>   O                    : -10.258622           -0.258442            -3.936760
| 43>   H                    : -10.017454           0.121259             -4.773741
| 44>   H                    : -11.732139           -1.712669            -4.350679
| 45>   H                    : -10.143052           -2.104407            -4.915810
| 46>   H                    : -10.367152           -2.179557            -3.182991
| 47> *
| 48>
| 49> #Run DFT-D3 single point of the particle with dimer basis set
| 50> $new_job
| 51> %base "10-184_DFT_B"
| 52> ! wB97X-D3 def2-TZVP TIGHTSCF CHELPG PMODEL
| 53>
| 54> %scf
| 55> MaxIter 1000
| 56> end
| 57>
| 58> * xyz 0 1
| 59>   C                    : -8.361043            1.058468             -6.906396
| 60>   O                    : -9.492160            1.326144             -6.168459
| 61>   H                    : -9.849423            2.166295             -6.511082
| 62>   H                    : -7.803364            0.157782             -6.442815
| 63>   H                    : -8.639304            0.758687             -7.941751
| 64>   H                    : -7.696354            1.944430             -6.972373
| 65>   C                      -10.662962           -1.607547            -4.088527
| 66>   O                      -10.258622           -0.258442            -3.936760
| 67>   H                      -10.017454           0.121259             -4.773741
| 68>   H                      -11.732139           -1.712669            -4.350679
| 69>   H                      -10.143052           -2.104407            -4.915810
| 70>   H                      -10.367152           -2.179557            -3.182991
| 71> *
| 72>
| 73>                          ****END OF INPUT****
 Total Charge           Charge          ....    0
 Multiplicity           Mult            ....    1
 Number of Electrons    NEL             ....   36
Dispersion correction           -0.001617999
FINAL SINGLE POINT ENERGY      -231.475730291206
Dispersion correction           -0.000226821
FINAL SINGLE POINT ENERGY      -115.733259320263

CARTESIAN COORDINATES (ANGSTROEM)
---------------------------------
  C     -8.361043    1.058468   -6.906396
  O     -9.492160    1.326144   -6.168459
  H     -9.849423    2.166295   -6.511082
  H     -7.803364    0.157782   -6.442815
  H     -8.639304    0.758687   -7.941751
  H     -7.696354    1.944430   -6.972373
  C    -10.662962   -1.607547   -4.088527
  O    -10.258622   -0.258442   -3.936760
  H    -10.017454    0.121259   -4.773741
  H    -11.732139   -1.712669   -4.350679
  H    -10.143052   -2.104407   -4.915810
  H    -10.367152   -2.179557   -3.182991

 Multiplicity           Mult            ....    1
 Number of Electrons    NEL             ....   18
 Basis Dimension        Dim             ....  172

ORBITAL ENERGIES
----------------

  NO   OCC          E(Eh)            E(eV)
   0   2.0000     -19.229407      -523.2588
   1   2.0000     -10.317121      -280.7431
   2   2.0000      -1.135924       -30.9101
   3   2.0000      -0.795819       -21.6553
   4   2.0000      -0.615334       -16.7441
   5   2.0000      -0.541492       -14.7347
   6   2.0000      -0.521458       -14.1896
   7   2.0000      -0.430223       -11.7070
   8   2.0000      -0.374992       -10.2041
   9   0.0000       0.070073         1.9068
  10   0.0000       0.133007         3.6193
  11   0.0000       0.148345         4.0367
  12   0.0000       0.164657         4.4805
  13   0.0000       0.194117         5.2822

MULLIKEN ATOMIC CHARGES
-----------------------
   0 C :   -0.001140
   1 O :   -0.001945
   2 H :   -0.000171
   3 H :   -0.001129
   4 H :    0.000092
   5 H :   -0.000075
   6 C :   -0.162768
   7 O :   -0.475207
   8 H :    0.312811
   9 H :    0.104284
  10 H :    0.102683
  11 H :    0.122565
Sum of atomic charges:   -0.0000000

LOEWDIN ATOMIC CHARGES
----------------------
   0 C :   -0.004104
   1 O :   -0.020442
   2 H :   -0.000976
   3 H :   -0.000933
   4 H :   -0.000056
   5 H :   -0.000082
   6 C :   -0.385548
   7 O :   -0.063759
   8 H :    0.171597
   9 H :    0.097246
  10 H :    0.095098
  11 H :    0.111957

  Mayer bond orders larger than 0.1
B(  6-C ,  7-O ) :   0.9937 B(  6-C ,  9-H ) :   0.9716 B(  6-C , 10-H ) :   0.9786
B(  6-C , 11-H ) :   0.9724 B(  7-O ,  8-H ) :   0.9040

Dispersion correction           -0.000256422
FINAL SINGLE POINT ENERGY      -115.735212430927

DIPOLE MOMENT
-------------
                                X             Y             Z
Electronic contribution:      0.45333       1.75391       0.37543
Nuclear contribution   :     -0.43330      -2.06317      -0.99563
                        -----------------------------------------
Total Dipole Moment    :      0.02003      -0.30927      -0.62020
                        -----------------------------------------
Magnitude (a.u.)       :      0.69332
Magnitude (Debye)      :      1.76228

Rotational constants in cm-1:     4.301551     0.820196     0.794167
Rotational constants in MHz : 128957.266954 24588.849821 23808.535750

                             ****ORCA TERMINATED NORMALLY****
TOTAL RUN TIME: 0 days 0 hours 1 minutes 8 seconds 71 msec
