                         Program Version 4.1.2  - RELEASE  -
|  1> #Run DFT-D3 single point of the dimer
|  2> ! wB97X-D3 def2-TZVP TIGHTSCF CHELPG PMODEL PAL8
|  3>
|  4> %base "13-51_DFT_AB"
|  5>
|  6> %scf
|  7> MaxIter 1000
|  8> end
|  9>
| 10> * xyz 0 1
| 11>   C                      8.962663             8.231957             5.425827
| 12>   O                      9.949730             9.224172             5.452284
| 13>   H                      10.724420            8.779643             5.024574
| 14>   H                      9.107767             7.617741             6.368248
| 15>   H                      7.926964             8.624352             5.397204
| 16>   H                      9.010763             7.567590             4.507931
| 17>   C                      6.861492             5.774178             7.525657
| 18>   O                      6.956524             4.517735             8.196952
| 19>   H                      6.060962             4.250020             8.503476
| 20>   H                      7.551092             5.818147             6.732101
| 21>   H                      5.883654             5.990460             7.144270
| 22>   H                      7.087526             6.610111             8.264832
| 23> *
| 24>
| 25> #Run DFT-D3 single point of the molecule with dimer basis set
| 26> $new_job
| 27> %base "13-51_DFT_A"
| 28> ! wB97X-D3 def2-TZVP TIGHTSCF CHELPG PMODEL
| 29>
| 30> %scf
| 31> MaxIter 1000
| 32> end
| 33>
| 34> * xyz 0 1
| 35>   C                      8.962663             8.231957             5.425827
| 36>   O                      9.949730             9.224172             5.452284
| 37>   H                      10.724420            8.779643             5.024574
| 38>   H                      9.107767             7.617741             6.368248
| 39>   H                      7.926964             8.624352             5.397204
| 40>   H                      9.010763             7.567590             4.507931
| 41>   C                    : 6.861492             5.774178             7.525657
| 42>   O                    : 6.956524             4.517735             8.196952
| 43>   H                    : 6.060962             4.250020             8.503476
| 44>   H                    : 7.551092             5.818147             6.732101
| 45>   H                    : 5.883654             5.990460             7.144270
| 46>   H                    : 7.087526             6.610111             8.264832
| 47> *
| 48>
| 49> #Run DFT-D3 single point of the particle with dimer basis set
| 50> $new_job
| 51> %base "13-51_DFT_B"
| 52> ! wB97X-D3 def2-TZVP TIGHTSCF CHELPG PMODEL
| 53>
| 54> %scf
| 55> MaxIter 1000
| 56> end
| 57>
| 58> * xyz 0 1
| 59>   C                    : 8.962663             8.231957             5.425827
| 60>   O                    : 9.949730             9.224172             5.452284
| 61>   H                    : 10.724420            8.779643             5.024574
| 62>   H                    : 9.107767             7.617741             6.368248
| 63>   H                    : 7.926964             8.624352             5.397204
| 64>   H                    : 9.010763             7.567590             4.507931
| 65>   C                      6.861492             5.774178             7.525657
| 66>   O                      6.956524             4.517735             8.196952
| 67>   H                      6.060962             4.250020             8.503476
| 68>   H                      7.551092             5.818147             6.732101
| 69>   H                      5.883654             5.990460             7.144270
| 70>   H                      7.087526             6.610111             8.264832
| 71> *
| 72>
| 73>                          ****END OF INPUT****
 Total Charge           Charge          ....    0
 Multiplicity           Mult            ....    1
 Number of Electrons    NEL             ....   36
Dispersion correction           -0.001435159
FINAL SINGLE POINT ENERGY      -231.464255772996
Dispersion correction           -0.000239272
FINAL SINGLE POINT ENERGY      -115.730641532836

CARTESIAN COORDINATES (ANGSTROEM)
---------------------------------
  C      8.962663    8.231957    5.425827
  O      9.949730    9.224172    5.452284
  H     10.724420    8.779643    5.024574
  H      9.107767    7.617741    6.368248
  H      7.926964    8.624352    5.397204
  H      9.010763    7.567590    4.507931
  C      6.861492    5.774178    7.525657
  O      6.956524    4.517735    8.196952
  H      6.060962    4.250020    8.503476
  H      7.551092    5.818147    6.732101
  H      5.883654    5.990460    7.144270
  H      7.087526    6.610111    8.264832

 Multiplicity           Mult            ....    1
 Number of Electrons    NEL             ....   18
 Basis Dimension        Dim             ....  172

ORBITAL ENERGIES
----------------

  NO   OCC          E(Eh)            E(eV)
   0   2.0000     -19.231556      -523.3172
   1   2.0000     -10.312064      -280.6055
   2   2.0000      -1.126640       -30.6574
   3   2.0000      -0.796750       -21.6807
   4   2.0000      -0.609088       -16.5741
   5   2.0000      -0.538067       -14.6415
   6   2.0000      -0.523992       -14.2586
   7   2.0000      -0.437548       -11.9063
   8   2.0000      -0.370879       -10.0921
   9   0.0000       0.084707         2.3050
  10   0.0000       0.112684         3.0663
  11   0.0000       0.145700         3.9647
  12   0.0000       0.178920         4.8687
  13   0.0000       0.181813         4.9474

MULLIKEN ATOMIC CHARGES
-----------------------
   0 C :    0.000514
   1 O :    0.000009
   2 H :   -0.000002
   3 H :   -0.001187
   4 H :    0.000056
   5 H :   -0.000078
   6 C :   -0.159726
   7 O :   -0.481258
   8 H :    0.318264
   9 H :    0.122026
  10 H :    0.105562
  11 H :    0.095822
Sum of atomic charges:    0.0000000

LOEWDIN ATOMIC CHARGES
----------------------
   0 C :   -0.004209
   1 O :   -0.000018
   2 H :   -0.000003
   3 H :   -0.003553
   4 H :   -0.000242
   5 H :   -0.000245
   6 C :   -0.368911
   7 O :   -0.098394
   8 H :    0.181709
   9 H :    0.097248
  10 H :    0.091294
  11 H :    0.105325

  Mayer bond orders larger than 0.1
B(  6-C ,  7-O ) :   1.0075 B(  6-C ,  9-H ) :   0.9744 B(  6-C , 10-H ) :   0.9766
B(  6-C , 11-H ) :   0.9762 B(  7-O ,  8-H ) :   0.8950

Dispersion correction           -0.000254314
FINAL SINGLE POINT ENERGY      -115.733035346874

DIPOLE MOMENT
-------------
                                X             Y             Z
Electronic contribution:      0.25607      -1.66906       0.70287
Nuclear contribution   :     -0.88451       1.99420      -0.80859
                        -----------------------------------------
Total Dipole Moment    :     -0.62844       0.32514      -0.10572
                        -----------------------------------------
Magnitude (a.u.)       :      0.71543
Magnitude (Debye)      :      1.81847

Rotational constants in cm-1:     4.310856     0.814265     0.788542
Rotational constants in MHz : 129236.196672 24411.060193 23639.891584

                             ****ORCA TERMINATED NORMALLY****
TOTAL RUN TIME: 0 days 0 hours 1 minutes 7 seconds 670 msec
