                         Program Version 4.1.2  - RELEASE  -
|  1> #Run DFT-D3 single point of the dimer
|  2> ! wB97X-D3 def2-TZVP TIGHTSCF CHELPG PMODEL PAL8
|  3>
|  4> %base "2-163_DFT_AB"
|  5>
|  6> %scf
|  7> MaxIter 1000
|  8> end
|  9>
| 10> * xyz 0 1
| 11>   C                      -0.158356            9.506197             3.981543
| 12>   O                      -0.410471            8.158518             3.815830
| 13>   H                      0.393744             7.667537             4.016496
| 14>   H                      0.655024             9.876577             3.386324
| 15>   H                      -1.039333            10.052744            3.675761
| 16>   H                      0.122370             9.895403             4.954957
| 17>   C                      -3.575997            6.954294             1.412088
| 18>   O                      -2.239048            6.801661             1.657158
| 19>   H                      -2.069880            7.464530             2.356344
| 20>   H                      -3.761021            7.255254             0.353757
| 21>   H                      -4.046118            5.988982             1.558857
| 22>   H                      -4.008549            7.635477             2.090058
| 23> *
| 24>
| 25> #Run DFT-D3 single point of the molecule with dimer basis set
| 26> $new_job
| 27> %base "2-163_DFT_A"
| 28> ! wB97X-D3 def2-TZVP TIGHTSCF CHELPG PMODEL
| 29>
| 30> %scf
| 31> MaxIter 1000
| 32> end
| 33>
| 34> * xyz 0 1
| 35>   C                      -0.158356            9.506197             3.981543
| 36>   O                      -0.410471            8.158518             3.815830
| 37>   H                      0.393744             7.667537             4.016496
| 38>   H                      0.655024             9.876577             3.386324
| 39>   H                      -1.039333            10.052744            3.675761
| 40>   H                      0.122370             9.895403             4.954957
| 41>   C                    : -3.575997            6.954294             1.412088
| 42>   O                    : -2.239048            6.801661             1.657158
| 43>   H                    : -2.069880            7.464530             2.356344
| 44>   H                    : -3.761021            7.255254             0.353757
| 45>   H                    : -4.046118            5.988982             1.558857
| 46>   H                    : -4.008549            7.635477             2.090058
| 47> *
| 48>
| 49> #Run DFT-D3 single point of the particle with dimer basis set
| 50> $new_job
| 51> %base "2-163_DFT_B"
| 52> ! wB97X-D3 def2-TZVP TIGHTSCF CHELPG PMODEL
| 53>
| 54> %scf
| 55> MaxIter 1000
| 56> end
| 57>
| 58> * xyz 0 1
| 59>   C                    : -0.158356            9.506197             3.981543
| 60>   O                    : -0.410471            8.158518             3.815830
| 61>   H                    : 0.393744             7.667537             4.016496
| 62>   H                    : 0.655024             9.876577             3.386324
| 63>   H                    : -1.039333            10.052744            3.675761
| 64>   H                    : 0.122370             9.895403             4.954957
| 65>   C                      -3.575997            6.954294             1.412088
| 66>   O                      -2.239048            6.801661             1.657158
| 67>   H                      -2.069880            7.464530             2.356344
| 68>   H                      -3.761021            7.255254             0.353757
| 69>   H                      -4.046118            5.988982             1.558857
| 70>   H                      -4.008549            7.635477             2.090058
| 71> *
| 72>
| 73>                          ****END OF INPUT****
 Total Charge           Charge          ....    0
 Multiplicity           Mult            ....    1
 Number of Electrons    NEL             ....   36
Dispersion correction           -0.001359344
FINAL SINGLE POINT ENERGY      -231.469242349247
Dispersion correction           -0.000242739
FINAL SINGLE POINT ENERGY      -115.733687293433

CARTESIAN COORDINATES (ANGSTROEM)
---------------------------------
  C     -0.158356    9.506197    3.981543
  O     -0.410471    8.158518    3.815830
  H      0.393744    7.667537    4.016496
  H      0.655024    9.876577    3.386324
  H     -1.039333   10.052744    3.675761
  H      0.122370    9.895403    4.954957
  C     -3.575997    6.954294    1.412088
  O     -2.239048    6.801661    1.657158
  H     -2.069880    7.464530    2.356344
  H     -3.761021    7.255254    0.353757
  H     -4.046118    5.988982    1.558857
  H     -4.008549    7.635477    2.090058

 Multiplicity           Mult            ....    1
 Number of Electrons    NEL             ....   18
 Basis Dimension        Dim             ....  172

ORBITAL ENERGIES
----------------

  NO   OCC          E(Eh)            E(eV)
   0   2.0000     -19.230522      -523.2891
   1   2.0000     -10.304715      -280.4056
   2   2.0000      -1.151781       -31.3416
   3   2.0000      -0.789741       -21.4899
   4   2.0000      -0.623279       -16.9603
   5   2.0000      -0.544482       -14.8161
   6   2.0000      -0.532738       -14.4965
   7   2.0000      -0.438479       -11.9316
   8   2.0000      -0.367550       -10.0016
   9   0.0000       0.069998         1.9047
  10   0.0000       0.123424         3.3585
  11   0.0000       0.153386         4.1739
  12   0.0000       0.168435         4.5834
  13   0.0000       0.196786         5.3548

MULLIKEN ATOMIC CHARGES
-----------------------
   0 C :   -0.000918
   1 O :    0.000260
   2 H :   -0.000097
   3 H :    0.000051
   4 H :   -0.000142
   5 H :   -0.000047
   6 C :   -0.158506
   7 O :   -0.451232
   8 H :    0.313471
   9 H :    0.094247
  10 H :    0.102205
  11 H :    0.100707
Sum of atomic charges:    0.0000000

LOEWDIN ATOMIC CHARGES
----------------------
   0 C :   -0.001856
   1 O :   -0.007261
   2 H :   -0.000488
   3 H :   -0.000028
   4 H :   -0.000339
   5 H :   -0.000045
   6 C :   -0.419956
   7 O :   -0.047057
   8 H :    0.190301
   9 H :    0.101283
  10 H :    0.098073
  11 H :    0.087373

  Mayer bond orders larger than 0.1
B(  6-C ,  7-O ) :   1.0193 B(  6-C ,  9-H ) :   0.9742 B(  6-C , 10-H ) :   0.9807
B(  6-C , 11-H ) :   0.9923 B(  7-O ,  8-H ) :   0.9020

Dispersion correction           -0.000212343
FINAL SINGLE POINT ENERGY      -115.730187589318

DIPOLE MOMENT
-------------
                                X             Y             Z
Electronic contribution:      1.77188      -0.23991       0.25957
Nuclear contribution   :     -2.15228       0.71688       0.12511
                        -----------------------------------------
Total Dipole Moment    :     -0.38040       0.47697       0.38468
                        -----------------------------------------
Magnitude (a.u.)       :      0.72124
Magnitude (Debye)      :      1.83325

Rotational constants in cm-1:     4.238488     0.891539     0.854747
Rotational constants in MHz : 127066.677120 26727.653539 25624.672651

                             ****ORCA TERMINATED NORMALLY****
TOTAL RUN TIME: 0 days 0 hours 6 minutes 26 seconds 698 msec
