                         Program Version 4.1.2  - RELEASE  -
|  1> #Run DFT-D3 single point of the dimer
|  2> ! wB97X-D3 def2-TZVP TIGHTSCF CHELPG PMODEL PAL8
|  3>
|  4> %base "13-146_DFT_AB"
|  5>
|  6> %scf
|  7> MaxIter 1000
|  8> end
|  9>
| 10> * xyz 0 1
| 11>   C                      -10.222836           8.222040             -1.314980
| 12>   O                      -9.311791            9.275276             -1.196687
| 13>   H                      -9.311907            9.779786             -2.046331
| 14>   H                      -10.054885           7.518585             -0.468699
| 15>   H                      -11.220995           8.539952             -1.155101
| 16>   H                      -10.093888           7.611349             -2.239045
| 17>   C                      -7.891198            9.115021             -4.324020
| 18>   O                      -8.470613            10.296675            -3.738521
| 19>   H                      -7.782166            10.973063            -3.734811
| 20>   H                      -8.695296            8.508652             -4.792260
| 21>   H                      -7.083510            9.382732             -5.054596
| 22>   H                      -7.445530            8.440400             -3.553511
| 23> *
| 24>
| 25> #Run DFT-D3 single point of the molecule with dimer basis set
| 26> $new_job
| 27> %base "13-146_DFT_A"
| 28> ! wB97X-D3 def2-TZVP TIGHTSCF CHELPG PMODEL
| 29>
| 30> %scf
| 31> MaxIter 1000
| 32> end
| 33>
| 34> * xyz 0 1
| 35>   C                      -10.222836           8.222040             -1.314980
| 36>   O                      -9.311791            9.275276             -1.196687
| 37>   H                      -9.311907            9.779786             -2.046331
| 38>   H                      -10.054885           7.518585             -0.468699
| 39>   H                      -11.220995           8.539952             -1.155101
| 40>   H                      -10.093888           7.611349             -2.239045
| 41>   C                    : -7.891198            9.115021             -4.324020
| 42>   O                    : -8.470613            10.296675            -3.738521
| 43>   H                    : -7.782166            10.973063            -3.734811
| 44>   H                    : -8.695296            8.508652             -4.792260
| 45>   H                    : -7.083510            9.382732             -5.054596
| 46>   H                    : -7.445530            8.440400             -3.553511
| 47> *
| 48>
| 49> #Run DFT-D3 single point of the particle with dimer basis set
| 50> $new_job
| 51> %base "13-146_DFT_B"
| 52> ! wB97X-D3 def2-TZVP TIGHTSCF CHELPG PMODEL
| 53>
| 54> %scf
| 55> MaxIter 1000
| 56> end
| 57>
| 58> * xyz 0 1
| 59>   C                    : -10.222836           8.222040             -1.314980
| 60>   O                    : -9.311791            9.275276             -1.196687
| 61>   H                    : -9.311907            9.779786             -2.046331
| 62>   H                    : -10.054885           7.518585             -0.468699
| 63>   H                    : -11.220995           8.539952             -1.155101
| 64>   H                    : -10.093888           7.611349             -2.239045
| 65>   C                      -7.891198            9.115021             -4.324020
| 66>   O                      -8.470613            10.296675            -3.738521
| 67>   H                      -7.782166            10.973063            -3.734811
| 68>   H                      -8.695296            8.508652             -4.792260
| 69>   H                      -7.083510            9.382732             -5.054596
| 70>   H                      -7.445530            8.440400             -3.553511
| 71> *
| 72>
| 73>                          ****END OF INPUT****
 Total Charge           Charge          ....    0
 Multiplicity           Mult            ....    1
 Number of Electrons    NEL             ....   36
Dispersion correction           -0.002070850
FINAL SINGLE POINT ENERGY      -231.478015938772
Dispersion correction           -0.000244730
FINAL SINGLE POINT ENERGY      -115.734370382446

CARTESIAN COORDINATES (ANGSTROEM)
---------------------------------
  C    -10.222836    8.222040   -1.314980
  O     -9.311791    9.275276   -1.196687
  H     -9.311907    9.779786   -2.046331
  H    -10.054885    7.518585   -0.468699
  H    -11.220995    8.539952   -1.155101
  H    -10.093888    7.611349   -2.239045
  C     -7.891198    9.115021   -4.324020
  O     -8.470613   10.296675   -3.738521
  H     -7.782166   10.973063   -3.734811
  H     -8.695296    8.508652   -4.792260
  H     -7.083510    9.382732   -5.054596
  H     -7.445530    8.440400   -3.553511

 Multiplicity           Mult            ....    1
 Number of Electrons    NEL             ....   18
 Basis Dimension        Dim             ....  172

ORBITAL ENERGIES
----------------

  NO   OCC          E(Eh)            E(eV)
   0   2.0000     -19.232695      -523.3482
   1   2.0000     -10.322871      -280.8996
   2   2.0000      -1.129090       -30.7241
   3   2.0000      -0.790712       -21.5164
   4   2.0000      -0.605529       -16.4773
   5   2.0000      -0.532823       -14.4988
   6   2.0000      -0.524290       -14.2667
   7   2.0000      -0.438589       -11.9346
   8   2.0000      -0.373143       -10.1537
   9   0.0000       0.094119         2.5611
  10   0.0000       0.122240         3.3263
  11   0.0000       0.148868         4.0509
  12   0.0000       0.185536         5.0487
  13   0.0000       0.188170         5.1204

MULLIKEN ATOMIC CHARGES
-----------------------
   0 C :   -0.000024
   1 O :   -0.001810
   2 H :   -0.006649
   3 H :   -0.000047
   4 H :    0.000074
   5 H :    0.000298
   6 C :   -0.184157
   7 O :   -0.470293
   8 H :    0.314749
   9 H :    0.123589
  10 H :    0.114130
  11 H :    0.110139
Sum of atomic charges:   -0.0000000

LOEWDIN ATOMIC CHARGES
----------------------
   0 C :   -0.002018
   1 O :   -0.006073
   2 H :   -0.041971
   3 H :   -0.000023
   4 H :   -0.000015
   5 H :   -0.000664
   6 C :   -0.374132
   7 O :   -0.058521
   8 H :    0.170258
   9 H :    0.110523
  10 H :    0.102802
  11 H :    0.099835

  Mayer bond orders larger than 0.1
B(  6-C ,  7-O ) :   0.9873 B(  6-C ,  9-H ) :   0.9749 B(  6-C , 10-H ) :   0.9729
B(  6-C , 11-H ) :   0.9716 B(  7-O ,  8-H ) :   0.8990

Dispersion correction           -0.000263176
FINAL SINGLE POINT ENERGY      -115.734946889732

DIPOLE MOMENT
-------------
                                X             Y             Z
Electronic contribution:     -0.87199       1.46603       0.71328
Nuclear contribution   :      1.53901      -1.51299      -0.96087
                        -----------------------------------------
Total Dipole Moment    :      0.66702      -0.04696      -0.24759
                        -----------------------------------------
Magnitude (a.u.)       :      0.71304
Magnitude (Debye)      :      1.81240

Rotational constants in cm-1:     4.134597     0.806256     0.771117
Rotational constants in MHz : 123952.103274 24170.949115 23117.493153

                             ****ORCA TERMINATED NORMALLY****
TOTAL RUN TIME: 0 days 0 hours 1 minutes 12 seconds 604 msec
