                         Program Version 4.1.2  - RELEASE  -
|  1> #Run DFT-D3 single point of the dimer
|  2> ! wB97X-D3 def2-TZVP TIGHTSCF CHELPG PMODEL PAL8
|  3>
|  4> %base "15-19_DFT_AB"
|  5>
|  6> %scf
|  7> MaxIter 1000
|  8> end
|  9>
| 10> * xyz 0 1
| 11>   C                      4.420336             -3.631376            1.742753
| 12>   O                      3.162538             -4.207617            1.389367
| 13>   H                      2.908502             -4.657569            2.203867
| 14>   H                      4.810058             -2.966194            0.971924
| 15>   H                      4.419981             -3.156620            2.638260
| 16>   H                      5.257324             -4.385752            1.882703
| 17>   C                      3.793136             -2.119971            5.263232
| 18>   O                      4.220589             -3.495471            5.145390
| 19>   H                      3.619160             -3.900213            4.545235
| 20>   H                      3.588674             -1.651833            4.345481
| 21>   H                      2.919482             -2.042182            5.867256
| 22>   H                      4.566814             -1.552746            5.743861
| 23> *
| 24>
| 25> #Run DFT-D3 single point of the molecule with dimer basis set
| 26> $new_job
| 27> %base "15-19_DFT_A"
| 28> ! wB97X-D3 def2-TZVP TIGHTSCF CHELPG PMODEL
| 29>
| 30> %scf
| 31> MaxIter 1000
| 32> end
| 33>
| 34> * xyz 0 1
| 35>   C                      4.420336             -3.631376            1.742753
| 36>   O                      3.162538             -4.207617            1.389367
| 37>   H                      2.908502             -4.657569            2.203867
| 38>   H                      4.810058             -2.966194            0.971924
| 39>   H                      4.419981             -3.156620            2.638260
| 40>   H                      5.257324             -4.385752            1.882703
| 41>   C                    : 3.793136             -2.119971            5.263232
| 42>   O                    : 4.220589             -3.495471            5.145390
| 43>   H                    : 3.619160             -3.900213            4.545235
| 44>   H                    : 3.588674             -1.651833            4.345481
| 45>   H                    : 2.919482             -2.042182            5.867256
| 46>   H                    : 4.566814             -1.552746            5.743861
| 47> *
| 48>
| 49> #Run DFT-D3 single point of the particle with dimer basis set
| 50> $new_job
| 51> %base "15-19_DFT_B"
| 52> ! wB97X-D3 def2-TZVP TIGHTSCF CHELPG PMODEL
| 53>
| 54> %scf
| 55> MaxIter 1000
| 56> end
| 57>
| 58> * xyz 0 1
| 59>   C                    : 4.420336             -3.631376            1.742753
| 60>   O                    : 3.162538             -4.207617            1.389367
| 61>   H                    : 2.908502             -4.657569            2.203867
| 62>   H                    : 4.810058             -2.966194            0.971924
| 63>   H                    : 4.419981             -3.156620            2.638260
| 64>   H                    : 5.257324             -4.385752            1.882703
| 65>   C                      3.793136             -2.119971            5.263232
| 66>   O                      4.220589             -3.495471            5.145390
| 67>   H                      3.619160             -3.900213            4.545235
| 68>   H                      3.588674             -1.651833            4.345481
| 69>   H                      2.919482             -2.042182            5.867256
| 70>   H                      4.566814             -1.552746            5.743861
| 71> *
| 72>
| 73>                          ****END OF INPUT****
 Total Charge           Charge          ....    0
 Multiplicity           Mult            ....    1
 Number of Electrons    NEL             ....   36
Dispersion correction           -0.001993488
FINAL SINGLE POINT ENERGY      -231.462374595015
Dispersion correction           -0.000239924
FINAL SINGLE POINT ENERGY      -115.728451128444

CARTESIAN COORDINATES (ANGSTROEM)
---------------------------------
  C      4.420336   -3.631376    1.742753
  O      3.162538   -4.207617    1.389367
  H      2.908502   -4.657569    2.203867
  H      4.810058   -2.966194    0.971924
  H      4.419981   -3.156620    2.638260
  H      5.257324   -4.385752    1.882703
  C      3.793136   -2.119971    5.263232
  O      4.220589   -3.495471    5.145390
  H      3.619160   -3.900213    4.545235
  H      3.588674   -1.651833    4.345481
  H      2.919482   -2.042182    5.867256
  H      4.566814   -1.552746    5.743861

 Multiplicity           Mult            ....    1
 Number of Electrons    NEL             ....   18
 Basis Dimension        Dim             ....  172

ORBITAL ENERGIES
----------------

  NO   OCC          E(Eh)            E(eV)
   0   2.0000     -19.229977      -523.2743
   1   2.0000     -10.305626      -280.4303
   2   2.0000      -1.132214       -30.8091
   3   2.0000      -0.806140       -21.9362
   4   2.0000      -0.610630       -16.6161
   5   2.0000      -0.543931       -14.8011
   6   2.0000      -0.524969       -14.2851
   7   2.0000      -0.443300       -12.0628
   8   2.0000      -0.377611       -10.2753
   9   0.0000       0.078691         2.1413
  10   0.0000       0.138913         3.7800
  11   0.0000       0.147153         4.0042
  12   0.0000       0.173496         4.7211
  13   0.0000       0.193161         5.2562

MULLIKEN ATOMIC CHARGES
-----------------------
   0 C :    0.002036
   1 O :    0.000534
   2 H :   -0.000908
   3 H :   -0.000955
   4 H :   -0.013056
   5 H :   -0.000221
   6 C :   -0.174981
   7 O :   -0.466053
   8 H :    0.309054
   9 H :    0.110737
  10 H :    0.112162
  11 H :    0.121650
Sum of atomic charges:   -0.0000000

LOEWDIN ATOMIC CHARGES
----------------------
   0 C :   -0.008805
   1 O :   -0.000177
   2 H :   -0.001604
   3 H :   -0.000095
   4 H :   -0.010387
   5 H :   -0.000604
   6 C :   -0.347376
   7 O :   -0.073214
   8 H :    0.155043
   9 H :    0.088356
  10 H :    0.092119
  11 H :    0.106744

  Mayer bond orders larger than 0.1
B(  6-C ,  7-O ) :   0.9917 B(  6-C ,  9-H ) :   0.9752 B(  6-C , 10-H ) :   0.9831
B(  6-C , 11-H ) :   0.9766 B(  7-O ,  8-H ) :   0.9088

Dispersion correction           -0.000236627
FINAL SINGLE POINT ENERGY      -115.734663259742

DIPOLE MOMENT
-------------
                                X             Y             Z
Electronic contribution:      0.63233      -1.68506      -0.09026
Nuclear contribution   :     -1.18992       2.02041      -0.23177
                        -----------------------------------------
Total Dipole Moment    :     -0.55759       0.33535      -0.32203
                        -----------------------------------------
Magnitude (a.u.)       :      0.72600
Magnitude (Debye)      :      1.84534

Rotational constants in cm-1:     4.537600     0.808964     0.780424
Rotational constants in MHz : 136033.824579 24252.118722 23396.521030

                             ****ORCA TERMINATED NORMALLY****
TOTAL RUN TIME: 0 days 0 hours 1 minutes 7 seconds 551 msec
