                         Program Version 4.1.2  - RELEASE  -
|  1> #Run DFT-D3 single point of the dimer
|  2> ! wB97X-D3 def2-TZVP TIGHTSCF CHELPG PMODEL PAL8
|  3>
|  4> %base "12-1_DFT_AB"
|  5>
|  6> %scf
|  7> MaxIter 1000
|  8> end
|  9>
| 10> * xyz 0 1
| 11>   C                      -3.318311            -0.619609            -4.975786
| 12>   O                      -2.848868            -0.188945            -3.711665
| 13>   H                      -2.709265            0.711760             -3.772373
| 14>   H                      -2.662649            -0.195860            -5.703031
| 15>   H                      -3.228268            -1.702189            -5.124246
| 16>   H                      -4.392851            -0.308560            -5.145854
| 17>   C                      -7.696293            1.609487             -5.820513
| 18>   O                      -7.350262            2.091528             -7.094658
| 19>   H                      -6.480464            1.701876             -7.237686
| 20>   H                      -8.568349            0.985886             -5.933055
| 21>   H                      -6.828819            0.999782             -5.470952
| 22>   H                      -7.973765            2.364178             -5.127782
| 23> *
| 24>
| 25> #Run DFT-D3 single point of the molecule with dimer basis set
| 26> $new_job
| 27> %base "12-1_DFT_A"
| 28> ! wB97X-D3 def2-TZVP TIGHTSCF CHELPG PMODEL
| 29>
| 30> %scf
| 31> MaxIter 1000
| 32> end
| 33>
| 34> * xyz 0 1
| 35>   C                      -3.318311            -0.619609            -4.975786
| 36>   O                      -2.848868            -0.188945            -3.711665
| 37>   H                      -2.709265            0.711760             -3.772373
| 38>   H                      -2.662649            -0.195860            -5.703031
| 39>   H                      -3.228268            -1.702189            -5.124246
| 40>   H                      -4.392851            -0.308560            -5.145854
| 41>   C                    : -7.696293            1.609487             -5.820513
| 42>   O                    : -7.350262            2.091528             -7.094658
| 43>   H                    : -6.480464            1.701876             -7.237686
| 44>   H                    : -8.568349            0.985886             -5.933055
| 45>   H                    : -6.828819            0.999782             -5.470952
| 46>   H                    : -7.973765            2.364178             -5.127782
| 47> *
| 48>
| 49> #Run DFT-D3 single point of the particle with dimer basis set
| 50> $new_job
| 51> %base "12-1_DFT_B"
| 52> ! wB97X-D3 def2-TZVP TIGHTSCF CHELPG PMODEL
| 53>
| 54> %scf
| 55> MaxIter 1000
| 56> end
| 57>
| 58> * xyz 0 1
| 59>   C                    : -3.318311            -0.619609            -4.975786
| 60>   O                    : -2.848868            -0.188945            -3.711665
| 61>   H                    : -2.709265            0.711760             -3.772373
| 62>   H                    : -2.662649            -0.195860            -5.703031
| 63>   H                    : -3.228268            -1.702189            -5.124246
| 64>   H                    : -4.392851            -0.308560            -5.145854
| 65>   C                      -7.696293            1.609487             -5.820513
| 66>   O                      -7.350262            2.091528             -7.094658
| 67>   H                      -6.480464            1.701876             -7.237686
| 68>   H                      -8.568349            0.985886             -5.933055
| 69>   H                      -6.828819            0.999782             -5.470952
| 70>   H                      -7.973765            2.364178             -5.127782
| 71> *
| 72>
| 73>                          ****END OF INPUT****
 Total Charge           Charge          ....    0
 Multiplicity           Mult            ....    1
 Number of Electrons    NEL             ....   36
Dispersion correction           -0.000918333
FINAL SINGLE POINT ENERGY      -231.462264684226
Dispersion correction           -0.000229502
FINAL SINGLE POINT ENERGY      -115.731527162816

CARTESIAN COORDINATES (ANGSTROEM)
---------------------------------
  C     -3.318311   -0.619609   -4.975786
  O     -2.848868   -0.188945   -3.711665
  H     -2.709265    0.711760   -3.772373
  H     -2.662649   -0.195860   -5.703031
  H     -3.228268   -1.702189   -5.124246
  H     -4.392851   -0.308560   -5.145854
  C     -7.696293    1.609487   -5.820513
  O     -7.350262    2.091528   -7.094658
  H     -6.480464    1.701876   -7.237686
  H     -8.568349    0.985886   -5.933055
  H     -6.828819    0.999782   -5.470952
  H     -7.973765    2.364178   -5.127782

 Multiplicity           Mult            ....    1
 Number of Electrons    NEL             ....   18
 Basis Dimension        Dim             ....  172

ORBITAL ENERGIES
----------------

  NO   OCC          E(Eh)            E(eV)
   0   2.0000     -19.228600      -523.2368
   1   2.0000     -10.309173      -280.5269
   2   2.0000      -1.141163       -31.0526
   3   2.0000      -0.793241       -21.5852
   4   2.0000      -0.610611       -16.6156
   5   2.0000      -0.544453       -14.8153
   6   2.0000      -0.535478       -14.5711
   7   2.0000      -0.435396       -11.8477
   8   2.0000      -0.371281       -10.1031
   9   0.0000       0.074027         2.0144
  10   0.0000       0.114135         3.1058
  11   0.0000       0.157804         4.2941
  12   0.0000       0.162320         4.4170
  13   0.0000       0.183095         4.9823

MULLIKEN ATOMIC CHARGES
-----------------------
   0 C :   -0.000768
   1 O :    0.000007
   2 H :   -0.000003
   3 H :    0.000010
   4 H :    0.000029
   5 H :    0.001351
   6 C :   -0.167236
   7 O :   -0.461831
   8 H :    0.315931
   9 H :    0.108280
  10 H :    0.091134
  11 H :    0.113094
Sum of atomic charges:    0.0000000

LOEWDIN ATOMIC CHARGES
----------------------
   0 C :   -0.000320
   1 O :   -0.000003
   2 H :   -0.000003
   3 H :   -0.000002
   4 H :   -0.000001
   5 H :   -0.001453
   6 C :   -0.386950
   7 O :   -0.076813
   8 H :    0.174822
   9 H :    0.096031
  10 H :    0.102402
  11 H :    0.092291

  Mayer bond orders larger than 0.1
B(  6-C ,  7-O ) :   1.0135 B(  6-C ,  9-H ) :   0.9800 B(  6-C , 10-H ) :   0.9972
B(  6-C , 11-H ) :   0.9721 B(  7-O ,  8-H ) :   0.9039

Dispersion correction           -0.000219909
FINAL SINGLE POINT ENERGY      -115.730599575025

DIPOLE MOMENT
-------------
                                X             Y             Z
Electronic contribution:      0.29093       0.78869      -1.57856
Nuclear contribution   :      0.11955      -1.21624       1.97851
                        -----------------------------------------
Total Dipole Moment    :      0.41048      -0.42755       0.39995
                        -----------------------------------------
Magnitude (a.u.)       :      0.71502
Magnitude (Debye)      :      1.81744

Rotational constants in cm-1:     4.241631     0.860348     0.816406
Rotational constants in MHz : 127160.885832 25792.593499 24475.223331

                             ****ORCA TERMINATED NORMALLY****
TOTAL RUN TIME: 0 days 0 hours 0 minutes 58 seconds 431 msec
