                         Program Version 4.1.2  - RELEASE  -
|  1> #Run DFT-D3 single point of the dimer
|  2> ! wB97X-D3 def2-TZVP TIGHTSCF CHELPG PMODEL PAL8
|  3>
|  4> %base "12-53_DFT_AB"
|  5>
|  6> %scf
|  7> MaxIter 1000
|  8> end
|  9>
| 10> * xyz 0 1
| 11>   C                      1.228255             8.850175             -3.515345
| 12>   O                      1.191600             8.715200             -2.081027
| 13>   H                      0.242599             8.844409             -1.860280
| 14>   H                      1.453714             9.811640             -3.993332
| 15>   H                      1.787758             7.990946             -3.923253
| 16>   H                      0.282204             8.617246             -3.914783
| 17>   C                      1.985308             5.468408             -0.360350
| 18>   O                      0.722614             5.878839             -0.949379
| 19>   H                      0.881776             6.662856             -1.417531
| 20>   H                      2.010401             4.414437             0.026963
| 21>   H                      2.708360             5.469500             -1.256987
| 22>   H                      2.359041             6.154839             0.428649
| 23> *
| 24>
| 25> #Run DFT-D3 single point of the molecule with dimer basis set
| 26> $new_job
| 27> %base "12-53_DFT_A"
| 28> ! wB97X-D3 def2-TZVP TIGHTSCF CHELPG PMODEL
| 29>
| 30> %scf
| 31> MaxIter 1000
| 32> end
| 33>
| 34> * xyz 0 1
| 35>   C                      1.228255             8.850175             -3.515345
| 36>   O                      1.191600             8.715200             -2.081027
| 37>   H                      0.242599             8.844409             -1.860280
| 38>   H                      1.453714             9.811640             -3.993332
| 39>   H                      1.787758             7.990946             -3.923253
| 40>   H                      0.282204             8.617246             -3.914783
| 41>   C                    : 1.985308             5.468408             -0.360350
| 42>   O                    : 0.722614             5.878839             -0.949379
| 43>   H                    : 0.881776             6.662856             -1.417531
| 44>   H                    : 2.010401             4.414437             0.026963
| 45>   H                    : 2.708360             5.469500             -1.256987
| 46>   H                    : 2.359041             6.154839             0.428649
| 47> *
| 48>
| 49> #Run DFT-D3 single point of the particle with dimer basis set
| 50> $new_job
| 51> %base "12-53_DFT_B"
| 52> ! wB97X-D3 def2-TZVP TIGHTSCF CHELPG PMODEL
| 53>
| 54> %scf
| 55> MaxIter 1000
| 56> end
| 57>
| 58> * xyz 0 1
| 59>   C                    : 1.228255             8.850175             -3.515345
| 60>   O                    : 1.191600             8.715200             -2.081027
| 61>   H                    : 0.242599             8.844409             -1.860280
| 62>   H                    : 1.453714             9.811640             -3.993332
| 63>   H                    : 1.787758             7.990946             -3.923253
| 64>   H                    : 0.282204             8.617246             -3.914783
| 65>   C                      1.985308             5.468408             -0.360350
| 66>   O                      0.722614             5.878839             -0.949379
| 67>   H                      0.881776             6.662856             -1.417531
| 68>   H                      2.010401             4.414437             0.026963
| 69>   H                      2.708360             5.469500             -1.256987
| 70>   H                      2.359041             6.154839             0.428649
| 71> *
| 72>
| 73>                          ****END OF INPUT****
 Total Charge           Charge          ....    0
 Multiplicity           Mult            ....    1
 Number of Electrons    NEL             ....   36
Dispersion correction           -0.001704740
FINAL SINGLE POINT ENERGY      -231.461712880489
Dispersion correction           -0.000258969
FINAL SINGLE POINT ENERGY      -115.726254575504

CARTESIAN COORDINATES (ANGSTROEM)
---------------------------------
  C      1.228255    8.850175   -3.515345
  O      1.191600    8.715200   -2.081027
  H      0.242599    8.844409   -1.860280
  H      1.453714    9.811640   -3.993332
  H      1.787758    7.990946   -3.923253
  H      0.282204    8.617246   -3.914783
  C      1.985308    5.468408   -0.360350
  O      0.722614    5.878839   -0.949379
  H      0.881776    6.662856   -1.417531
  H      2.010401    4.414437    0.026963
  H      2.708360    5.469500   -1.256987
  H      2.359041    6.154839    0.428649

 Multiplicity           Mult            ....    1
 Number of Electrons    NEL             ....   18
 Basis Dimension        Dim             ....  172

ORBITAL ENERGIES
----------------

  NO   OCC          E(Eh)            E(eV)
   0   2.0000     -19.228285      -523.2282
   1   2.0000     -10.329301      -281.0746
   2   2.0000      -1.133524       -30.8447
   3   2.0000      -0.791933       -21.5496
   4   2.0000      -0.603883       -16.4325
   5   2.0000      -0.537432       -14.6243
   6   2.0000      -0.526535       -14.3277
   7   2.0000      -0.430887       -11.7250
   8   2.0000      -0.375091       -10.2067
   9   0.0000       0.070674         1.9231
  10   0.0000       0.129386         3.5208
  11   0.0000       0.147186         4.0051
  12   0.0000       0.163794         4.4571
  13   0.0000       0.191946         5.2231

MULLIKEN ATOMIC CHARGES
-----------------------
   0 C :   -0.002071
   1 O :   -0.001083
   2 H :   -0.001390
   3 H :   -0.000033
   4 H :   -0.000219
   5 H :    0.000234
   6 C :   -0.184930
   7 O :   -0.464312
   8 H :    0.306135
   9 H :    0.129829
  10 H :    0.105448
  11 H :    0.112391
Sum of atomic charges:    0.0000000

LOEWDIN ATOMIC CHARGES
----------------------
   0 C :   -0.002676
   1 O :   -0.009858
   2 H :   -0.002666
   3 H :   -0.000061
   4 H :   -0.000404
   5 H :   -0.000092
   6 C :   -0.367540
   7 O :   -0.082410
   8 H :    0.146753
   9 H :    0.114126
  10 H :    0.107020
  11 H :    0.097809

  Mayer bond orders larger than 0.1
B(  6-C ,  7-O ) :   0.9818 B(  6-C ,  9-H ) :   0.9683 B(  6-C , 10-H ) :   0.9880
B(  6-C , 11-H ) :   0.9631 B(  7-O ,  8-H ) :   0.9170

Dispersion correction           -0.000259762
FINAL SINGLE POINT ENERGY      -115.728722232793

DIPOLE MOMENT
-------------
                                X             Y             Z
Electronic contribution:     -1.74648       0.39880      -0.51321
Nuclear contribution   :      2.37169      -0.08734       0.46206
                        -----------------------------------------
Total Dipole Moment    :      0.62521       0.31146      -0.05115
                        -----------------------------------------
Magnitude (a.u.)       :      0.70037
Magnitude (Debye)      :      1.78019

Rotational constants in cm-1:     4.154439     0.787787     0.766530
Rotational constants in MHz : 124546.954257 23617.271031 22980.005344

                             ****ORCA TERMINATED NORMALLY****
TOTAL RUN TIME: 0 days 0 hours 1 minutes 3 seconds 132 msec
