                         Program Version 4.1.2  - RELEASE  -
|  1> #Run DFT-D3 single point of the dimer
|  2> ! wB97X-D3 def2-TZVP TIGHTSCF CHELPG PMODEL PAL8
|  3>
|  4> %base "15-99_DFT_AB"
|  5>
|  6> %scf
|  7> MaxIter 1000
|  8> end
|  9>
| 10> * xyz 0 1
| 11>   C                      -3.521737            -6.032928            -3.997539
| 12>   O                      -3.209134            -4.842496            -3.204906
| 13>   H                      -3.319984            -4.094860            -3.795784
| 14>   H                      -3.627151            -6.940647            -3.414398
| 15>   H                      -4.523750            -5.897630            -4.422226
| 16>   H                      -2.762533            -6.264531            -4.740990
| 17>   C                      -0.934420            -1.501478            -4.577652
| 18>   O                      -1.421709            -2.465679            -3.642206
| 19>   H                      -0.741423            -3.108189            -3.495462
| 20>   H                      -0.216309            -0.881202            -4.057632
| 21>   H                      -0.440611            -1.899452            -5.463402
| 22>   H                      -1.623490            -0.727408            -4.985823
| 23> *
| 24>
| 25> #Run DFT-D3 single point of the molecule with dimer basis set
| 26> $new_job
| 27> %base "15-99_DFT_A"
| 28> ! wB97X-D3 def2-TZVP TIGHTSCF CHELPG PMODEL
| 29>
| 30> %scf
| 31> MaxIter 1000
| 32> end
| 33>
| 34> * xyz 0 1
| 35>   C                      -3.521737            -6.032928            -3.997539
| 36>   O                      -3.209134            -4.842496            -3.204906
| 37>   H                      -3.319984            -4.094860            -3.795784
| 38>   H                      -3.627151            -6.940647            -3.414398
| 39>   H                      -4.523750            -5.897630            -4.422226
| 40>   H                      -2.762533            -6.264531            -4.740990
| 41>   C                    : -0.934420            -1.501478            -4.577652
| 42>   O                    : -1.421709            -2.465679            -3.642206
| 43>   H                    : -0.741423            -3.108189            -3.495462
| 44>   H                    : -0.216309            -0.881202            -4.057632
| 45>   H                    : -0.440611            -1.899452            -5.463402
| 46>   H                    : -1.623490            -0.727408            -4.985823
| 47> *
| 48>
| 49> #Run DFT-D3 single point of the particle with dimer basis set
| 50> $new_job
| 51> %base "15-99_DFT_B"
| 52> ! wB97X-D3 def2-TZVP TIGHTSCF CHELPG PMODEL
| 53>
| 54> %scf
| 55> MaxIter 1000
| 56> end
| 57>
| 58> * xyz 0 1
| 59>   C                    : -3.521737            -6.032928            -3.997539
| 60>   O                    : -3.209134            -4.842496            -3.204906
| 61>   H                    : -3.319984            -4.094860            -3.795784
| 62>   H                    : -3.627151            -6.940647            -3.414398
| 63>   H                    : -4.523750            -5.897630            -4.422226
| 64>   H                    : -2.762533            -6.264531            -4.740990
| 65>   C                      -0.934420            -1.501478            -4.577652
| 66>   O                      -1.421709            -2.465679            -3.642206
| 67>   H                      -0.741423            -3.108189            -3.495462
| 68>   H                      -0.216309            -0.881202            -4.057632
| 69>   H                      -0.440611            -1.899452            -5.463402
| 70>   H                      -1.623490            -0.727408            -4.985823
| 71> *
| 72>
| 73>                          ****END OF INPUT****
 Total Charge           Charge          ....    0
 Multiplicity           Mult            ....    1
 Number of Electrons    NEL             ....   36
Dispersion correction           -0.001407985
FINAL SINGLE POINT ENERGY      -231.466174078034
Dispersion correction           -0.000258880
FINAL SINGLE POINT ENERGY      -115.733024614292

CARTESIAN COORDINATES (ANGSTROEM)
---------------------------------
  C     -3.521737   -6.032928   -3.997539
  O     -3.209134   -4.842496   -3.204906
  H     -3.319984   -4.094860   -3.795784
  H     -3.627151   -6.940647   -3.414398
  H     -4.523750   -5.897630   -4.422226
  H     -2.762533   -6.264531   -4.740990
  C     -0.934420   -1.501478   -4.577652
  O     -1.421709   -2.465679   -3.642206
  H     -0.741423   -3.108189   -3.495462
  H     -0.216309   -0.881202   -4.057632
  H     -0.440611   -1.899452   -5.463402
  H     -1.623490   -0.727408   -4.985823

 Multiplicity           Mult            ....    1
 Number of Electrons    NEL             ....   18
 Basis Dimension        Dim             ....  172

ORBITAL ENERGIES
----------------

  NO   OCC          E(Eh)            E(eV)
   0   2.0000     -19.232686      -523.3480
   1   2.0000     -10.315877      -280.7093
   2   2.0000      -1.135899       -30.9094
   3   2.0000      -0.800346       -21.7785
   4   2.0000      -0.612431       -16.6651
   5   2.0000      -0.539716       -14.6864
   6   2.0000      -0.528986       -14.3944
   7   2.0000      -0.431312       -11.7366
   8   2.0000      -0.375102       -10.2070
   9   0.0000       0.092699         2.5225
  10   0.0000       0.123033         3.3479
  11   0.0000       0.146547         3.9877
  12   0.0000       0.188948         5.1415
  13   0.0000       0.202464         5.5093

MULLIKEN ATOMIC CHARGES
-----------------------
   0 C :   -0.000319
   1 O :    0.000399
   2 H :   -0.008403
   3 H :   -0.000049
   4 H :    0.000021
   5 H :   -0.000228
   6 C :   -0.178519
   7 O :   -0.468236
   8 H :    0.317849
   9 H :    0.106246
  10 H :    0.107655
  11 H :    0.123584
Sum of atomic charges:    0.0000000

LOEWDIN ATOMIC CHARGES
----------------------
   0 C :   -0.000775
   1 O :   -0.005462
   2 H :   -0.014543
   3 H :   -0.000017
   4 H :   -0.000004
   5 H :   -0.000118
   6 C :   -0.382042
   7 O :   -0.063781
   8 H :    0.163529
   9 H :    0.094721
  10 H :    0.094234
  11 H :    0.114259

  Mayer bond orders larger than 0.1
B(  6-C ,  7-O ) :   0.9907 B(  6-C ,  9-H ) :   0.9821 B(  6-C , 10-H ) :   0.9727
B(  6-C , 11-H ) :   0.9715 B(  7-O ,  8-H ) :   0.8969

Dispersion correction           -0.000259603
FINAL SINGLE POINT ENERGY      -115.729741653183

DIPOLE MOMENT
-------------
                                X             Y             Z
Electronic contribution:     -0.84499      -1.29161       1.20131
Nuclear contribution   :      1.49621       1.29929      -1.49320
                        -----------------------------------------
Total Dipole Moment    :      0.65122       0.00767      -0.29189
                        -----------------------------------------
Magnitude (a.u.)       :      0.71369
Magnitude (Debye)      :      1.81404

Rotational constants in cm-1:     4.545918     0.801140     0.775535
Rotational constants in MHz : 136283.181439 24017.577684 23249.958698

                             ****ORCA TERMINATED NORMALLY****
TOTAL RUN TIME: 0 days 0 hours 0 minutes 46 seconds 835 msec
