                         Program Version 4.1.2  - RELEASE  -
|  1> #Run DFT-D3 single point of the dimer
|  2> ! wB97X-D3 def2-TZVP TIGHTSCF CHELPG PMODEL PAL8
|  3>
|  4> %base "21-138_DFT_AB"
|  5>
|  6> %scf
|  7> MaxIter 1000
|  8> end
|  9>
| 10> * xyz 0 1
| 11>   C                      -1.001725            -9.641674            -5.075141
| 12>   O                      -1.080321            -11.053985           -4.800357
| 13>   H                      -0.733545            -11.033127           -3.907484
| 14>   H                      -1.773834            -9.130125            -4.517852
| 15>   H                      -0.063907            -9.121528            -4.738339
| 16>   H                      -1.159688            -9.406464            -6.166276
| 17>   C                      -1.127269            -7.318845            -0.716428
| 18>   O                      -1.761045            -7.930545            -1.834784
| 19>   H                      -1.366283            -7.497340            -2.620460
| 20>   H                      -0.055521            -7.273837            -0.889200
| 21>   H                      -1.556174            -6.300694            -0.631375
| 22>   H                      -1.324985            -7.905945            0.209468
| 23> *
| 24>
| 25> #Run DFT-D3 single point of the molecule with dimer basis set
| 26> $new_job
| 27> %base "21-138_DFT_A"
| 28> ! wB97X-D3 def2-TZVP TIGHTSCF CHELPG PMODEL
| 29>
| 30> %scf
| 31> MaxIter 1000
| 32> end
| 33>
| 34> * xyz 0 1
| 35>   C                      -1.001725            -9.641674            -5.075141
| 36>   O                      -1.080321            -11.053985           -4.800357
| 37>   H                      -0.733545            -11.033127           -3.907484
| 38>   H                      -1.773834            -9.130125            -4.517852
| 39>   H                      -0.063907            -9.121528            -4.738339
| 40>   H                      -1.159688            -9.406464            -6.166276
| 41>   C                    : -1.127269            -7.318845            -0.716428
| 42>   O                    : -1.761045            -7.930545            -1.834784
| 43>   H                    : -1.366283            -7.497340            -2.620460
| 44>   H                    : -0.055521            -7.273837            -0.889200
| 45>   H                    : -1.556174            -6.300694            -0.631375
| 46>   H                    : -1.324985            -7.905945            0.209468
| 47> *
| 48>
| 49> #Run DFT-D3 single point of the particle with dimer basis set
| 50> $new_job
| 51> %base "21-138_DFT_B"
| 52> ! wB97X-D3 def2-TZVP TIGHTSCF CHELPG PMODEL
| 53>
| 54> %scf
| 55> MaxIter 1000
| 56> end
| 57>
| 58> * xyz 0 1
| 59>   C                    : -1.001725            -9.641674            -5.075141
| 60>   O                    : -1.080321            -11.053985           -4.800357
| 61>   H                    : -0.733545            -11.033127           -3.907484
| 62>   H                    : -1.773834            -9.130125            -4.517852
| 63>   H                    : -0.063907            -9.121528            -4.738339
| 64>   H                    : -1.159688            -9.406464            -6.166276
| 65>   C                      -1.127269            -7.318845            -0.716428
| 66>   O                      -1.761045            -7.930545            -1.834784
| 67>   H                      -1.366283            -7.497340            -2.620460
| 68>   H                      -0.055521            -7.273837            -0.889200
| 69>   H                      -1.556174            -6.300694            -0.631375
| 70>   H                      -1.324985            -7.905945            0.209468
| 71> *
| 72>
| 73>                          ****END OF INPUT****
 Total Charge           Charge          ....    0
 Multiplicity           Mult            ....    1
 Number of Electrons    NEL             ....   36
Dispersion correction           -0.001344248
FINAL SINGLE POINT ENERGY      -231.466393758996
Dispersion correction           -0.000240810
FINAL SINGLE POINT ENERGY      -115.730326833462

CARTESIAN COORDINATES (ANGSTROEM)
---------------------------------
  C     -1.001725   -9.641674   -5.075141
  O     -1.080321  -11.053985   -4.800357
  H     -0.733545  -11.033127   -3.907484
  H     -1.773834   -9.130125   -4.517852
  H     -0.063907   -9.121528   -4.738339
  H     -1.159688   -9.406464   -6.166276
  C     -1.127269   -7.318845   -0.716428
  O     -1.761045   -7.930545   -1.834784
  H     -1.366283   -7.497340   -2.620460
  H     -0.055521   -7.273837   -0.889200
  H     -1.556174   -6.300694   -0.631375
  H     -1.324985   -7.905945    0.209468

 Multiplicity           Mult            ....    1
 Number of Electrons    NEL             ....   18
 Basis Dimension        Dim             ....  172

ORBITAL ENERGIES
----------------

  NO   OCC          E(Eh)            E(eV)
   0   2.0000     -19.230110      -523.2779
   1   2.0000     -10.316574      -280.7282
   2   2.0000      -1.130819       -30.7712
   3   2.0000      -0.788860       -21.4660
   4   2.0000      -0.604134       -16.4393
   5   2.0000      -0.544660       -14.8210
   6   2.0000      -0.524663       -14.2768
   7   2.0000      -0.434882       -11.8337
   8   2.0000      -0.371281       -10.1031
   9   0.0000       0.083142         2.2624
  10   0.0000       0.124618         3.3910
  11   0.0000       0.155876         4.2416
  12   0.0000       0.171537         4.6678
  13   0.0000       0.190769         5.1911

MULLIKEN ATOMIC CHARGES
-----------------------
   0 C :   -0.002666
   1 O :    0.000332
   2 H :   -0.000563
   3 H :   -0.001379
   4 H :   -0.000940
   5 H :   -0.000203
   6 C :   -0.173569
   7 O :   -0.471912
   8 H :    0.317269
   9 H :    0.108350
  10 H :    0.103519
  11 H :    0.121760
Sum of atomic charges:    0.0000000

LOEWDIN ATOMIC CHARGES
----------------------
   0 C :   -0.003943
   1 O :   -0.000035
   2 H :   -0.000491
   3 H :   -0.002957
   4 H :   -0.000863
   5 H :   -0.000054
   6 C :   -0.381734
   7 O :   -0.095179
   8 H :    0.181589
   9 H :    0.093144
  10 H :    0.098306
  11 H :    0.112217

  Mayer bond orders larger than 0.1
B(  6-C ,  7-O ) :   0.9887 B(  6-C ,  9-H ) :   0.9783 B(  6-C , 10-H ) :   0.9796
B(  6-C , 11-H ) :   0.9703 B(  7-O ,  8-H ) :   0.8949

Dispersion correction           -0.000223109
FINAL SINGLE POINT ENERGY      -115.734927106300

DIPOLE MOMENT
-------------
                                X             Y             Z
Electronic contribution:     -0.84606      -0.87716      -1.24089
Nuclear contribution   :      1.35180       1.38556       1.21363
                        -----------------------------------------
Total Dipole Moment    :      0.50575       0.50840      -0.02726
                        -----------------------------------------
Magnitude (a.u.)       :      0.71763
Magnitude (Debye)      :      1.82406

Rotational constants in cm-1:     4.095952     0.831451     0.800020
Rotational constants in MHz : 122793.544417 24926.286766 23983.990402

                             ****ORCA TERMINATED NORMALLY****
TOTAL RUN TIME: 0 days 0 hours 0 minutes 58 seconds 334 msec
