                         Program Version 4.1.2  - RELEASE  -
|  1> #Run DFT-D3 single point of the dimer
|  2> ! wB97X-D3 def2-TZVP TIGHTSCF CHELPG PMODEL PAL8
|  3>
|  4> %base "14-187_DFT_AB"
|  5>
|  6> %scf
|  7> MaxIter 1000
|  8> end
|  9>
| 10> * xyz 0 1
| 11>   C                      4.333396             0.750296             -6.204696
| 12>   O                      4.056688             0.232788             -7.478227
| 13>   H                      4.599385             0.658072             -8.162980
| 14>   H                      4.119846             1.875022             -6.029099
| 15>   H                      3.827527             0.156209             -5.425978
| 16>   H                      5.434778             0.539944             -5.891598
| 17>   C                      3.957707             1.246987             -10.695035
| 18>   O                      4.943332             1.805064             -9.836118
| 19>   H                      4.616188             2.711349             -9.491158
| 20>   H                      3.058979             0.910575             -10.205536
| 21>   H                      3.753841             1.953364             -11.486729
| 22>   H                      4.437218             0.317076             -11.163631
| 23> *
| 24>
| 25> #Run DFT-D3 single point of the molecule with dimer basis set
| 26> $new_job
| 27> %base "14-187_DFT_A"
| 28> ! wB97X-D3 def2-TZVP TIGHTSCF CHELPG PMODEL
| 29>
| 30> %scf
| 31> MaxIter 1000
| 32> end
| 33>
| 34> * xyz 0 1
| 35>   C                      4.333396             0.750296             -6.204696
| 36>   O                      4.056688             0.232788             -7.478227
| 37>   H                      4.599385             0.658072             -8.162980
| 38>   H                      4.119846             1.875022             -6.029099
| 39>   H                      3.827527             0.156209             -5.425978
| 40>   H                      5.434778             0.539944             -5.891598
| 41>   C                    : 3.957707             1.246987             -10.695035
| 42>   O                    : 4.943332             1.805064             -9.836118
| 43>   H                    : 4.616188             2.711349             -9.491158
| 44>   H                    : 3.058979             0.910575             -10.205536
| 45>   H                    : 3.753841             1.953364             -11.486729
| 46>   H                    : 4.437218             0.317076             -11.163631
| 47> *
| 48>
| 49> #Run DFT-D3 single point of the particle with dimer basis set
| 50> $new_job
| 51> %base "14-187_DFT_B"
| 52> ! wB97X-D3 def2-TZVP TIGHTSCF CHELPG PMODEL
| 53>
| 54> %scf
| 55> MaxIter 1000
| 56> end
| 57>
| 58> * xyz 0 1
| 59>   C                    : 4.333396             0.750296             -6.204696
| 60>   O                    : 4.056688             0.232788             -7.478227
| 61>   H                    : 4.599385             0.658072             -8.162980
| 62>   H                    : 4.119846             1.875022             -6.029099
| 63>   H                    : 3.827527             0.156209             -5.425978
| 64>   H                    : 5.434778             0.539944             -5.891598
| 65>   C                      3.957707             1.246987             -10.695035
| 66>   O                      4.943332             1.805064             -9.836118
| 67>   H                      4.616188             2.711349             -9.491158
| 68>   H                      3.058979             0.910575             -10.205536
| 69>   H                      3.753841             1.953364             -11.486729
| 70>   H                      4.437218             0.317076             -11.163631
| 71> *
| 72>
| 73>                          ****END OF INPUT****
 Total Charge           Charge          ....    0
 Multiplicity           Mult            ....    1
 Number of Electrons    NEL             ....   36
Dispersion correction           -0.001816086
FINAL SINGLE POINT ENERGY      -231.470280570943
Dispersion correction           -0.000287666
FINAL SINGLE POINT ENERGY      -115.730264234878

CARTESIAN COORDINATES (ANGSTROEM)
---------------------------------
  C      4.333396    0.750296   -6.204696
  O      4.056688    0.232788   -7.478227
  H      4.599385    0.658072   -8.162980
  H      4.119846    1.875022   -6.029099
  H      3.827527    0.156209   -5.425978
  H      5.434778    0.539944   -5.891598
  C      3.957707    1.246987  -10.695035
  O      4.943332    1.805064   -9.836118
  H      4.616188    2.711349   -9.491158
  H      3.058979    0.910575  -10.205536
  H      3.753841    1.953364  -11.486729
  H      4.437218    0.317076  -11.163631

 Multiplicity           Mult            ....    1
 Number of Electrons    NEL             ....   18
 Basis Dimension        Dim             ....  172

ORBITAL ENERGIES
----------------

  NO   OCC          E(Eh)            E(eV)
   0   2.0000     -19.235285      -523.4187
   1   2.0000     -10.315206      -280.6910
   2   2.0000      -1.122459       -30.5437
   3   2.0000      -0.788692       -21.4614
   4   2.0000      -0.601785       -16.3754
   5   2.0000      -0.548495       -14.9253
   6   2.0000      -0.516581       -14.0569
   7   2.0000      -0.426789       -11.6135
   8   2.0000      -0.374512       -10.1910
   9   0.0000       0.088009         2.3948
  10   0.0000       0.120486         3.2786
  11   0.0000       0.147021         4.0006
  12   0.0000       0.188078         5.1179
  13   0.0000       0.191134         5.2010

MULLIKEN ATOMIC CHARGES
-----------------------
   0 C :   -0.002126
   1 O :   -0.002436
   2 H :   -0.002779
   3 H :   -0.000352
   4 H :   -0.000205
   5 H :   -0.000028
   6 C :   -0.158336
   7 O :   -0.483985
   8 H :    0.316747
   9 H :    0.108201
  10 H :    0.111481
  11 H :    0.113818
Sum of atomic charges:    0.0000000

LOEWDIN ATOMIC CHARGES
----------------------
   0 C :   -0.002010
   1 O :   -0.004577
   2 H :   -0.034107
   3 H :   -0.000260
   4 H :   -0.000048
   5 H :   -0.000047
   6 C :   -0.384445
   7 O :   -0.081121
   8 H :    0.202020
   9 H :    0.090400
  10 H :    0.093790
  11 H :    0.120405

  Mayer bond orders larger than 0.1
B(  6-C ,  7-O ) :   0.9831 B(  6-C ,  9-H ) :   0.9704 B(  6-C , 10-H ) :   0.9782
B(  6-C , 11-H ) :   0.9752 B(  7-O ,  8-H ) :   0.8881

Dispersion correction           -0.000251227
FINAL SINGLE POINT ENERGY      -115.731417774591

DIPOLE MOMENT
-------------
                                X             Y             Z
Electronic contribution:      1.21407       0.63856       1.09721
Nuclear contribution   :     -1.81053      -0.30027      -1.24808
                        -----------------------------------------
Total Dipole Moment    :     -0.59646       0.33830      -0.15087
                        -----------------------------------------
Magnitude (a.u.)       :      0.70212
Magnitude (Debye)      :      1.78464

Rotational constants in cm-1:     4.130911     0.822611     0.789171
Rotational constants in MHz : 123841.586149 24661.255872 23658.743263

                             ****ORCA TERMINATED NORMALLY****
TOTAL RUN TIME: 0 days 0 hours 1 minutes 9 seconds 3 msec
