                         Program Version 4.1.2  - RELEASE  -
|  1> #Run DFT-D3 single point of the dimer
|  2> ! wB97X-D3 def2-TZVP TIGHTSCF CHELPG PMODEL PAL8
|  3>
|  4> %base "14-91_DFT_AB"
|  5>
|  6> %scf
|  7> MaxIter 1000
|  8> end
|  9>
| 10> * xyz 0 1
| 11>   C                      -4.858137            8.794378             -2.162719
| 12>   O                      -5.057893            9.023676             -0.762485
| 13>   H                      -4.277961            8.800261             -0.211867
| 14>   H                      -5.459045            7.976104             -2.597022
| 15>   H                      -5.076426            9.725379             -2.688449
| 16>   H                      -3.806476            8.543483             -2.442663
| 17>   C                      -3.816625            10.040734            4.070678
| 18>   O                      -4.532435            10.559169            2.959660
| 19>   H                      -4.967202            9.731673             2.630932
| 20>   H                      -4.238293            9.086609             4.198698
| 21>   H                      -2.760037            9.934247             3.895425
| 22>   H                      -3.928372            10.744662            4.911495
| 23> *
| 24>
| 25> #Run DFT-D3 single point of the molecule with dimer basis set
| 26> $new_job
| 27> %base "14-91_DFT_A"
| 28> ! wB97X-D3 def2-TZVP TIGHTSCF CHELPG PMODEL
| 29>
| 30> %scf
| 31> MaxIter 1000
| 32> end
| 33>
| 34> * xyz 0 1
| 35>   C                      -4.858137            8.794378             -2.162719
| 36>   O                      -5.057893            9.023676             -0.762485
| 37>   H                      -4.277961            8.800261             -0.211867
| 38>   H                      -5.459045            7.976104             -2.597022
| 39>   H                      -5.076426            9.725379             -2.688449
| 40>   H                      -3.806476            8.543483             -2.442663
| 41>   C                    : -3.816625            10.040734            4.070678
| 42>   O                    : -4.532435            10.559169            2.959660
| 43>   H                    : -4.967202            9.731673             2.630932
| 44>   H                    : -4.238293            9.086609             4.198698
| 45>   H                    : -2.760037            9.934247             3.895425
| 46>   H                    : -3.928372            10.744662            4.911495
| 47> *
| 48>
| 49> #Run DFT-D3 single point of the particle with dimer basis set
| 50> $new_job
| 51> %base "14-91_DFT_B"
| 52> ! wB97X-D3 def2-TZVP TIGHTSCF CHELPG PMODEL
| 53>
| 54> %scf
| 55> MaxIter 1000
| 56> end
| 57>
| 58> * xyz 0 1
| 59>   C                    : -4.858137            8.794378             -2.162719
| 60>   O                    : -5.057893            9.023676             -0.762485
| 61>   H                    : -4.277961            8.800261             -0.211867
| 62>   H                    : -5.459045            7.976104             -2.597022
| 63>   H                    : -5.076426            9.725379             -2.688449
| 64>   H                    : -3.806476            8.543483             -2.442663
| 65>   C                      -3.816625            10.040734            4.070678
| 66>   O                      -4.532435            10.559169            2.959660
| 67>   H                      -4.967202            9.731673             2.630932
| 68>   H                      -4.238293            9.086609             4.198698
| 69>   H                      -2.760037            9.934247             3.895425
| 70>   H                      -3.928372            10.744662            4.911495
| 71> *
| 72>
| 73>                          ****END OF INPUT****
 Total Charge           Charge          ....    0
 Multiplicity           Mult            ....    1
 Number of Electrons    NEL             ....   36
Dispersion correction           -0.000914407
FINAL SINGLE POINT ENERGY      -231.460454650964
Dispersion correction           -0.000282954
FINAL SINGLE POINT ENERGY      -115.732803485511

CARTESIAN COORDINATES (ANGSTROEM)
---------------------------------
  C     -4.858137    8.794378   -2.162719
  O     -5.057893    9.023676   -0.762485
  H     -4.277961    8.800261   -0.211867
  H     -5.459045    7.976104   -2.597022
  H     -5.076426    9.725379   -2.688449
  H     -3.806476    8.543483   -2.442663
  C     -3.816625   10.040734    4.070678
  O     -4.532435   10.559169    2.959660
  H     -4.967202    9.731673    2.630932
  H     -4.238293    9.086609    4.198698
  H     -2.760037    9.934247    3.895425
  H     -3.928372   10.744662    4.911495

 Multiplicity           Mult            ....    1
 Number of Electrons    NEL             ....   18
 Basis Dimension        Dim             ....  172

ORBITAL ENERGIES
----------------

  NO   OCC          E(Eh)            E(eV)
   0   2.0000     -19.230854      -523.2981
   1   2.0000     -10.308084      -280.4972
   2   2.0000      -1.133915       -30.8554
   3   2.0000      -0.791462       -21.5368
   4   2.0000      -0.612528       -16.6677
   5   2.0000      -0.542227       -14.7547
   6   2.0000      -0.528736       -14.3876
   7   2.0000      -0.439914       -11.9707
   8   2.0000      -0.370755       -10.0888
   9   0.0000       0.082794         2.2529
  10   0.0000       0.106904         2.9090
  11   0.0000       0.155307         4.2261
  12   0.0000       0.177562         4.8317
  13   0.0000       0.195950         5.3321

MULLIKEN ATOMIC CHARGES
-----------------------
   0 C :    0.000177
   1 O :    0.000053
   2 H :   -0.002180
   3 H :   -0.000004
   4 H :   -0.000003
   5 H :   -0.000011
   6 C :   -0.158187
   7 O :   -0.463418
   8 H :    0.314476
   9 H :    0.094486
  10 H :    0.103015
  11 H :    0.111596
Sum of atomic charges:   -0.0000000

LOEWDIN ATOMIC CHARGES
----------------------
   0 C :   -0.000011
   1 O :   -0.000292
   2 H :   -0.001630
   3 H :   -0.000000
   4 H :   -0.000000
   5 H :   -0.000001
   6 C :   -0.376576
   7 O :   -0.097231
   8 H :    0.189288
   9 H :    0.088569
  10 H :    0.092087
  11 H :    0.105797

  Mayer bond orders larger than 0.1
B(  6-C ,  7-O ) :   1.0139 B(  6-C ,  9-H ) :   1.0024 B(  6-C , 10-H ) :   0.9686
B(  6-C , 11-H ) :   0.9774 B(  7-O ,  8-H ) :   0.9025

Dispersion correction           -0.000216844
FINAL SINGLE POINT ENERGY      -115.727270312512

DIPOLE MOMENT
-------------
                                X             Y             Z
Electronic contribution:     -0.80899       0.79419      -1.30781
Nuclear contribution   :      0.82171      -1.51327       1.54394
                        -----------------------------------------
Total Dipole Moment    :      0.01272      -0.71909       0.23613
                        -----------------------------------------
Magnitude (a.u.)       :      0.75697
Magnitude (Debye)      :      1.92407

Rotational constants in cm-1:     4.209199     0.852514     0.809323
Rotational constants in MHz : 126188.606424 25557.736336 24262.887839

                             ****ORCA TERMINATED NORMALLY****
TOTAL RUN TIME: 0 days 0 hours 1 minutes 10 seconds 170 msec
