                         Program Version 4.1.2  - RELEASE  -
|  1> #Run DFT-D3 single point of the dimer
|  2> ! wB97X-D3 def2-TZVP TIGHTSCF CHELPG PMODEL PAL8
|  3>
|  4> %base "7-34_DFT_AB"
|  5>
|  6> %scf
|  7> MaxIter 1000
|  8> end
|  9>
| 10> * xyz 0 1
| 11>   C                      4.287323             3.811473             -10.095497
| 12>   O                      5.437001             3.561698             -10.899745
| 13>   H                      5.610883             2.637790             -10.816381
| 14>   H                      3.601199             4.500166             -10.683801
| 15>   H                      3.740410             2.909689             -9.881101
| 16>   H                      4.471084             4.301608             -9.117160
| 17>   C                      3.021370             9.219144             -8.876034
| 18>   O                      2.988232             10.333611            -8.053201
| 19>   H                      3.566255             11.030090            -8.396873
| 20>   H                      2.927108             8.298902             -8.306554
| 21>   H                      2.081663             9.364225             -9.548580
| 22>   H                      3.885532             9.146176             -9.495416
| 23> *
| 24>
| 25> #Run DFT-D3 single point of the molecule with dimer basis set
| 26> $new_job
| 27> %base "7-34_DFT_A"
| 28> ! wB97X-D3 def2-TZVP TIGHTSCF CHELPG PMODEL
| 29>
| 30> %scf
| 31> MaxIter 1000
| 32> end
| 33>
| 34> * xyz 0 1
| 35>   C                      4.287323             3.811473             -10.095497
| 36>   O                      5.437001             3.561698             -10.899745
| 37>   H                      5.610883             2.637790             -10.816381
| 38>   H                      3.601199             4.500166             -10.683801
| 39>   H                      3.740410             2.909689             -9.881101
| 40>   H                      4.471084             4.301608             -9.117160
| 41>   C                    : 3.021370             9.219144             -8.876034
| 42>   O                    : 2.988232             10.333611            -8.053201
| 43>   H                    : 3.566255             11.030090            -8.396873
| 44>   H                    : 2.927108             8.298902             -8.306554
| 45>   H                    : 2.081663             9.364225             -9.548580
| 46>   H                    : 3.885532             9.146176             -9.495416
| 47> *
| 48>
| 49> #Run DFT-D3 single point of the particle with dimer basis set
| 50> $new_job
| 51> %base "7-34_DFT_B"
| 52> ! wB97X-D3 def2-TZVP TIGHTSCF CHELPG PMODEL
| 53>
| 54> %scf
| 55> MaxIter 1000
| 56> end
| 57>
| 58> * xyz 0 1
| 59>   C                    : 4.287323             3.811473             -10.095497
| 60>   O                    : 5.437001             3.561698             -10.899745
| 61>   H                    : 5.610883             2.637790             -10.816381
| 62>   H                    : 3.601199             4.500166             -10.683801
| 63>   H                    : 3.740410             2.909689             -9.881101
| 64>   H                    : 4.471084             4.301608             -9.117160
| 65>   C                      3.021370             9.219144             -8.876034
| 66>   O                      2.988232             10.333611            -8.053201
| 67>   H                      3.566255             11.030090            -8.396873
| 68>   H                      2.927108             8.298902             -8.306554
| 69>   H                      2.081663             9.364225             -9.548580
| 70>   H                      3.885532             9.146176             -9.495416
| 71> *
| 72>
| 73>                          ****END OF INPUT****
 Total Charge           Charge          ....    0
 Multiplicity           Mult            ....    1
 Number of Electrons    NEL             ....   36
Dispersion correction           -0.000627954
FINAL SINGLE POINT ENERGY      -231.463719989776
Dispersion correction           -0.000258314
FINAL SINGLE POINT ENERGY      -115.733412275706

CARTESIAN COORDINATES (ANGSTROEM)
---------------------------------
  C      4.287323    3.811473  -10.095497
  O      5.437001    3.561698  -10.899745
  H      5.610883    2.637790  -10.816381
  H      3.601199    4.500166  -10.683801
  H      3.740410    2.909689   -9.881101
  H      4.471084    4.301608   -9.117160
  C      3.021370    9.219144   -8.876034
  O      2.988232   10.333611   -8.053201
  H      3.566255   11.030090   -8.396873
  H      2.927108    8.298902   -8.306554
  H      2.081663    9.364225   -9.548580
  H      3.885532    9.146176   -9.495416

 Multiplicity           Mult            ....    1
 Number of Electrons    NEL             ....   18
 Basis Dimension        Dim             ....  172

ORBITAL ENERGIES
----------------

  NO   OCC          E(Eh)            E(eV)
   0   2.0000     -19.227657      -523.2112
   1   2.0000     -10.313475      -280.6439
   2   2.0000      -1.141647       -31.0658
   3   2.0000      -0.791777       -21.5454
   4   2.0000      -0.618428       -16.8283
   5   2.0000      -0.541708       -14.7406
   6   2.0000      -0.526509       -14.3270
   7   2.0000      -0.432916       -11.7802
   8   2.0000      -0.364303        -9.9132
   9   0.0000       0.084496         2.2992
  10   0.0000       0.113634         3.0921
  11   0.0000       0.145466         3.9583
  12   0.0000       0.170820         4.6482
  13   0.0000       0.187523         5.1028

MULLIKEN ATOMIC CHARGES
-----------------------
   0 C :    0.000010
   1 O :    0.000000
   2 H :   -0.000000
   3 H :    0.000003
   4 H :   -0.000002
   5 H :   -0.000052
   6 C :   -0.160646
   7 O :   -0.472912
   8 H :    0.317528
   9 H :    0.115646
  10 H :    0.093281
  11 H :    0.107145
Sum of atomic charges:   -0.0000000

LOEWDIN ATOMIC CHARGES
----------------------
   0 C :   -0.000021
   1 O :   -0.000001
   2 H :   -0.000000
   3 H :   -0.000007
   4 H :   -0.000000
   5 H :   -0.000027
   6 C :   -0.407411
   7 O :   -0.065530
   8 H :    0.175064
   9 H :    0.102668
  10 H :    0.107784
  11 H :    0.087481

  Mayer bond orders larger than 0.1
B(  6-C ,  7-O ) :   1.0024 B(  6-C ,  9-H ) :   0.9699 B(  6-C , 10-H ) :   0.9860
B(  6-C , 11-H ) :   0.9760 B(  7-O ,  8-H ) :   0.8955

Dispersion correction           -0.000235639
FINAL SINGLE POINT ENERGY      -115.730031659862

DIPOLE MOMENT
-------------
                                X             Y             Z
Electronic contribution:      0.06802       1.31741       1.21541
Nuclear contribution   :      0.36928      -1.29083      -1.73512
                        -----------------------------------------
Total Dipole Moment    :      0.43731       0.02657      -0.51971
                        -----------------------------------------
Magnitude (a.u.)       :      0.67973
Magnitude (Debye)      :      1.72775

Rotational constants in cm-1:     4.196436     0.854117     0.831178
Rotational constants in MHz : 125805.993726 25605.785837 24918.103602

                             ****ORCA TERMINATED NORMALLY****
TOTAL RUN TIME: 0 days 0 hours 0 minutes 56 seconds 65 msec
