                         Program Version 4.1.2  - RELEASE  -
|  1> #Run DFT-D3 single point of the dimer
|  2> ! wB97X-D3 def2-TZVP TIGHTSCF CHELPG PMODEL PAL8
|  3>
|  4> %base "17-61_DFT_AB"
|  5>
|  6> %scf
|  7> MaxIter 1000
|  8> end
|  9>
| 10> * xyz 0 1
| 11>   C                      -8.719428            -0.806688            2.256153
| 12>   O                      -10.041191           -1.234781            2.494380
| 13>   H                      -10.144787           -1.521010            3.361301
| 14>   H                      -8.220031            -0.383521            3.209562
| 15>   H                      -8.128405            -1.587988            1.732554
| 16>   H                      -8.726105            0.059084             1.528395
| 17>   C                      -10.205780           1.008427             4.940349
| 18>   O                      -9.787588            2.053346             5.751389
| 19>   H                      -10.422777           2.726125             5.551359
| 20>   H                      -11.282600           0.923962             4.968889
| 21>   H                      -9.835737            1.188598             3.905393
| 22>   H                      -9.735738            0.053062             5.211727
| 23> *
| 24>
| 25> #Run DFT-D3 single point of the molecule with dimer basis set
| 26> $new_job
| 27> %base "17-61_DFT_A"
| 28> ! wB97X-D3 def2-TZVP TIGHTSCF CHELPG PMODEL
| 29>
| 30> %scf
| 31> MaxIter 1000
| 32> end
| 33>
| 34> * xyz 0 1
| 35>   C                      -8.719428            -0.806688            2.256153
| 36>   O                      -10.041191           -1.234781            2.494380
| 37>   H                      -10.144787           -1.521010            3.361301
| 38>   H                      -8.220031            -0.383521            3.209562
| 39>   H                      -8.128405            -1.587988            1.732554
| 40>   H                      -8.726105            0.059084             1.528395
| 41>   C                    : -10.205780           1.008427             4.940349
| 42>   O                    : -9.787588            2.053346             5.751389
| 43>   H                    : -10.422777           2.726125             5.551359
| 44>   H                    : -11.282600           0.923962             4.968889
| 45>   H                    : -9.835737            1.188598             3.905393
| 46>   H                    : -9.735738            0.053062             5.211727
| 47> *
| 48>
| 49> #Run DFT-D3 single point of the particle with dimer basis set
| 50> $new_job
| 51> %base "17-61_DFT_B"
| 52> ! wB97X-D3 def2-TZVP TIGHTSCF CHELPG PMODEL
| 53>
| 54> %scf
| 55> MaxIter 1000
| 56> end
| 57>
| 58> * xyz 0 1
| 59>   C                    : -8.719428            -0.806688            2.256153
| 60>   O                    : -10.041191           -1.234781            2.494380
| 61>   H                    : -10.144787           -1.521010            3.361301
| 62>   H                    : -8.220031            -0.383521            3.209562
| 63>   H                    : -8.128405            -1.587988            1.732554
| 64>   H                    : -8.726105            0.059084             1.528395
| 65>   C                      -10.205780           1.008427             4.940349
| 66>   O                      -9.787588            2.053346             5.751389
| 67>   H                      -10.422777           2.726125             5.551359
| 68>   H                      -11.282600           0.923962             4.968889
| 69>   H                      -9.835737            1.188598             3.905393
| 70>   H                      -9.735738            0.053062             5.211727
| 71> *
| 72>
| 73>                          ****END OF INPUT****
 Total Charge           Charge          ....    0
 Multiplicity           Mult            ....    1
 Number of Electrons    NEL             ....   36
Dispersion correction           -0.002058944
FINAL SINGLE POINT ENERGY      -231.465104102297
Dispersion correction           -0.000267392
FINAL SINGLE POINT ENERGY      -115.731026134783

CARTESIAN COORDINATES (ANGSTROEM)
---------------------------------
  C     -8.719428   -0.806688    2.256153
  O    -10.041191   -1.234781    2.494380
  H    -10.144787   -1.521010    3.361301
  H     -8.220031   -0.383521    3.209562
  H     -8.128405   -1.587988    1.732554
  H     -8.726105    0.059084    1.528395
  C    -10.205780    1.008427    4.940349
  O     -9.787588    2.053346    5.751389
  H    -10.422777    2.726125    5.551359
  H    -11.282600    0.923962    4.968889
  H     -9.835737    1.188598    3.905393
  H     -9.735738    0.053062    5.211727

 Multiplicity           Mult            ....    1
 Number of Electrons    NEL             ....   18
 Basis Dimension        Dim             ....  172

ORBITAL ENERGIES
----------------

  NO   OCC          E(Eh)            E(eV)
   0   2.0000     -19.229440      -523.2597
   1   2.0000     -10.312327      -280.6127
   2   2.0000      -1.151951       -31.3462
   3   2.0000      -0.791236       -21.5306
   4   2.0000      -0.616138       -16.7660
   5   2.0000      -0.547937       -14.9101
   6   2.0000      -0.532130       -14.4800
   7   2.0000      -0.437543       -11.9061
   8   2.0000      -0.370662       -10.0862
   9   0.0000       0.087145         2.3713
  10   0.0000       0.116591         3.1726
  11   0.0000       0.152086         4.1385
  12   0.0000       0.175730         4.7819
  13   0.0000       0.182069         4.9543

MULLIKEN ATOMIC CHARGES
-----------------------
   0 C :   -0.005499
   1 O :    0.000435
   2 H :    0.000317
   3 H :    0.000860
   4 H :   -0.000145
   5 H :    0.000136
   6 C :   -0.169857
   7 O :   -0.455322
   8 H :    0.312292
   9 H :    0.104473
  10 H :    0.098457
  11 H :    0.113854
Sum of atomic charges:    0.0000000

LOEWDIN ATOMIC CHARGES
----------------------
   0 C :   -0.011802
   1 O :   -0.001978
   2 H :   -0.003109
   3 H :   -0.004704
   4 H :   -0.000124
   5 H :   -0.001027
   6 C :   -0.402249
   7 O :   -0.049392
   8 H :    0.166352
   9 H :    0.092489
  10 H :    0.104667
  11 H :    0.110879

  Mayer bond orders larger than 0.1
B(  6-C ,  7-O ) :   0.9962 B(  6-C ,  9-H ) :   0.9775 B(  6-C , 10-H ) :   0.9782
B(  6-C , 11-H ) :   0.9718 B(  7-O ,  8-H ) :   0.9053

Dispersion correction           -0.000208910
FINAL SINGLE POINT ENERGY      -115.733194286217

DIPOLE MOMENT
-------------
                                X             Y             Z
Electronic contribution:      0.59806       1.27425       1.20787
Nuclear contribution   :     -1.15241      -1.24691      -1.61536
                        -----------------------------------------
Total Dipole Moment    :     -0.55434       0.02734      -0.40749
                        -----------------------------------------
Magnitude (a.u.)       :      0.68854
Magnitude (Debye)      :      1.75014

Rotational constants in cm-1:     4.234371     0.866925     0.834153
Rotational constants in MHz : 126943.235655 25989.748580 25007.267374

                             ****ORCA TERMINATED NORMALLY****
TOTAL RUN TIME: 0 days 0 hours 1 minutes 10 seconds 341 msec
