                         Program Version 4.1.2  - RELEASE  -
|  1> #Run DFT-D3 single point of the dimer
|  2> ! wB97X-D3 def2-TZVP TIGHTSCF CHELPG PMODEL PAL8
|  3>
|  4> %base "5-131_DFT_AB"
|  5>
|  6> %scf
|  7> MaxIter 1000
|  8> end
|  9>
| 10> * xyz 0 1
| 11>   C                      -7.477111            -4.456450            -6.946488
| 12>   O                      -7.988286            -4.822817            -5.665183
| 13>   H                      -7.892709            -4.108142            -5.012299
| 14>   H                      -6.388501            -4.259669            -7.003349
| 15>   H                      -7.612256            -5.270702            -7.671501
| 16>   H                      -7.996882            -3.590406            -7.298455
| 17>   C                      -5.989405            -5.964235            -2.020473
| 18>   O                      -6.767436            -4.800188            -2.082916
| 19>   H                      -6.623553            -4.234828            -1.284566
| 20>   H                      -6.057582            -6.555116            -1.019395
| 21>   H                      -6.398733            -6.747629            -2.648712
| 22>   H                      -4.950613            -5.793271            -2.207913
| 23> *
| 24>
| 25> #Run DFT-D3 single point of the molecule with dimer basis set
| 26> $new_job
| 27> %base "5-131_DFT_A"
| 28> ! wB97X-D3 def2-TZVP TIGHTSCF CHELPG PMODEL
| 29>
| 30> %scf
| 31> MaxIter 1000
| 32> end
| 33>
| 34> * xyz 0 1
| 35>   C                      -7.477111            -4.456450            -6.946488
| 36>   O                      -7.988286            -4.822817            -5.665183
| 37>   H                      -7.892709            -4.108142            -5.012299
| 38>   H                      -6.388501            -4.259669            -7.003349
| 39>   H                      -7.612256            -5.270702            -7.671501
| 40>   H                      -7.996882            -3.590406            -7.298455
| 41>   C                    : -5.989405            -5.964235            -2.020473
| 42>   O                    : -6.767436            -4.800188            -2.082916
| 43>   H                    : -6.623553            -4.234828            -1.284566
| 44>   H                    : -6.057582            -6.555116            -1.019395
| 45>   H                    : -6.398733            -6.747629            -2.648712
| 46>   H                    : -4.950613            -5.793271            -2.207913
| 47> *
| 48>
| 49> #Run DFT-D3 single point of the particle with dimer basis set
| 50> $new_job
| 51> %base "5-131_DFT_B"
| 52> ! wB97X-D3 def2-TZVP TIGHTSCF CHELPG PMODEL
| 53>
| 54> %scf
| 55> MaxIter 1000
| 56> end
| 57>
| 58> * xyz 0 1
| 59>   C                    : -7.477111            -4.456450            -6.946488
| 60>   O                    : -7.988286            -4.822817            -5.665183
| 61>   H                    : -7.892709            -4.108142            -5.012299
| 62>   H                    : -6.388501            -4.259669            -7.003349
| 63>   H                    : -7.612256            -5.270702            -7.671501
| 64>   H                    : -7.996882            -3.590406            -7.298455
| 65>   C                      -5.989405            -5.964235            -2.020473
| 66>   O                      -6.767436            -4.800188            -2.082916
| 67>   H                      -6.623553            -4.234828            -1.284566
| 68>   H                      -6.057582            -6.555116            -1.019395
| 69>   H                      -6.398733            -6.747629            -2.648712
| 70>   H                      -4.950613            -5.793271            -2.207913
| 71> *
| 72>
| 73>                          ****END OF INPUT****
 Total Charge           Charge          ....    0
 Multiplicity           Mult            ....    1
 Number of Electrons    NEL             ....   36
Dispersion correction           -0.001090858
FINAL SINGLE POINT ENERGY      -231.466602139349
Dispersion correction           -0.000264708
FINAL SINGLE POINT ENERGY      -115.734590333612

CARTESIAN COORDINATES (ANGSTROEM)
---------------------------------
  C     -7.477111   -4.456450   -6.946488
  O     -7.988286   -4.822817   -5.665183
  H     -7.892709   -4.108142   -5.012299
  H     -6.388501   -4.259669   -7.003349
  H     -7.612256   -5.270702   -7.671501
  H     -7.996882   -3.590406   -7.298455
  C     -5.989405   -5.964235   -2.020473
  O     -6.767436   -4.800188   -2.082916
  H     -6.623553   -4.234828   -1.284566
  H     -6.057582   -6.555116   -1.019395
  H     -6.398733   -6.747629   -2.648712
  H     -4.950613   -5.793271   -2.207913

 Multiplicity           Mult            ....    1
 Number of Electrons    NEL             ....   18
 Basis Dimension        Dim             ....  172

ORBITAL ENERGIES
----------------

  NO   OCC          E(Eh)            E(eV)
   0   2.0000     -19.235782      -523.4323
   1   2.0000     -10.315682      -280.7040
   2   2.0000      -1.134694       -30.8766
   3   2.0000      -0.794108       -21.6088
   4   2.0000      -0.611142       -16.6300
   5   2.0000      -0.550711       -14.9856
   6   2.0000      -0.519554       -14.1378
   7   2.0000      -0.422929       -11.5085
   8   2.0000      -0.375661       -10.2223
   9   0.0000       0.094467         2.5706
  10   0.0000       0.113611         3.0915
  11   0.0000       0.148743         4.0475
  12   0.0000       0.175248         4.7687
  13   0.0000       0.197513         5.3746

MULLIKEN ATOMIC CHARGES
-----------------------
   0 C :    0.000154
   1 O :    0.000079
   2 H :   -0.002880
   3 H :   -0.000032
   4 H :   -0.000000
   5 H :   -0.000000
   6 C :   -0.167143
   7 O :   -0.474878
   8 H :    0.321712
   9 H :    0.089155
  10 H :    0.124213
  11 H :    0.109619
Sum of atomic charges:    0.0000000

LOEWDIN ATOMIC CHARGES
----------------------
   0 C :   -0.000035
   1 O :   -0.000285
   2 H :   -0.002803
   3 H :   -0.000004
   4 H :   -0.000001
   5 H :   -0.000001
   6 C :   -0.407088
   7 O :   -0.076653
   8 H :    0.187618
   9 H :    0.103611
  10 H :    0.107281
  11 H :    0.088360

  Mayer bond orders larger than 0.1
B(  6-C ,  7-O ) :   1.0031 B(  6-C ,  9-H ) :   0.9732 B(  6-C , 10-H ) :   0.9712
B(  6-C , 11-H ) :   0.9717 B(  7-O ,  8-H ) :   0.8885

Dispersion correction           -0.000268979
FINAL SINGLE POINT ENERGY      -115.730169802785

DIPOLE MOMENT
-------------
                                X             Y             Z
Electronic contribution:     -1.01186       1.63853      -0.34975
Nuclear contribution   :      1.39237      -1.74133       0.87170
                        -----------------------------------------
Total Dipole Moment    :      0.38051      -0.10279       0.52194
                        -----------------------------------------
Magnitude (a.u.)       :      0.65405
Magnitude (Debye)      :      1.66246

Rotational constants in cm-1:     4.331537     0.820810     0.799778
Rotational constants in MHz : 129856.225850 24607.255182 23976.727988

                             ****ORCA TERMINATED NORMALLY****
TOTAL RUN TIME: 0 days 0 hours 0 minutes 50 seconds 472 msec
