                         Program Version 4.1.2  - RELEASE  -
|  1> #Run DFT-D3 single point of the dimer
|  2> ! wB97X-D3 def2-TZVP TIGHTSCF CHELPG PMODEL PAL8
|  3>
|  4> %base "20-216_DFT_AB"
|  5>
|  6> %scf
|  7> MaxIter 1000
|  8> end
|  9>
| 10> * xyz 0 1
| 11>   C                      -6.664363            1.798460             3.947455
| 12>   O                      -7.527145            2.065606             2.932803
| 13>   H                      -7.923853            1.266214             2.581502
| 14>   H                      -5.749684            2.409529             3.868021
| 15>   H                      -7.079226            2.109862             4.910229
| 16>   H                      -6.449338            0.714370             3.869005
| 17>   C                      -5.437243            2.893795             0.003744
| 18>   O                      -6.339473            3.830913             0.590663
| 19>   H                      -6.962244            3.262412             1.060430
| 20>   H                      -4.843288            2.338916             0.754672
| 21>   H                      -6.034146            2.131542             -0.547641
| 22>   H                      -4.777210            3.354782             -0.710811
| 23> *
| 24>
| 25> #Run DFT-D3 single point of the molecule with dimer basis set
| 26> $new_job
| 27> %base "20-216_DFT_A"
| 28> ! wB97X-D3 def2-TZVP TIGHTSCF CHELPG PMODEL
| 29>
| 30> %scf
| 31> MaxIter 1000
| 32> end
| 33>
| 34> * xyz 0 1
| 35>   C                      -6.664363            1.798460             3.947455
| 36>   O                      -7.527145            2.065606             2.932803
| 37>   H                      -7.923853            1.266214             2.581502
| 38>   H                      -5.749684            2.409529             3.868021
| 39>   H                      -7.079226            2.109862             4.910229
| 40>   H                      -6.449338            0.714370             3.869005
| 41>   C                    : -5.437243            2.893795             0.003744
| 42>   O                    : -6.339473            3.830913             0.590663
| 43>   H                    : -6.962244            3.262412             1.060430
| 44>   H                    : -4.843288            2.338916             0.754672
| 45>   H                    : -6.034146            2.131542             -0.547641
| 46>   H                    : -4.777210            3.354782             -0.710811
| 47> *
| 48>
| 49> #Run DFT-D3 single point of the particle with dimer basis set
| 50> $new_job
| 51> %base "20-216_DFT_B"
| 52> ! wB97X-D3 def2-TZVP TIGHTSCF CHELPG PMODEL
| 53>
| 54> %scf
| 55> MaxIter 1000
| 56> end
| 57>
| 58> * xyz 0 1
| 59>   C                    : -6.664363            1.798460             3.947455
| 60>   O                    : -7.527145            2.065606             2.932803
| 61>   H                    : -7.923853            1.266214             2.581502
| 62>   H                    : -5.749684            2.409529             3.868021
| 63>   H                    : -7.079226            2.109862             4.910229
| 64>   H                    : -6.449338            0.714370             3.869005
| 65>   C                      -5.437243            2.893795             0.003744
| 66>   O                      -6.339473            3.830913             0.590663
| 67>   H                      -6.962244            3.262412             1.060430
| 68>   H                      -4.843288            2.338916             0.754672
| 69>   H                      -6.034146            2.131542             -0.547641
| 70>   H                      -4.777210            3.354782             -0.710811
| 71> *
| 72>
| 73>                          ****END OF INPUT****
 Total Charge           Charge          ....    0
 Multiplicity           Mult            ....    1
 Number of Electrons    NEL             ....   36
Dispersion correction           -0.001836864
FINAL SINGLE POINT ENERGY      -231.471686889772
Dispersion correction           -0.000223579
FINAL SINGLE POINT ENERGY      -115.730323045666

CARTESIAN COORDINATES (ANGSTROEM)
---------------------------------
  C     -6.664363    1.798460    3.947455
  O     -7.527145    2.065606    2.932803
  H     -7.923853    1.266214    2.581502
  H     -5.749684    2.409529    3.868021
  H     -7.079226    2.109862    4.910229
  H     -6.449338    0.714370    3.869005
  C     -5.437243    2.893795    0.003744
  O     -6.339473    3.830913    0.590663
  H     -6.962244    3.262412    1.060430
  H     -4.843288    2.338916    0.754672
  H     -6.034146    2.131542   -0.547641
  H     -4.777210    3.354782   -0.710811

 Multiplicity           Mult            ....    1
 Number of Electrons    NEL             ....   18
 Basis Dimension        Dim             ....  172

ORBITAL ENERGIES
----------------

  NO   OCC          E(Eh)            E(eV)
   0   2.0000     -19.233539      -523.3712
   1   2.0000     -10.316598      -280.7289
   2   2.0000      -1.135674       -30.9033
   3   2.0000      -0.792879       -21.5753
   4   2.0000      -0.607180       -16.5222
   5   2.0000      -0.537777       -14.6336
   6   2.0000      -0.530058       -14.4236
   7   2.0000      -0.441155       -12.0044
   8   2.0000      -0.373714       -10.1693
   9   0.0000       0.070992         1.9318
  10   0.0000       0.130394         3.5482
  11   0.0000       0.147127         4.0035
  12   0.0000       0.166497         4.5306
  13   0.0000       0.188424         5.1273

MULLIKEN ATOMIC CHARGES
-----------------------
   0 C :   -0.001754
   1 O :   -0.001588
   2 H :   -0.000215
   3 H :   -0.000763
   4 H :    0.000073
   5 H :   -0.000009
   6 C :   -0.179024
   7 O :   -0.462949
   8 H :    0.313958
   9 H :    0.103280
  10 H :    0.101577
  11 H :    0.127413
Sum of atomic charges:   -0.0000000

LOEWDIN ATOMIC CHARGES
----------------------
   0 C :   -0.002468
   1 O :   -0.008286
   2 H :   -0.000937
   3 H :   -0.000641
   4 H :   -0.000030
   5 H :   -0.000040
   6 C :   -0.380405
   7 O :   -0.081447
   8 H :    0.175384
   9 H :    0.096214
  10 H :    0.098960
  11 H :    0.103696

  Mayer bond orders larger than 0.1
B(  6-C ,  7-O ) :   0.9971 B(  6-C ,  9-H ) :   0.9690 B(  6-C , 10-H ) :   0.9864
B(  6-C , 11-H ) :   0.9732 B(  7-O ,  8-H ) :   0.9058

Dispersion correction           -0.000231024
FINAL SINGLE POINT ENERGY      -115.735283239140

DIPOLE MOMENT
-------------
                                X             Y             Z
Electronic contribution:     -0.99825       1.43934       0.68961
Nuclear contribution   :      0.97250      -2.14862      -0.65142
                        -----------------------------------------
Total Dipole Moment    :     -0.02575      -0.70928       0.03819
                        -----------------------------------------
Magnitude (a.u.)       :      0.71077
Magnitude (Debye)      :      1.80664

Rotational constants in cm-1:     4.218667     0.822877     0.791811
Rotational constants in MHz : 126472.466982 24669.227570 23737.893476

                             ****ORCA TERMINATED NORMALLY****
TOTAL RUN TIME: 0 days 0 hours 1 minutes 6 seconds 900 msec
