                         Program Version 4.1.2  - RELEASE  -
|  1> #Run DFT-D3 single point of the dimer
|  2> ! wB97X-D3 def2-TZVP TIGHTSCF CHELPG PMODEL PAL8
|  3>
|  4> %base "9-146_DFT_AB"
|  5>
|  6> %scf
|  7> MaxIter 1000
|  8> end
|  9>
| 10> * xyz 0 1
| 11>   C                      3.223272             -2.438549            -3.423664
| 12>   O                      3.022313             -1.536234            -2.328984
| 13>   H                      3.613779             -1.773464            -1.680100
| 14>   H                      4.288692             -2.640440            -3.533088
| 15>   H                      2.703304             -3.430729            -3.213615
| 16>   H                      2.902876             -2.032643            -4.407125
| 17>   C                      3.170945             0.983623             -6.569867
| 18>   O                      4.280881             0.472252             -5.817686
| 19>   H                      4.458388             1.056046             -5.107771
| 20>   H                      3.371466             2.121854             -6.607864
| 21>   H                      3.348184             0.656798             -7.618752
| 22>   H                      2.126035             0.707362             -6.156423
| 23> *
| 24>
| 25> #Run DFT-D3 single point of the molecule with dimer basis set
| 26> $new_job
| 27> %base "9-146_DFT_A"
| 28> ! wB97X-D3 def2-TZVP TIGHTSCF CHELPG PMODEL
| 29>
| 30> %scf
| 31> MaxIter 1000
| 32> end
| 33>
| 34> * xyz 0 1
| 35>   C                      3.223272             -2.438549            -3.423664
| 36>   O                      3.022313             -1.536234            -2.328984
| 37>   H                      3.613779             -1.773464            -1.680100
| 38>   H                      4.288692             -2.640440            -3.533088
| 39>   H                      2.703304             -3.430729            -3.213615
| 40>   H                      2.902876             -2.032643            -4.407125
| 41>   C                    : 3.170945             0.983623             -6.569867
| 42>   O                    : 4.280881             0.472252             -5.817686
| 43>   H                    : 4.458388             1.056046             -5.107771
| 44>   H                    : 3.371466             2.121854             -6.607864
| 45>   H                    : 3.348184             0.656798             -7.618752
| 46>   H                    : 2.126035             0.707362             -6.156423
| 47> *
| 48>
| 49> #Run DFT-D3 single point of the particle with dimer basis set
| 50> $new_job
| 51> %base "9-146_DFT_B"
| 52> ! wB97X-D3 def2-TZVP TIGHTSCF CHELPG PMODEL
| 53>
| 54> %scf
| 55> MaxIter 1000
| 56> end
| 57>
| 58> * xyz 0 1
| 59>   C                    : 3.223272             -2.438549            -3.423664
| 60>   O                    : 3.022313             -1.536234            -2.328984
| 61>   H                    : 3.613779             -1.773464            -1.680100
| 62>   H                    : 4.288692             -2.640440            -3.533088
| 63>   H                    : 2.703304             -3.430729            -3.213615
| 64>   H                    : 2.902876             -2.032643            -4.407125
| 65>   C                      3.170945             0.983623             -6.569867
| 66>   O                      4.280881             0.472252             -5.817686
| 67>   H                      4.458388             1.056046             -5.107771
| 68>   H                      3.371466             2.121854             -6.607864
| 69>   H                      3.348184             0.656798             -7.618752
| 70>   H                      2.126035             0.707362             -6.156423
| 71> *
| 72>
| 73>                          ****END OF INPUT****
 Total Charge           Charge          ....    0
 Multiplicity           Mult            ....    1
 Number of Electrons    NEL             ....   36
Dispersion correction           -0.001292703
FINAL SINGLE POINT ENERGY      -231.460720584916
Dispersion correction           -0.000247424
FINAL SINGLE POINT ENERGY      -115.731191401116

CARTESIAN COORDINATES (ANGSTROEM)
---------------------------------
  C      3.223272   -2.438549   -3.423664
  O      3.022313   -1.536234   -2.328984
  H      3.613779   -1.773464   -1.680100
  H      4.288692   -2.640440   -3.533088
  H      2.703304   -3.430729   -3.213615
  H      2.902876   -2.032643   -4.407125
  C      3.170945    0.983623   -6.569867
  O      4.280881    0.472252   -5.817686
  H      4.458388    1.056046   -5.107771
  H      3.371466    2.121854   -6.607864
  H      3.348184    0.656798   -7.618752
  H      2.126035    0.707362   -6.156423

 Multiplicity           Mult            ....    1
 Number of Electrons    NEL             ....   18
 Basis Dimension        Dim             ....  172

ORBITAL ENERGIES
----------------

  NO   OCC          E(Eh)            E(eV)
   0   2.0000     -19.227177      -523.1981
   1   2.0000     -10.331652      -281.1385
   2   2.0000      -1.135276       -30.8924
   3   2.0000      -0.787856       -21.4386
   4   2.0000      -0.603366       -16.4184
   5   2.0000      -0.541551       -14.7364
   6   2.0000      -0.521306       -14.1855
   7   2.0000      -0.425247       -11.5716
   8   2.0000      -0.376107       -10.2344
   9   0.0000       0.090153         2.4532
  10   0.0000       0.118290         3.2188
  11   0.0000       0.149091         4.0570
  12   0.0000       0.172930         4.7057
  13   0.0000       0.183701         4.9988

MULLIKEN ATOMIC CHARGES
-----------------------
   0 C :   -0.002887
   1 O :    0.000217
   2 H :    0.000026
   3 H :    0.000048
   4 H :   -0.000205
   5 H :   -0.001486
   6 C :   -0.176322
   7 O :   -0.471262
   8 H :    0.311881
   9 H :    0.104872
  10 H :    0.125203
  11 H :    0.109917
Sum of atomic charges:   -0.0000000

LOEWDIN ATOMIC CHARGES
----------------------
   0 C :   -0.003524
   1 O :   -0.000064
   2 H :   -0.000014
   3 H :   -0.000334
   4 H :   -0.000058
   5 H :   -0.002407
   6 C :   -0.385110
   7 O :   -0.082949
   8 H :    0.149373
   9 H :    0.107670
  10 H :    0.110960
  11 H :    0.106458

  Mayer bond orders larger than 0.1
B(  6-C ,  7-O ) :   0.9912 B(  6-C ,  9-H ) :   0.9869 B(  6-C , 10-H ) :   0.9730
B(  6-C , 11-H ) :   0.9565 B(  7-O ,  8-H ) :   0.9051

Dispersion correction           -0.000261784
FINAL SINGLE POINT ENERGY      -115.727647949139

DIPOLE MOMENT
-------------
                                X             Y             Z
Electronic contribution:      1.26841      -0.85700       0.88831
Nuclear contribution   :     -1.56313       1.45240      -0.75742
                        -----------------------------------------
Total Dipole Moment    :     -0.29471       0.59541       0.13089
                        -----------------------------------------
Magnitude (a.u.)       :      0.67712
Magnitude (Debye)      :      1.72111

Rotational constants in cm-1:     3.959218     0.805193     0.791118
Rotational constants in MHz : 118694.368942 24139.063877 23717.124898

                             ****ORCA TERMINATED NORMALLY****
TOTAL RUN TIME: 0 days 0 hours 0 minutes 40 seconds 724 msec
