                         Program Version 4.1.2  - RELEASE  -
|  1> #Run DFT-D3 single point of the dimer
|  2> ! wB97X-D3 def2-TZVP TIGHTSCF CHELPG PMODEL PAL8
|  3>
|  4> %base "1-161_DFT_AB"
|  5>
|  6> %scf
|  7> MaxIter 1000
|  8> end
|  9>
| 10> * xyz 0 1
| 11>   C                      -5.673843            9.678529             0.887699
| 12>   O                      -5.079798            8.484025             1.211510
| 13>   H                      -4.231268            8.659638             1.607767
| 14>   H                      -5.775124            10.359576            1.647475
| 15>   H                      -5.041630            10.146954            0.099919
| 16>   H                      -6.710823            9.493351             0.457744
| 17>   C                      -4.728299            5.566947             3.681288
| 18>   O                      -3.589925            5.869790             4.411110
| 19>   H                      -3.218320            6.670380             4.094765
| 20>   H                      -5.260163            6.458923             3.442964
| 21>   H                      -4.550372            5.150121             2.696832
| 22>   H                      -5.420831            4.930192             4.198414
| 23> *
| 24>
| 25> #Run DFT-D3 single point of the molecule with dimer basis set
| 26> $new_job
| 27> %base "1-161_DFT_A"
| 28> ! wB97X-D3 def2-TZVP TIGHTSCF CHELPG PMODEL
| 29>
| 30> %scf
| 31> MaxIter 1000
| 32> end
| 33>
| 34> * xyz 0 1
| 35>   C                      -5.673843            9.678529             0.887699
| 36>   O                      -5.079798            8.484025             1.211510
| 37>   H                      -4.231268            8.659638             1.607767
| 38>   H                      -5.775124            10.359576            1.647475
| 39>   H                      -5.041630            10.146954            0.099919
| 40>   H                      -6.710823            9.493351             0.457744
| 41>   C                    : -4.728299            5.566947             3.681288
| 42>   O                    : -3.589925            5.869790             4.411110
| 43>   H                    : -3.218320            6.670380             4.094765
| 44>   H                    : -5.260163            6.458923             3.442964
| 45>   H                    : -4.550372            5.150121             2.696832
| 46>   H                    : -5.420831            4.930192             4.198414
| 47> *
| 48>
| 49> #Run DFT-D3 single point of the particle with dimer basis set
| 50> $new_job
| 51> %base "1-161_DFT_B"
| 52> ! wB97X-D3 def2-TZVP TIGHTSCF CHELPG PMODEL
| 53>
| 54> %scf
| 55> MaxIter 1000
| 56> end
| 57>
| 58> * xyz 0 1
| 59>   C                    : -5.673843            9.678529             0.887699
| 60>   O                    : -5.079798            8.484025             1.211510
| 61>   H                    : -4.231268            8.659638             1.607767
| 62>   H                    : -5.775124            10.359576            1.647475
| 63>   H                    : -5.041630            10.146954            0.099919
| 64>   H                    : -6.710823            9.493351             0.457744
| 65>   C                      -4.728299            5.566947             3.681288
| 66>   O                      -3.589925            5.869790             4.411110
| 67>   H                      -3.218320            6.670380             4.094765
| 68>   H                      -5.260163            6.458923             3.442964
| 69>   H                      -4.550372            5.150121             2.696832
| 70>   H                      -5.420831            4.930192             4.198414
| 71> *
| 72>
| 73>                          ****END OF INPUT****
 Total Charge           Charge          ....    0
 Multiplicity           Mult            ....    1
 Number of Electrons    NEL             ....   36
Dispersion correction           -0.001239781
FINAL SINGLE POINT ENERGY      -231.463646568899
Dispersion correction           -0.000215787
FINAL SINGLE POINT ENERGY      -115.730274474102

CARTESIAN COORDINATES (ANGSTROEM)
---------------------------------
  C     -5.673843    9.678529    0.887699
  O     -5.079798    8.484025    1.211510
  H     -4.231268    8.659638    1.607767
  H     -5.775124   10.359576    1.647475
  H     -5.041630   10.146954    0.099919
  H     -6.710823    9.493351    0.457744
  C     -4.728299    5.566947    3.681288
  O     -3.589925    5.869790    4.411110
  H     -3.218320    6.670380    4.094765
  H     -5.260163    6.458923    3.442964
  H     -4.550372    5.150121    2.696832
  H     -5.420831    4.930192    4.198414

 Multiplicity           Mult            ....    1
 Number of Electrons    NEL             ....   18
 Basis Dimension        Dim             ....  172

ORBITAL ENERGIES
----------------

  NO   OCC          E(Eh)            E(eV)
   0   2.0000     -19.228251      -523.2273
   1   2.0000     -10.304646      -280.4037
   2   2.0000      -1.148771       -31.2596
   3   2.0000      -0.803153       -21.8549
   4   2.0000      -0.625171       -17.0118
   5   2.0000      -0.541054       -14.7228
   6   2.0000      -0.537052       -14.6139
   7   2.0000      -0.433250       -11.7893
   8   2.0000      -0.372096       -10.1253
   9   0.0000       0.074636         2.0309
  10   0.0000       0.116128         3.1600
  11   0.0000       0.152851         4.1593
  12   0.0000       0.179094         4.8734
  13   0.0000       0.187030         5.0894

MULLIKEN ATOMIC CHARGES
-----------------------
   0 C :   -0.000320
   1 O :    0.000103
   2 H :    0.000012
   3 H :    0.000022
   4 H :    0.000001
   5 H :   -0.000007
   6 C :   -0.155195
   7 O :   -0.469963
   8 H :    0.314481
   9 H :    0.099377
  10 H :    0.092259
  11 H :    0.119230
Sum of atomic charges:   -0.0000000

LOEWDIN ATOMIC CHARGES
----------------------
   0 C :   -0.000266
   1 O :   -0.001224
   2 H :   -0.000580
   3 H :   -0.000010
   4 H :   -0.000007
   5 H :   -0.000009
   6 C :   -0.398791
   7 O :   -0.043349
   8 H :    0.158027
   9 H :    0.090368
  10 H :    0.091993
  11 H :    0.103847

  Mayer bond orders larger than 0.1
B(  6-C ,  7-O ) :   1.0030 B(  6-C ,  9-H ) :   0.9890 B(  6-C , 10-H ) :   0.9731
B(  6-C , 11-H ) :   0.9747 B(  7-O ,  8-H ) :   0.9024

Dispersion correction           -0.000227838
FINAL SINGLE POINT ENERGY      -115.732749988454

DIPOLE MOMENT
-------------
                                X             Y             Z
Electronic contribution:      1.52641       0.22230       1.11447
Nuclear contribution   :     -1.74471       0.20676      -1.60160
                        -----------------------------------------
Total Dipole Moment    :     -0.21830       0.42905      -0.48714
                        -----------------------------------------
Magnitude (a.u.)       :      0.68487
Magnitude (Debye)      :      1.74079

Rotational constants in cm-1:     4.604390     0.855746     0.822442
Rotational constants in MHz : 138036.125935 25654.617290 24656.181712

                             ****ORCA TERMINATED NORMALLY****
TOTAL RUN TIME: 0 days 0 hours 6 minutes 15 seconds 650 msec
