                         Program Version 4.1.2  - RELEASE  -
|  1> #Run DFT-D3 single point of the dimer
|  2> ! wB97X-D3 def2-TZVP TIGHTSCF CHELPG PMODEL PAL8
|  3>
|  4> %base "13-45_DFT_AB"
|  5>
|  6> %scf
|  7> MaxIter 1000
|  8> end
|  9>
| 10> * xyz 0 1
| 11>   C                      2.238468             -1.442492            -1.376394
| 12>   O                      1.121689             -1.733540            -0.514272
| 13>   H                      1.431541             -2.499082            -0.058163
| 14>   H                      3.190386             -1.760322            -0.835746
| 15>   H                      2.025457             -1.974779            -2.354060
| 16>   H                      2.293692             -0.377440            -1.575006
| 17>   C                      0.931299             -4.887291            1.729372
| 18>   O                      1.899001             -4.635179            0.812990
| 19>   H                      2.752696             -4.659677            1.330891
| 20>   H                      1.230511             -5.631169            2.488092
| 21>   H                      0.711567             -3.944448            2.221123
| 22>   H                      -0.019507            -5.280675            1.303522
| 23> *
| 24>
| 25> #Run DFT-D3 single point of the molecule with dimer basis set
| 26> $new_job
| 27> %base "13-45_DFT_A"
| 28> ! wB97X-D3 def2-TZVP TIGHTSCF CHELPG PMODEL
| 29>
| 30> %scf
| 31> MaxIter 1000
| 32> end
| 33>
| 34> * xyz 0 1
| 35>   C                      2.238468             -1.442492            -1.376394
| 36>   O                      1.121689             -1.733540            -0.514272
| 37>   H                      1.431541             -2.499082            -0.058163
| 38>   H                      3.190386             -1.760322            -0.835746
| 39>   H                      2.025457             -1.974779            -2.354060
| 40>   H                      2.293692             -0.377440            -1.575006
| 41>   C                    : 0.931299             -4.887291            1.729372
| 42>   O                    : 1.899001             -4.635179            0.812990
| 43>   H                    : 2.752696             -4.659677            1.330891
| 44>   H                    : 1.230511             -5.631169            2.488092
| 45>   H                    : 0.711567             -3.944448            2.221123
| 46>   H                    : -0.019507            -5.280675            1.303522
| 47> *
| 48>
| 49> #Run DFT-D3 single point of the particle with dimer basis set
| 50> $new_job
| 51> %base "13-45_DFT_B"
| 52> ! wB97X-D3 def2-TZVP TIGHTSCF CHELPG PMODEL
| 53>
| 54> %scf
| 55> MaxIter 1000
| 56> end
| 57>
| 58> * xyz 0 1
| 59>   C                    : 2.238468             -1.442492            -1.376394
| 60>   O                    : 1.121689             -1.733540            -0.514272
| 61>   H                    : 1.431541             -2.499082            -0.058163
| 62>   H                    : 3.190386             -1.760322            -0.835746
| 63>   H                    : 2.025457             -1.974779            -2.354060
| 64>   H                    : 2.293692             -0.377440            -1.575006
| 65>   C                      0.931299             -4.887291            1.729372
| 66>   O                      1.899001             -4.635179            0.812990
| 67>   H                      2.752696             -4.659677            1.330891
| 68>   H                      1.230511             -5.631169            2.488092
| 69>   H                      0.711567             -3.944448            2.221123
| 70>   H                      -0.019507            -5.280675            1.303522
| 71> *
| 72>
| 73>                          ****END OF INPUT****
 Total Charge           Charge          ....    0
 Multiplicity           Mult            ....    1
 Number of Electrons    NEL             ....   36
Dispersion correction           -0.001574510
FINAL SINGLE POINT ENERGY      -231.467013977416
Dispersion correction           -0.000233270
FINAL SINGLE POINT ENERGY      -115.730811133011

CARTESIAN COORDINATES (ANGSTROEM)
---------------------------------
  C      2.238468   -1.442492   -1.376394
  O      1.121689   -1.733540   -0.514272
  H      1.431541   -2.499082   -0.058163
  H      3.190386   -1.760322   -0.835746
  H      2.025457   -1.974779   -2.354060
  H      2.293692   -0.377440   -1.575006
  C      0.931299   -4.887291    1.729372
  O      1.899001   -4.635179    0.812990
  H      2.752696   -4.659677    1.330891
  H      1.230511   -5.631169    2.488092
  H      0.711567   -3.944448    2.221123
  H     -0.019507   -5.280675    1.303522

 Multiplicity           Mult            ....    1
 Number of Electrons    NEL             ....   18
 Basis Dimension        Dim             ....  172

ORBITAL ENERGIES
----------------

  NO   OCC          E(Eh)            E(eV)
   0   2.0000     -19.234541      -523.3985
   1   2.0000     -10.309485      -280.5353
   2   2.0000      -1.152157       -31.3518
   3   2.0000      -0.785806       -21.3829
   4   2.0000      -0.617133       -16.7930
   5   2.0000      -0.552078       -15.0228
   6   2.0000      -0.533533       -14.5182
   7   2.0000      -0.427963       -11.6455
   8   2.0000      -0.368471       -10.0266
   9   0.0000       0.094746         2.5782
  10   0.0000       0.117878         3.2076
  11   0.0000       0.152163         4.1406
  12   0.0000       0.183650         4.9974
  13   0.0000       0.202210         5.5024

MULLIKEN ATOMIC CHARGES
-----------------------
   0 C :    0.001357
   1 O :   -0.001490
   2 H :   -0.002254
   3 H :   -0.002010
   4 H :   -0.000182
   5 H :   -0.000134
   6 C :   -0.164940
   7 O :   -0.457693
   8 H :    0.322816
   9 H :    0.098511
  10 H :    0.098152
  11 H :    0.107867
Sum of atomic charges:   -0.0000000

LOEWDIN ATOMIC CHARGES
----------------------
   0 C :   -0.001771
   1 O :   -0.001381
   2 H :   -0.017002
   3 H :   -0.000675
   4 H :   -0.000055
   5 H :   -0.000023
   6 C :   -0.441710
   7 O :   -0.034806
   8 H :    0.201573
   9 H :    0.095201
  10 H :    0.092021
  11 H :    0.108626

  Mayer bond orders larger than 0.1
B(  6-C ,  7-O ) :   0.9972 B(  6-C ,  9-H ) :   0.9793 B(  6-C , 10-H ) :   0.9856
B(  6-C , 11-H ) :   0.9700 B(  7-O ,  8-H ) :   0.8885

Dispersion correction           -0.000211515
FINAL SINGLE POINT ENERGY      -115.730190744898

DIPOLE MOMENT
-------------
                                X             Y             Z
Electronic contribution:      1.21908       0.31661      -1.41068
Nuclear contribution   :     -1.02736      -0.44333       2.05960
                        -----------------------------------------
Total Dipole Moment    :      0.19172      -0.12671       0.64892
                        -----------------------------------------
Magnitude (a.u.)       :      0.68841
Magnitude (Debye)      :      1.74979

Rotational constants in cm-1:     4.205229     0.888228     0.852130
Rotational constants in MHz : 126069.600612 26628.418357 25546.227796

                             ****ORCA TERMINATED NORMALLY****
TOTAL RUN TIME: 0 days 0 hours 1 minutes 10 seconds 259 msec
