                         Program Version 4.1.2  - RELEASE  -
|  1> #Run DFT-D3 single point of the dimer
|  2> ! wB97X-D3 def2-TZVP TIGHTSCF CHELPG PMODEL PAL8
|  3>
|  4> %base "19-152_DFT_AB"
|  5>
|  6> %scf
|  7> MaxIter 1000
|  8> end
|  9>
| 10> * xyz 0 1
| 11>   C                      7.674039             0.035445             7.558897
| 12>   O                      8.497836             -1.111017            7.348845
| 13>   H                      8.080656             -1.808521            6.818184
| 14>   H                      7.815197             0.376542             8.597976
| 15>   H                      7.876174             0.780799             6.758844
| 16>   H                      6.562464             -0.208771            7.573850
| 17>   C                      5.268727             -3.063159            7.449425
| 18>   O                      6.666113             -3.106608            7.276511
| 19>   H                      6.971623             -4.013655            7.312842
| 20>   H                      4.745337             -3.110422            6.493935
| 21>   H                      4.932925             -3.893901            8.091872
| 22>   H                      5.027289             -2.137624            7.948754
| 23> *
| 24>
| 25> #Run DFT-D3 single point of the molecule with dimer basis set
| 26> $new_job
| 27> %base "19-152_DFT_A"
| 28> ! wB97X-D3 def2-TZVP TIGHTSCF CHELPG PMODEL
| 29>
| 30> %scf
| 31> MaxIter 1000
| 32> end
| 33>
| 34> * xyz 0 1
| 35>   C                      7.674039             0.035445             7.558897
| 36>   O                      8.497836             -1.111017            7.348845
| 37>   H                      8.080656             -1.808521            6.818184
| 38>   H                      7.815197             0.376542             8.597976
| 39>   H                      7.876174             0.780799             6.758844
| 40>   H                      6.562464             -0.208771            7.573850
| 41>   C                    : 5.268727             -3.063159            7.449425
| 42>   O                    : 6.666113             -3.106608            7.276511
| 43>   H                    : 6.971623             -4.013655            7.312842
| 44>   H                    : 4.745337             -3.110422            6.493935
| 45>   H                    : 4.932925             -3.893901            8.091872
| 46>   H                    : 5.027289             -2.137624            7.948754
| 47> *
| 48>
| 49> #Run DFT-D3 single point of the particle with dimer basis set
| 50> $new_job
| 51> %base "19-152_DFT_B"
| 52> ! wB97X-D3 def2-TZVP TIGHTSCF CHELPG PMODEL
| 53>
| 54> %scf
| 55> MaxIter 1000
| 56> end
| 57>
| 58> * xyz 0 1
| 59>   C                    : 7.674039             0.035445             7.558897
| 60>   O                    : 8.497836             -1.111017            7.348845
| 61>   H                    : 8.080656             -1.808521            6.818184
| 62>   H                    : 7.815197             0.376542             8.597976
| 63>   H                    : 7.876174             0.780799             6.758844
| 64>   H                    : 6.562464             -0.208771            7.573850
| 65>   C                      5.268727             -3.063159            7.449425
| 66>   O                      6.666113             -3.106608            7.276511
| 67>   H                      6.971623             -4.013655            7.312842
| 68>   H                      4.745337             -3.110422            6.493935
| 69>   H                      4.932925             -3.893901            8.091872
| 70>   H                      5.027289             -2.137624            7.948754
| 71> *
| 72>
| 73>                          ****END OF INPUT****
 Total Charge           Charge          ....    0
 Multiplicity           Mult            ....    1
 Number of Electrons    NEL             ....   36
Dispersion correction           -0.002034585
FINAL SINGLE POINT ENERGY      -231.472521341241
Dispersion correction           -0.000274419
FINAL SINGLE POINT ENERGY      -115.732352584563

CARTESIAN COORDINATES (ANGSTROEM)
---------------------------------
  C      7.674039    0.035445    7.558897
  O      8.497836   -1.111017    7.348845
  H      8.080656   -1.808521    6.818184
  H      7.815197    0.376542    8.597976
  H      7.876174    0.780799    6.758844
  H      6.562464   -0.208771    7.573850
  C      5.268727   -3.063159    7.449425
  O      6.666113   -3.106608    7.276511
  H      6.971623   -4.013655    7.312842
  H      4.745337   -3.110422    6.493935
  H      4.932925   -3.893901    8.091872
  H      5.027289   -2.137624    7.948754

 Multiplicity           Mult            ....    1
 Number of Electrons    NEL             ....   18
 Basis Dimension        Dim             ....  172

ORBITAL ENERGIES
----------------

  NO   OCC          E(Eh)            E(eV)
   0   2.0000     -19.227783      -523.2146
   1   2.0000     -10.311238      -280.5831
   2   2.0000      -1.136536       -30.9267
   3   2.0000      -0.796357       -21.6700
   4   2.0000      -0.611770       -16.6471
   5   2.0000      -0.544195       -14.8083
   6   2.0000      -0.529094       -14.3974
   7   2.0000      -0.430978       -11.7275
   8   2.0000      -0.373220       -10.1558
   9   0.0000       0.100085         2.7234
  10   0.0000       0.125813         3.4236
  11   0.0000       0.154030         4.1914
  12   0.0000       0.192860         5.2480
  13   0.0000       0.197869         5.3843

MULLIKEN ATOMIC CHARGES
-----------------------
   0 C :   -0.003177
   1 O :    0.003888
   2 H :   -0.011683
   3 H :    0.000080
   4 H :   -0.000195
   5 H :    0.001595
   6 C :   -0.156713
   7 O :   -0.472311
   8 H :    0.314003
   9 H :    0.102644
  10 H :    0.103103
  11 H :    0.118768
Sum of atomic charges:    0.0000000

LOEWDIN ATOMIC CHARGES
----------------------
   0 C :   -0.005959
   1 O :   -0.011002
   2 H :   -0.038405
   3 H :   -0.000095
   4 H :   -0.000084
   5 H :   -0.002608
   6 C :   -0.379784
   7 O :   -0.027957
   8 H :    0.167097
   9 H :    0.095107
  10 H :    0.099178
  11 H :    0.104511

  Mayer bond orders larger than 0.1
B(  6-C ,  7-O ) :   0.9940 B(  6-C ,  9-H ) :   0.9736 B(  6-C , 10-H ) :   0.9798
B(  6-C , 11-H ) :   0.9777 B(  7-O ,  8-H ) :   0.8983

Dispersion correction           -0.000239065
FINAL SINGLE POINT ENERGY      -115.736904054382

DIPOLE MOMENT
-------------
                                X             Y             Z
Electronic contribution:      1.75028       0.08389      -0.25166
Nuclear contribution   :     -2.11439      -0.65903       0.36346
                        -----------------------------------------
Total Dipole Moment    :     -0.36411      -0.57514       0.11180
                        -----------------------------------------
Magnitude (a.u.)       :      0.68982
Magnitude (Debye)      :      1.75339

Rotational constants in cm-1:     4.300155     0.837928     0.809530
Rotational constants in MHz : 128915.398174 25120.446694 24269.093735

                             ****ORCA TERMINATED NORMALLY****
TOTAL RUN TIME: 0 days 0 hours 1 minutes 45 seconds 216 msec
