                         Program Version 4.1.2  - RELEASE  -
|  1> #Run DFT-D3 single point of the dimer
|  2> ! wB97X-D3 def2-TZVP TIGHTSCF CHELPG PMODEL PAL8
|  3>
|  4> %base "9-164_DFT_AB"
|  5>
|  6> %scf
|  7> MaxIter 1000
|  8> end
|  9>
| 10> * xyz 0 1
| 11>   C                      -5.140939            2.584717             -8.729847
| 12>   O                      -6.445005            2.920000             -8.282105
| 13>   H                      -6.808157            2.021269             -8.135481
| 14>   H                      -4.483177            3.504714             -8.792591
| 15>   H                      -4.745012            1.765250             -8.084287
| 16>   H                      -5.108222            2.105289             -9.689092
| 17>   C                      -9.298587            1.803805             -6.478827
| 18>   O                      -8.305992            1.242163             -7.239094
| 19>   H                      -8.353353            0.286556             -7.186937
| 20>   H                      -9.300331            2.921243             -6.469330
| 21>   H                      -10.281671           1.538030             -6.929164
| 22>   H                      -9.274592            1.551800             -5.427799
| 23> *
| 24>
| 25> #Run DFT-D3 single point of the molecule with dimer basis set
| 26> $new_job
| 27> %base "9-164_DFT_A"
| 28> ! wB97X-D3 def2-TZVP TIGHTSCF CHELPG PMODEL
| 29>
| 30> %scf
| 31> MaxIter 1000
| 32> end
| 33>
| 34> * xyz 0 1
| 35>   C                      -5.140939            2.584717             -8.729847
| 36>   O                      -6.445005            2.920000             -8.282105
| 37>   H                      -6.808157            2.021269             -8.135481
| 38>   H                      -4.483177            3.504714             -8.792591
| 39>   H                      -4.745012            1.765250             -8.084287
| 40>   H                      -5.108222            2.105289             -9.689092
| 41>   C                    : -9.298587            1.803805             -6.478827
| 42>   O                    : -8.305992            1.242163             -7.239094
| 43>   H                    : -8.353353            0.286556             -7.186937
| 44>   H                    : -9.300331            2.921243             -6.469330
| 45>   H                    : -10.281671           1.538030             -6.929164
| 46>   H                    : -9.274592            1.551800             -5.427799
| 47> *
| 48>
| 49> #Run DFT-D3 single point of the particle with dimer basis set
| 50> $new_job
| 51> %base "9-164_DFT_B"
| 52> ! wB97X-D3 def2-TZVP TIGHTSCF CHELPG PMODEL
| 53>
| 54> %scf
| 55> MaxIter 1000
| 56> end
| 57>
| 58> * xyz 0 1
| 59>   C                    : -5.140939            2.584717             -8.729847
| 60>   O                    : -6.445005            2.920000             -8.282105
| 61>   H                    : -6.808157            2.021269             -8.135481
| 62>   H                    : -4.483177            3.504714             -8.792591
| 63>   H                    : -4.745012            1.765250             -8.084287
| 64>   H                    : -5.108222            2.105289             -9.689092
| 65>   C                      -9.298587            1.803805             -6.478827
| 66>   O                      -8.305992            1.242163             -7.239094
| 67>   H                      -8.353353            0.286556             -7.186937
| 68>   H                      -9.300331            2.921243             -6.469330
| 69>   H                      -10.281671           1.538030             -6.929164
| 70>   H                      -9.274592            1.551800             -5.427799
| 71> *
| 72>
| 73>                          ****END OF INPUT****
 Total Charge           Charge          ....    0
 Multiplicity           Mult            ....    1
 Number of Electrons    NEL             ....   36
Dispersion correction           -0.001527295
FINAL SINGLE POINT ENERGY      -231.467761920878
Dispersion correction           -0.000224168
FINAL SINGLE POINT ENERGY      -115.729784949927

CARTESIAN COORDINATES (ANGSTROEM)
---------------------------------
  C     -5.140939    2.584717   -8.729847
  O     -6.445005    2.920000   -8.282105
  H     -6.808157    2.021269   -8.135481
  H     -4.483177    3.504714   -8.792591
  H     -4.745012    1.765250   -8.084287
  H     -5.108222    2.105289   -9.689092
  C     -9.298587    1.803805   -6.478827
  O     -8.305992    1.242163   -7.239094
  H     -8.353353    0.286556   -7.186937
  H     -9.300331    2.921243   -6.469330
  H    -10.281671    1.538030   -6.929164
  H     -9.274592    1.551800   -5.427799

 Multiplicity           Mult            ....    1
 Number of Electrons    NEL             ....   18
 Basis Dimension        Dim             ....  172

ORBITAL ENERGIES
----------------

  NO   OCC          E(Eh)            E(eV)
   0   2.0000     -19.231682      -523.3207
   1   2.0000     -10.313077      -280.6331
   2   2.0000      -1.150805       -31.3150
   3   2.0000      -0.794316       -21.6144
   4   2.0000      -0.619552       -16.8589
   5   2.0000      -0.549689       -14.9578
   6   2.0000      -0.533433       -14.5155
   7   2.0000      -0.422574       -11.4988
   8   2.0000      -0.373001       -10.1499
   9   0.0000       0.100592         2.7373
  10   0.0000       0.122244         3.3264
  11   0.0000       0.152481         4.1492
  12   0.0000       0.190550         5.1851
  13   0.0000       0.203302         5.5321

MULLIKEN ATOMIC CHARGES
-----------------------
   0 C :    0.001347
   1 O :    0.000821
   2 H :   -0.012116
   3 H :   -0.000030
   4 H :   -0.000926
   5 H :   -0.000195
   6 C :   -0.153316
   7 O :   -0.462372
   8 H :    0.318351
   9 H :    0.117485
  10 H :    0.090780
  11 H :    0.100170
Sum of atomic charges:    0.0000000

LOEWDIN ATOMIC CHARGES
----------------------
   0 C :   -0.001398
   1 O :   -0.009189
   2 H :   -0.045137
   3 H :   -0.000018
   4 H :   -0.000309
   5 H :   -0.000024
   6 C :   -0.420848
   7 O :    0.002425
   8 H :    0.173683
   9 H :    0.113502
  10 H :    0.097112
  11 H :    0.090202

  Mayer bond orders larger than 0.1
B(  6-C ,  7-O ) :   0.9938 B(  6-C ,  9-H ) :   0.9737 B(  6-C , 10-H ) :   0.9826
B(  6-C , 11-H ) :   0.9698 B(  7-O ,  8-H ) :   0.8915

Dispersion correction           -0.000234391
FINAL SINGLE POINT ENERGY      -115.733404509779

DIPOLE MOMENT
-------------
                                X             Y             Z
Electronic contribution:      1.46788      -0.69079      -1.01007
Nuclear contribution   :     -1.86534       0.29612       1.33868
                        -----------------------------------------
Total Dipole Moment    :     -0.39746      -0.39467       0.32860
                        -----------------------------------------
Magnitude (a.u.)       :      0.64940
Magnitude (Debye)      :      1.65063

Rotational constants in cm-1:     4.375907     0.857855     0.834073
Rotational constants in MHz : 131186.382362 25717.853899 25004.870882

                             ****ORCA TERMINATED NORMALLY****
TOTAL RUN TIME: 0 days 0 hours 0 minutes 46 seconds 148 msec
