                         Program Version 4.1.2  - RELEASE  -
|  1> #Run DFT-D3 single point of the dimer
|  2> ! wB97X-D3 def2-TZVP TIGHTSCF CHELPG PMODEL PAL8
|  3>
|  4> %base "9-49_DFT_AB"
|  5>
|  6> %scf
|  7> MaxIter 1000
|  8> end
|  9>
| 10> * xyz 0 1
| 11>   C                      -2.321207            -5.271564            -0.117392
| 12>   O                      -1.699948            -4.236620            -0.812064
| 13>   H                      -1.067507            -3.804357            -0.260356
| 14>   H                      -3.067091            -5.682834            -0.736439
| 15>   H                      -1.643910            -6.077927            0.202816
| 16>   H                      -2.851049            -4.806668            0.717258
| 17>   C                      -5.665758            -4.689822            -2.360224
| 18>   O                      -6.884275            -4.148201            -2.717216
| 19>   H                      -7.629676            -4.652212            -2.280680
| 20>   H                      -4.944511            -4.627288            -3.154112
| 21>   H                      -5.203577            -4.051282            -1.505271
| 22>   H                      -5.827950            -5.648376            -1.913046
| 23> *
| 24>
| 25> #Run DFT-D3 single point of the molecule with dimer basis set
| 26> $new_job
| 27> %base "9-49_DFT_A"
| 28> ! wB97X-D3 def2-TZVP TIGHTSCF CHELPG PMODEL
| 29>
| 30> %scf
| 31> MaxIter 1000
| 32> end
| 33>
| 34> * xyz 0 1
| 35>   C                      -2.321207            -5.271564            -0.117392
| 36>   O                      -1.699948            -4.236620            -0.812064
| 37>   H                      -1.067507            -3.804357            -0.260356
| 38>   H                      -3.067091            -5.682834            -0.736439
| 39>   H                      -1.643910            -6.077927            0.202816
| 40>   H                      -2.851049            -4.806668            0.717258
| 41>   C                    : -5.665758            -4.689822            -2.360224
| 42>   O                    : -6.884275            -4.148201            -2.717216
| 43>   H                    : -7.629676            -4.652212            -2.280680
| 44>   H                    : -4.944511            -4.627288            -3.154112
| 45>   H                    : -5.203577            -4.051282            -1.505271
| 46>   H                    : -5.827950            -5.648376            -1.913046
| 47> *
| 48>
| 49> #Run DFT-D3 single point of the particle with dimer basis set
| 50> $new_job
| 51> %base "9-49_DFT_B"
| 52> ! wB97X-D3 def2-TZVP TIGHTSCF CHELPG PMODEL
| 53>
| 54> %scf
| 55> MaxIter 1000
| 56> end
| 57>
| 58> * xyz 0 1
| 59>   C                    : -2.321207            -5.271564            -0.117392
| 60>   O                    : -1.699948            -4.236620            -0.812064
| 61>   H                    : -1.067507            -3.804357            -0.260356
| 62>   H                    : -3.067091            -5.682834            -0.736439
| 63>   H                    : -1.643910            -6.077927            0.202816
| 64>   H                    : -2.851049            -4.806668            0.717258
| 65>   C                      -5.665758            -4.689822            -2.360224
| 66>   O                      -6.884275            -4.148201            -2.717216
| 67>   H                      -7.629676            -4.652212            -2.280680
| 68>   H                      -4.944511            -4.627288            -3.154112
| 69>   H                      -5.203577            -4.051282            -1.505271
| 70>   H                      -5.827950            -5.648376            -1.913046
| 71> *
| 72>
| 73>                          ****END OF INPUT****
 Total Charge           Charge          ....    0
 Multiplicity           Mult            ....    1
 Number of Electrons    NEL             ....   36
Dispersion correction           -0.001386570
FINAL SINGLE POINT ENERGY      -231.463226628798
Dispersion correction           -0.000224301
FINAL SINGLE POINT ENERGY      -115.734555301582

CARTESIAN COORDINATES (ANGSTROEM)
---------------------------------
  C     -2.321207   -5.271564   -0.117392
  O     -1.699948   -4.236620   -0.812064
  H     -1.067507   -3.804357   -0.260356
  H     -3.067091   -5.682834   -0.736439
  H     -1.643910   -6.077927    0.202816
  H     -2.851049   -4.806668    0.717258
  C     -5.665758   -4.689822   -2.360224
  O     -6.884275   -4.148201   -2.717216
  H     -7.629676   -4.652212   -2.280680
  H     -4.944511   -4.627288   -3.154112
  H     -5.203577   -4.051282   -1.505271
  H     -5.827950   -5.648376   -1.913046

 Multiplicity           Mult            ....    1
 Number of Electrons    NEL             ....   18
 Basis Dimension        Dim             ....  172

ORBITAL ENERGIES
----------------

  NO   OCC          E(Eh)            E(eV)
   0   2.0000     -19.231545      -523.3170
   1   2.0000     -10.312616      -280.6205
   2   2.0000      -1.139080       -30.9959
   3   2.0000      -0.788996       -21.4697
   4   2.0000      -0.616698       -16.7812
   5   2.0000      -0.544444       -14.8151
   6   2.0000      -0.527650       -14.3581
   7   2.0000      -0.432457       -11.7678
   8   2.0000      -0.362255        -9.8575
   9   0.0000       0.083784         2.2799
  10   0.0000       0.107286         2.9194
  11   0.0000       0.149435         4.0663
  12   0.0000       0.167740         4.5644
  13   0.0000       0.182729         4.9723

MULLIKEN ATOMIC CHARGES
-----------------------
   0 C :   -0.001822
   1 O :    0.000216
   2 H :   -0.000000
   3 H :    0.000315
   4 H :   -0.000093
   5 H :    0.000103
   6 C :   -0.155061
   7 O :   -0.470311
   8 H :    0.321549
   9 H :    0.118591
  10 H :    0.084538
  11 H :    0.101977
Sum of atomic charges:    0.0000000

LOEWDIN ATOMIC CHARGES
----------------------
   0 C :   -0.002788
   1 O :   -0.000105
   2 H :   -0.000012
   3 H :   -0.001738
   4 H :   -0.000036
   5 H :   -0.000388
   6 C :   -0.413190
   7 O :   -0.071680
   8 H :    0.195451
   9 H :    0.099849
  10 H :    0.103462
  11 H :    0.091176

  Mayer bond orders larger than 0.1
B(  6-C ,  7-O ) :   1.0159 B(  6-C ,  9-H ) :   0.9698 B(  6-C , 10-H ) :   0.9761
B(  6-C , 11-H ) :   0.9880 B(  7-O ,  8-H ) :   0.8902

Dispersion correction           -0.000235587
FINAL SINGLE POINT ENERGY      -115.727860017363

DIPOLE MOMENT
-------------
                                X             Y             Z
Electronic contribution:     -1.54148       0.63799      -0.75538
Nuclear contribution   :      1.50153      -1.19108       1.14806
                        -----------------------------------------
Total Dipole Moment    :     -0.03995      -0.55309       0.39268
                        -----------------------------------------
Magnitude (a.u.)       :      0.67949
Magnitude (Debye)      :      1.72712

Rotational constants in cm-1:     4.183952     0.864684     0.825307
Rotational constants in MHz : 125431.737186 25922.563183 24742.085584

                             ****ORCA TERMINATED NORMALLY****
TOTAL RUN TIME: 0 days 0 hours 0 minutes 45 seconds 735 msec
