                         Program Version 4.1.2  - RELEASE  -
|  1> #Run DFT-D3 single point of the dimer
|  2> ! wB97X-D3 def2-TZVP TIGHTSCF CHELPG PMODEL PAL8
|  3>
|  4> %base "7-154_DFT_AB"
|  5>
|  6> %scf
|  7> MaxIter 1000
|  8> end
|  9>
| 10> * xyz 0 1
| 11>   C                      -5.953416            6.441439             -5.791146
| 12>   O                      -4.882713            6.105189             -6.733241
| 13>   H                      -4.725952            5.151699             -6.657263
| 14>   H                      -5.894636            7.567412             -5.696806
| 15>   H                      -6.940423            6.332680             -6.210736
| 16>   H                      -5.806236            5.876499             -4.860108
| 17>   C                      -3.408592            8.007071             -10.069326
| 18>   O                      -3.151029            7.008733             -9.074709
| 19>   H                      -3.792584            7.119654             -8.357129
| 20>   H                      -4.490253            8.286194             -10.163853
| 21>   H                      -2.850615            8.856141             -9.827471
| 22>   H                      -3.138573            7.624338             -11.024739
| 23> *
| 24>
| 25> #Run DFT-D3 single point of the molecule with dimer basis set
| 26> $new_job
| 27> %base "7-154_DFT_A"
| 28> ! wB97X-D3 def2-TZVP TIGHTSCF CHELPG PMODEL
| 29>
| 30> %scf
| 31> MaxIter 1000
| 32> end
| 33>
| 34> * xyz 0 1
| 35>   C                      -5.953416            6.441439             -5.791146
| 36>   O                      -4.882713            6.105189             -6.733241
| 37>   H                      -4.725952            5.151699             -6.657263
| 38>   H                      -5.894636            7.567412             -5.696806
| 39>   H                      -6.940423            6.332680             -6.210736
| 40>   H                      -5.806236            5.876499             -4.860108
| 41>   C                    : -3.408592            8.007071             -10.069326
| 42>   O                    : -3.151029            7.008733             -9.074709
| 43>   H                    : -3.792584            7.119654             -8.357129
| 44>   H                    : -4.490253            8.286194             -10.163853
| 45>   H                    : -2.850615            8.856141             -9.827471
| 46>   H                    : -3.138573            7.624338             -11.024739
| 47> *
| 48>
| 49> #Run DFT-D3 single point of the particle with dimer basis set
| 50> $new_job
| 51> %base "7-154_DFT_B"
| 52> ! wB97X-D3 def2-TZVP TIGHTSCF CHELPG PMODEL
| 53>
| 54> %scf
| 55> MaxIter 1000
| 56> end
| 57>
| 58> * xyz 0 1
| 59>   C                    : -5.953416            6.441439             -5.791146
| 60>   O                    : -4.882713            6.105189             -6.733241
| 61>   H                    : -4.725952            5.151699             -6.657263
| 62>   H                    : -5.894636            7.567412             -5.696806
| 63>   H                    : -6.940423            6.332680             -6.210736
| 64>   H                    : -5.806236            5.876499             -4.860108
| 65>   C                      -3.408592            8.007071             -10.069326
| 66>   O                      -3.151029            7.008733             -9.074709
| 67>   H                      -3.792584            7.119654             -8.357129
| 68>   H                      -4.490253            8.286194             -10.163853
| 69>   H                      -2.850615            8.856141             -9.827471
| 70>   H                      -3.138573            7.624338             -11.024739
| 71> *
| 72>
| 73>                          ****END OF INPUT****
 Total Charge           Charge          ....    0
 Multiplicity           Mult            ....    1
 Number of Electrons    NEL             ....   36
Dispersion correction           -0.001320946
FINAL SINGLE POINT ENERGY      -231.471587458488
Dispersion correction           -0.000260813
FINAL SINGLE POINT ENERGY      -115.731501517086

CARTESIAN COORDINATES (ANGSTROEM)
---------------------------------
  C     -5.953416    6.441439   -5.791146
  O     -4.882713    6.105189   -6.733241
  H     -4.725952    5.151699   -6.657263
  H     -5.894636    7.567412   -5.696806
  H     -6.940423    6.332680   -6.210736
  H     -5.806236    5.876499   -4.860108
  C     -3.408592    8.007071  -10.069326
  O     -3.151029    7.008733   -9.074709
  H     -3.792584    7.119654   -8.357129
  H     -4.490253    8.286194  -10.163853
  H     -2.850615    8.856141   -9.827471
  H     -3.138573    7.624338  -11.024739

 Multiplicity           Mult            ....    1
 Number of Electrons    NEL             ....   18
 Basis Dimension        Dim             ....  172

ORBITAL ENERGIES
----------------

  NO   OCC          E(Eh)            E(eV)
   0   2.0000     -19.228738      -523.2406
   1   2.0000     -10.308258      -280.5020
   2   2.0000      -1.127366       -30.6772
   3   2.0000      -0.799705       -21.7611
   4   2.0000      -0.604311       -16.4441
   5   2.0000      -0.550875       -14.9901
   6   2.0000      -0.521807       -14.1991
   7   2.0000      -0.433029       -11.7833
   8   2.0000      -0.374870       -10.2007
   9   0.0000       0.073260         1.9935
  10   0.0000       0.125659         3.4194
  11   0.0000       0.150198         4.0871
  12   0.0000       0.170928         4.6512
  13   0.0000       0.193525         5.2661

MULLIKEN ATOMIC CHARGES
-----------------------
   0 C :   -0.000428
   1 O :   -0.000575
   2 H :   -0.000445
   3 H :   -0.000012
   4 H :    0.000038
   5 H :   -0.000011
   6 C :   -0.156663
   7 O :   -0.479299
   8 H :    0.310953
   9 H :    0.098217
  10 H :    0.112048
  11 H :    0.116177
Sum of atomic charges:   -0.0000000

LOEWDIN ATOMIC CHARGES
----------------------
   0 C :   -0.000963
   1 O :   -0.010117
   2 H :   -0.001011
   3 H :   -0.000119
   4 H :   -0.000018
   5 H :   -0.000028
   6 C :   -0.361344
   7 O :   -0.090614
   8 H :    0.175500
   9 H :    0.101942
  10 H :    0.086781
  11 H :    0.099991

  Mayer bond orders larger than 0.1
B(  6-C ,  7-O ) :   0.9936 B(  6-C ,  9-H ) :   0.9785 B(  6-C , 10-H ) :   0.9809
B(  6-C , 11-H ) :   0.9746 B(  7-O ,  8-H ) :   0.9033

Dispersion correction           -0.000243635
FINAL SINGLE POINT ENERGY      -115.733595898031

DIPOLE MOMENT
-------------
                                X             Y             Z
Electronic contribution:      0.49334      -1.26374       1.14473
Nuclear contribution   :     -1.00337       1.74691      -1.11526
                        -----------------------------------------
Total Dipole Moment    :     -0.51002       0.48318       0.02947
                        -----------------------------------------
Magnitude (a.u.)       :      0.70317
Magnitude (Debye)      :      1.78733

Rotational constants in cm-1:     4.373867     0.817182     0.789116
Rotational constants in MHz : 131125.223624 24498.513021 23657.113068

                             ****ORCA TERMINATED NORMALLY****
TOTAL RUN TIME: 0 days 0 hours 1 minutes 5 seconds 978 msec
