                         Program Version 4.1.2  - RELEASE  -
|  1> #Run DFT-D3 single point of the dimer
|  2> ! wB97X-D3 def2-TZVP TIGHTSCF CHELPG PMODEL PAL8
|  3>
|  4> %base "2-17_DFT_AB"
|  5>
|  6> %scf
|  7> MaxIter 1000
|  8> end
|  9>
| 10> * xyz 0 1
| 11>   C                      3.632446             -6.994954            3.184119
| 12>   O                      4.407674             -7.329784            1.949356
| 13>   H                      4.084722             -6.757850            1.277197
| 14>   H                      3.654814             -7.907382            3.783212
| 15>   H                      4.085916             -6.202538            3.691906
| 16>   H                      2.536765             -6.837212            2.963092
| 17>   C                      4.271287             -11.181173           2.809340
| 18>   O                      5.219006             -12.088335           3.242450
| 19>   H                      6.090139             -11.795613           2.957617
| 20>   H                      4.312714             -10.886073           1.767779
| 21>   H                      3.263578             -11.671661           2.858804
| 22>   H                      4.221716             -10.303152           3.462769
| 23> *
| 24>
| 25> #Run DFT-D3 single point of the molecule with dimer basis set
| 26> $new_job
| 27> %base "2-17_DFT_A"
| 28> ! wB97X-D3 def2-TZVP TIGHTSCF CHELPG PMODEL
| 29>
| 30> %scf
| 31> MaxIter 1000
| 32> end
| 33>
| 34> * xyz 0 1
| 35>   C                      3.632446             -6.994954            3.184119
| 36>   O                      4.407674             -7.329784            1.949356
| 37>   H                      4.084722             -6.757850            1.277197
| 38>   H                      3.654814             -7.907382            3.783212
| 39>   H                      4.085916             -6.202538            3.691906
| 40>   H                      2.536765             -6.837212            2.963092
| 41>   C                    : 4.271287             -11.181173           2.809340
| 42>   O                    : 5.219006             -12.088335           3.242450
| 43>   H                    : 6.090139             -11.795613           2.957617
| 44>   H                    : 4.312714             -10.886073           1.767779
| 45>   H                    : 3.263578             -11.671661           2.858804
| 46>   H                    : 4.221716             -10.303152           3.462769
| 47> *
| 48>
| 49> #Run DFT-D3 single point of the particle with dimer basis set
| 50> $new_job
| 51> %base "2-17_DFT_B"
| 52> ! wB97X-D3 def2-TZVP TIGHTSCF CHELPG PMODEL
| 53>
| 54> %scf
| 55> MaxIter 1000
| 56> end
| 57>
| 58> * xyz 0 1
| 59>   C                    : 3.632446             -6.994954            3.184119
| 60>   O                    : 4.407674             -7.329784            1.949356
| 61>   H                    : 4.084722             -6.757850            1.277197
| 62>   H                    : 3.654814             -7.907382            3.783212
| 63>   H                    : 4.085916             -6.202538            3.691906
| 64>   H                    : 2.536765             -6.837212            2.963092
| 65>   C                      4.271287             -11.181173           2.809340
| 66>   O                      5.219006             -12.088335           3.242450
| 67>   H                      6.090139             -11.795613           2.957617
| 68>   H                      4.312714             -10.886073           1.767779
| 69>   H                      3.263578             -11.671661           2.858804
| 70>   H                      4.221716             -10.303152           3.462769
| 71> *
| 72>
| 73>                          ****END OF INPUT****
 Total Charge           Charge          ....    0
 Multiplicity           Mult            ....    1
 Number of Electrons    NEL             ....   36
Dispersion correction           -0.001385443
FINAL SINGLE POINT ENERGY      -231.466652390014
Dispersion correction           -0.000266601
FINAL SINGLE POINT ENERGY      -115.730509860028

CARTESIAN COORDINATES (ANGSTROEM)
---------------------------------
  C      3.632446   -6.994954    3.184119
  O      4.407674   -7.329784    1.949356
  H      4.084722   -6.757850    1.277197
  H      3.654814   -7.907382    3.783212
  H      4.085916   -6.202538    3.691906
  H      2.536765   -6.837212    2.963092
  C      4.271287  -11.181173    2.809340
  O      5.219006  -12.088335    3.242450
  H      6.090139  -11.795613    2.957617
  H      4.312714  -10.886073    1.767779
  H      3.263578  -11.671661    2.858804
  H      4.221716  -10.303152    3.462769

 Multiplicity           Mult            ....    1
 Number of Electrons    NEL             ....   18
 Basis Dimension        Dim             ....  172

ORBITAL ENERGIES
----------------

  NO   OCC          E(Eh)            E(eV)
   0   2.0000     -19.232335      -523.3384
   1   2.0000     -10.311206      -280.5822
   2   2.0000      -1.146440       -31.1962
   3   2.0000      -0.794306       -21.6142
   4   2.0000      -0.617987       -16.8163
   5   2.0000      -0.548966       -14.9381
   6   2.0000      -0.525440       -14.2979
   7   2.0000      -0.425581       -11.5806
   8   2.0000      -0.375440       -10.2162
   9   0.0000       0.083031         2.2594
  10   0.0000       0.118234         3.2173
  11   0.0000       0.154697         4.2095
  12   0.0000       0.159232         4.3329
  13   0.0000       0.192802         5.2464

MULLIKEN ATOMIC CHARGES
-----------------------
   0 C :   -0.000001
   1 O :    0.000039
   2 H :   -0.000011
   3 H :   -0.002139
   4 H :   -0.000080
   5 H :    0.000033
   6 C :   -0.156706
   7 O :   -0.469105
   8 H :    0.316794
   9 H :    0.101650
  10 H :    0.108727
  11 H :    0.100799
Sum of atomic charges:    0.0000000

LOEWDIN ATOMIC CHARGES
----------------------
   0 C :   -0.002228
   1 O :   -0.000379
   2 H :   -0.000036
   3 H :   -0.004203
   4 H :   -0.000020
   5 H :   -0.000017
   6 C :   -0.417551
   7 O :   -0.050954
   8 H :    0.172775
   9 H :    0.091979
  10 H :    0.114372
  11 H :    0.096263

  Mayer bond orders larger than 0.1
B(  6-C ,  7-O ) :   1.0049 B(  6-C ,  9-H ) :   0.9732 B(  6-C , 10-H ) :   0.9704
B(  6-C , 11-H ) :   0.9792 B(  7-O ,  8-H ) :   0.8960

Dispersion correction           -0.000244793
FINAL SINGLE POINT ENERGY      -115.734746804451

DIPOLE MOMENT
-------------
                                X             Y             Z
Electronic contribution:      1.30856      -1.23692       0.60083
Nuclear contribution   :     -1.11061       1.74900      -0.96440
                        -----------------------------------------
Total Dipole Moment    :      0.19795       0.51208      -0.36357
                        -----------------------------------------
Magnitude (a.u.)       :      0.65848
Magnitude (Debye)      :      1.67371

Rotational constants in cm-1:     4.351483     0.850472     0.826494
Rotational constants in MHz : 130454.188176 25496.496262 24777.670023

                             ****ORCA TERMINATED NORMALLY****
TOTAL RUN TIME: 0 days 0 hours 6 minutes 24 seconds 315 msec
