                         Program Version 4.1.2  - RELEASE  -
|  1> #Run DFT-D3 single point of the dimer
|  2> ! wB97X-D3 def2-TZVP TIGHTSCF CHELPG PMODEL PAL8
|  3>
|  4> %base "19-102_DFT_AB"
|  5>
|  6> %scf
|  7> MaxIter 1000
|  8> end
|  9>
| 10> * xyz 0 1
| 11>   C                      6.919625             2.237632             2.945838
| 12>   O                      7.105568             3.614791             3.004067
| 13>   H                      7.927648             3.903414             2.617584
| 14>   H                      7.422164             1.719098             3.729250
| 15>   H                      5.841692             1.966989             3.041488
| 16>   H                      7.318918             1.785904             1.953686
| 17>   C                      4.982957             4.001329             5.891778
| 18>   O                      4.613225             3.537500             4.583148
| 19>   H                      5.346133             3.845427             3.967900
| 20>   H                      4.870589             3.154463             6.600303
| 21>   H                      6.029761             4.384582             5.912499
| 22>   H                      4.309728             4.826055             6.124172
| 23> *
| 24>
| 25> #Run DFT-D3 single point of the molecule with dimer basis set
| 26> $new_job
| 27> %base "19-102_DFT_A"
| 28> ! wB97X-D3 def2-TZVP TIGHTSCF CHELPG PMODEL
| 29>
| 30> %scf
| 31> MaxIter 1000
| 32> end
| 33>
| 34> * xyz 0 1
| 35>   C                      6.919625             2.237632             2.945838
| 36>   O                      7.105568             3.614791             3.004067
| 37>   H                      7.927648             3.903414             2.617584
| 38>   H                      7.422164             1.719098             3.729250
| 39>   H                      5.841692             1.966989             3.041488
| 40>   H                      7.318918             1.785904             1.953686
| 41>   C                    : 4.982957             4.001329             5.891778
| 42>   O                    : 4.613225             3.537500             4.583148
| 43>   H                    : 5.346133             3.845427             3.967900
| 44>   H                    : 4.870589             3.154463             6.600303
| 45>   H                    : 6.029761             4.384582             5.912499
| 46>   H                    : 4.309728             4.826055             6.124172
| 47> *
| 48>
| 49> #Run DFT-D3 single point of the particle with dimer basis set
| 50> $new_job
| 51> %base "19-102_DFT_B"
| 52> ! wB97X-D3 def2-TZVP TIGHTSCF CHELPG PMODEL
| 53>
| 54> %scf
| 55> MaxIter 1000
| 56> end
| 57>
| 58> * xyz 0 1
| 59>   C                    : 6.919625             2.237632             2.945838
| 60>   O                    : 7.105568             3.614791             3.004067
| 61>   H                    : 7.927648             3.903414             2.617584
| 62>   H                    : 7.422164             1.719098             3.729250
| 63>   H                    : 5.841692             1.966989             3.041488
| 64>   H                    : 7.318918             1.785904             1.953686
| 65>   C                      4.982957             4.001329             5.891778
| 66>   O                      4.613225             3.537500             4.583148
| 67>   H                      5.346133             3.845427             3.967900
| 68>   H                      4.870589             3.154463             6.600303
| 69>   H                      6.029761             4.384582             5.912499
| 70>   H                      4.309728             4.826055             6.124172
| 71> *
| 72>
| 73>                          ****END OF INPUT****
 Total Charge           Charge          ....    0
 Multiplicity           Mult            ....    1
 Number of Electrons    NEL             ....   36
Dispersion correction           -0.001997191
FINAL SINGLE POINT ENERGY      -231.473508512190
Dispersion correction           -0.000256335
FINAL SINGLE POINT ENERGY      -115.732954638645

CARTESIAN COORDINATES (ANGSTROEM)
---------------------------------
  C      6.919625    2.237632    2.945838
  O      7.105568    3.614791    3.004067
  H      7.927648    3.903414    2.617584
  H      7.422164    1.719098    3.729250
  H      5.841692    1.966989    3.041488
  H      7.318918    1.785904    1.953686
  C      4.982957    4.001329    5.891778
  O      4.613225    3.537500    4.583148
  H      5.346133    3.845427    3.967900
  H      4.870589    3.154463    6.600303
  H      6.029761    4.384582    5.912499
  H      4.309728    4.826055    6.124172

 Multiplicity           Mult            ....    1
 Number of Electrons    NEL             ....   18
 Basis Dimension        Dim             ....  172

ORBITAL ENERGIES
----------------

  NO   OCC          E(Eh)            E(eV)
   0   2.0000     -19.233399      -523.3674
   1   2.0000     -10.317964      -280.7661
   2   2.0000      -1.122483       -30.5443
   3   2.0000      -0.787728       -21.4352
   4   2.0000      -0.601461       -16.3666
   5   2.0000      -0.542760       -14.7693
   6   2.0000      -0.517532       -14.0828
   7   2.0000      -0.436506       -11.8779
   8   2.0000      -0.372151       -10.1267
   9   0.0000       0.071613         1.9487
  10   0.0000       0.132850         3.6150
  11   0.0000       0.151946         4.1347
  12   0.0000       0.161454         4.3934
  13   0.0000       0.194520         5.2932

MULLIKEN ATOMIC CHARGES
-----------------------
   0 C :   -0.013879
   1 O :   -0.001780
   2 H :   -0.000220
   3 H :    0.001838
   4 H :   -0.004655
   5 H :   -0.000588
   6 C :   -0.173402
   7 O :   -0.464411
   8 H :    0.318032
   9 H :    0.117592
  10 H :    0.105946
  11 H :    0.115530
Sum of atomic charges:   -0.0000000

LOEWDIN ATOMIC CHARGES
----------------------
   0 C :   -0.019319
   1 O :   -0.015461
   2 H :   -0.000607
   3 H :   -0.000656
   4 H :   -0.010885
   5 H :   -0.000257
   6 C :   -0.373400
   7 O :   -0.091950
   8 H :    0.205881
   9 H :    0.106864
  10 H :    0.100510
  11 H :    0.099281

  Mayer bond orders larger than 0.1
B(  6-C ,  7-O ) :   0.9863 B(  6-C ,  9-H ) :   0.9718 B(  6-C , 10-H ) :   0.9795
B(  6-C , 11-H ) :   0.9784 B(  7-O ,  8-H ) :   0.8976

Dispersion correction           -0.000248283
FINAL SINGLE POINT ENERGY      -115.733104077729

DIPOLE MOMENT
-------------
                                X             Y             Z
Electronic contribution:     -0.60513      -0.64370      -1.49506
Nuclear contribution   :      1.20184       1.03388       1.65369
                        -----------------------------------------
Total Dipole Moment    :      0.59671       0.39018       0.15862
                        -----------------------------------------
Magnitude (a.u.)       :      0.73039
Magnitude (Debye)      :      1.85650

Rotational constants in cm-1:     4.035995     0.817668     0.785006
Rotational constants in MHz : 120996.095808 24513.063343 23533.874151

                             ****ORCA TERMINATED NORMALLY****
TOTAL RUN TIME: 0 days 0 hours 0 minutes 55 seconds 585 msec
