                         Program Version 4.1.2  - RELEASE  -
|  1> #Run DFT-D3 single point of the dimer
|  2> ! wB97X-D3 def2-TZVP TIGHTSCF CHELPG PMODEL PAL8
|  3>
|  4> %base "2-84_DFT_AB"
|  5>
|  6> %scf
|  7> MaxIter 1000
|  8> end
|  9>
| 10> * xyz 0 1
| 11>   C                      3.109948             -9.032840            -10.902030
| 12>   O                      3.398500             -8.189306            -9.812126
| 13>   H                      2.667794             -8.164677            -9.192085
| 14>   H                      2.527054             -9.914284            -10.648775
| 15>   H                      2.584791             -8.426579            -11.676514
| 16>   H                      4.025159             -9.343973            -11.343113
| 17>   C                      1.939360             -9.035453            -7.082805
| 18>   O                      3.045270             -8.165502            -7.097040
| 19>   H                      3.112391             -7.736880            -6.215927
| 20>   H                      1.745708             -9.488842            -6.117196
| 21>   H                      0.983521             -8.509977            -7.267819
| 22>   H                      2.094026             -9.756410            -7.788334
| 23> *
| 24>
| 25> #Run DFT-D3 single point of the molecule with dimer basis set
| 26> $new_job
| 27> %base "2-84_DFT_A"
| 28> ! wB97X-D3 def2-TZVP TIGHTSCF CHELPG PMODEL
| 29>
| 30> %scf
| 31> MaxIter 1000
| 32> end
| 33>
| 34> * xyz 0 1
| 35>   C                      3.109948             -9.032840            -10.902030
| 36>   O                      3.398500             -8.189306            -9.812126
| 37>   H                      2.667794             -8.164677            -9.192085
| 38>   H                      2.527054             -9.914284            -10.648775
| 39>   H                      2.584791             -8.426579            -11.676514
| 40>   H                      4.025159             -9.343973            -11.343113
| 41>   C                    : 1.939360             -9.035453            -7.082805
| 42>   O                    : 3.045270             -8.165502            -7.097040
| 43>   H                    : 3.112391             -7.736880            -6.215927
| 44>   H                    : 1.745708             -9.488842            -6.117196
| 45>   H                    : 0.983521             -8.509977            -7.267819
| 46>   H                    : 2.094026             -9.756410            -7.788334
| 47> *
| 48>
| 49> #Run DFT-D3 single point of the particle with dimer basis set
| 50> $new_job
| 51> %base "2-84_DFT_B"
| 52> ! wB97X-D3 def2-TZVP TIGHTSCF CHELPG PMODEL
| 53>
| 54> %scf
| 55> MaxIter 1000
| 56> end
| 57>
| 58> * xyz 0 1
| 59>   C                    : 3.109948             -9.032840            -10.902030
| 60>   O                    : 3.398500             -8.189306            -9.812126
| 61>   H                    : 2.667794             -8.164677            -9.192085
| 62>   H                    : 2.527054             -9.914284            -10.648775
| 63>   H                    : 2.584791             -8.426579            -11.676514
| 64>   H                    : 4.025159             -9.343973            -11.343113
| 65>   C                      1.939360             -9.035453            -7.082805
| 66>   O                      3.045270             -8.165502            -7.097040
| 67>   H                      3.112391             -7.736880            -6.215927
| 68>   H                      1.745708             -9.488842            -6.117196
| 69>   H                      0.983521             -8.509977            -7.267819
| 70>   H                      2.094026             -9.756410            -7.788334
| 71> *
| 72>
| 73>                          ****END OF INPUT****
 Total Charge           Charge          ....    0
 Multiplicity           Mult            ....    1
 Number of Electrons    NEL             ....   36
Dispersion correction           -0.001841546
FINAL SINGLE POINT ENERGY      -231.466000455038
Dispersion correction           -0.000244312
FINAL SINGLE POINT ENERGY      -115.736175940086

CARTESIAN COORDINATES (ANGSTROEM)
---------------------------------
  C      3.109948   -9.032840  -10.902030
  O      3.398500   -8.189306   -9.812126
  H      2.667794   -8.164677   -9.192085
  H      2.527054   -9.914284  -10.648775
  H      2.584791   -8.426579  -11.676514
  H      4.025159   -9.343973  -11.343113
  C      1.939360   -9.035453   -7.082805
  O      3.045270   -8.165502   -7.097040
  H      3.112391   -7.736880   -6.215927
  H      1.745708   -9.488842   -6.117196
  H      0.983521   -8.509977   -7.267819
  H      2.094026   -9.756410   -7.788334

 Multiplicity           Mult            ....    1
 Number of Electrons    NEL             ....   18
 Basis Dimension        Dim             ....  172

ORBITAL ENERGIES
----------------

  NO   OCC          E(Eh)            E(eV)
   0   2.0000     -19.232333      -523.3384
   1   2.0000     -10.303892      -280.3832
   2   2.0000      -1.134104       -30.8605
   3   2.0000      -0.800375       -21.7793
   4   2.0000      -0.615465       -16.7477
   5   2.0000      -0.541421       -14.7328
   6   2.0000      -0.527629       -14.3575
   7   2.0000      -0.440452       -11.9853
   8   2.0000      -0.370473       -10.0811
   9   0.0000       0.095577         2.6008
  10   0.0000       0.117750         3.2041
  11   0.0000       0.156397         4.2558
  12   0.0000       0.191755         5.2179
  13   0.0000       0.193113         5.2549

MULLIKEN ATOMIC CHARGES
-----------------------
   0 C :   -0.000266
   1 O :    0.000251
   2 H :   -0.000943
   3 H :   -0.000199
   4 H :   -0.000050
   5 H :    0.000044
   6 C :   -0.174147
   7 O :   -0.474063
   8 H :    0.313747
   9 H :    0.108926
  10 H :    0.097578
  11 H :    0.129121
Sum of atomic charges:    0.0000000

LOEWDIN ATOMIC CHARGES
----------------------
   0 C :   -0.001507
   1 O :   -0.009778
   2 H :   -0.021685
   3 H :   -0.000635
   4 H :   -0.000016
   5 H :   -0.000012
   6 C :   -0.376825
   7 O :   -0.059067
   8 H :    0.181836
   9 H :    0.095610
  10 H :    0.099019
  11 H :    0.093058

  Mayer bond orders larger than 0.1
B(  6-C ,  7-O ) :   0.9951 B(  6-C ,  9-H ) :   0.9747 B(  6-C , 10-H ) :   0.9778
B(  6-C , 11-H ) :   0.9796 B(  7-O ,  8-H ) :   0.8969

Dispersion correction           -0.000237907
FINAL SINGLE POINT ENERGY      -115.731874088209

DIPOLE MOMENT
-------------
                                X             Y             Z
Electronic contribution:      1.53406       0.99596      -0.21813
Nuclear contribution   :     -1.91797      -1.09112       0.79864
                        -----------------------------------------
Total Dipole Moment    :     -0.38391      -0.09516       0.58051
                        -----------------------------------------
Magnitude (a.u.)       :      0.70245
Magnitude (Debye)      :      1.78549

Rotational constants in cm-1:     4.438283     0.840637     0.806453
Rotational constants in MHz : 133056.386797 25201.651883 24176.838620

                             ****ORCA TERMINATED NORMALLY****
TOTAL RUN TIME: 0 days 0 hours 6 minutes 10 seconds 905 msec
