                         Program Version 4.1.2  - RELEASE  -
|  1> #Run DFT-D3 single point of the dimer
|  2> ! wB97X-D3 def2-TZVP TIGHTSCF CHELPG PMODEL PAL8
|  3>
|  4> %base "17-82_DFT_AB"
|  5>
|  6> %scf
|  7> MaxIter 1000
|  8> end
|  9>
| 10> * xyz 0 1
| 11>   C                      -5.201214            2.513529             -9.631531
| 12>   O                      -4.515403            1.567229             -8.775223
| 13>   H                      -3.611690            1.885344             -8.810768
| 14>   H                      -5.769243            3.251244             -9.067049
| 15>   H                      -4.640554            2.954154             -10.383649
| 16>   H                      -6.017593            1.996925             -10.226665
| 17>   C                      -9.154546            1.934879             -6.663609
| 18>   O                      -7.723137            1.838977             -6.525834
| 19>   H                      -7.325439            2.560128             -6.967846
| 20>   H                      -9.538992            1.800190             -7.658600
| 21>   H                      -9.758094            1.485448             -5.888381
| 22>   H                      -9.552824            2.964969             -6.674743
| 23> *
| 24>
| 25> #Run DFT-D3 single point of the molecule with dimer basis set
| 26> $new_job
| 27> %base "17-82_DFT_A"
| 28> ! wB97X-D3 def2-TZVP TIGHTSCF CHELPG PMODEL
| 29>
| 30> %scf
| 31> MaxIter 1000
| 32> end
| 33>
| 34> * xyz 0 1
| 35>   C                      -5.201214            2.513529             -9.631531
| 36>   O                      -4.515403            1.567229             -8.775223
| 37>   H                      -3.611690            1.885344             -8.810768
| 38>   H                      -5.769243            3.251244             -9.067049
| 39>   H                      -4.640554            2.954154             -10.383649
| 40>   H                      -6.017593            1.996925             -10.226665
| 41>   C                    : -9.154546            1.934879             -6.663609
| 42>   O                    : -7.723137            1.838977             -6.525834
| 43>   H                    : -7.325439            2.560128             -6.967846
| 44>   H                    : -9.538992            1.800190             -7.658600
| 45>   H                    : -9.758094            1.485448             -5.888381
| 46>   H                    : -9.552824            2.964969             -6.674743
| 47> *
| 48>
| 49> #Run DFT-D3 single point of the particle with dimer basis set
| 50> $new_job
| 51> %base "17-82_DFT_B"
| 52> ! wB97X-D3 def2-TZVP TIGHTSCF CHELPG PMODEL
| 53>
| 54> %scf
| 55> MaxIter 1000
| 56> end
| 57>
| 58> * xyz 0 1
| 59>   C                    : -5.201214            2.513529             -9.631531
| 60>   O                    : -4.515403            1.567229             -8.775223
| 61>   H                    : -3.611690            1.885344             -8.810768
| 62>   H                    : -5.769243            3.251244             -9.067049
| 63>   H                    : -4.640554            2.954154             -10.383649
| 64>   H                    : -6.017593            1.996925             -10.226665
| 65>   C                      -9.154546            1.934879             -6.663609
| 66>   O                      -7.723137            1.838977             -6.525834
| 67>   H                      -7.325439            2.560128             -6.967846
| 68>   H                      -9.538992            1.800190             -7.658600
| 69>   H                      -9.758094            1.485448             -5.888381
| 70>   H                      -9.552824            2.964969             -6.674743
| 71> *
| 72>
| 73>                          ****END OF INPUT****
 Total Charge           Charge          ....    0
 Multiplicity           Mult            ....    1
 Number of Electrons    NEL             ....   36
Dispersion correction           -0.001290488
FINAL SINGLE POINT ENERGY      -231.449103455694
Dispersion correction           -0.000262466
FINAL SINGLE POINT ENERGY      -115.728831140642

CARTESIAN COORDINATES (ANGSTROEM)
---------------------------------
  C     -5.201214    2.513529   -9.631531
  O     -4.515403    1.567229   -8.775223
  H     -3.611690    1.885344   -8.810768
  H     -5.769243    3.251244   -9.067049
  H     -4.640554    2.954154  -10.383649
  H     -6.017593    1.996925  -10.226665
  C     -9.154546    1.934879   -6.663609
  O     -7.723137    1.838977   -6.525834
  H     -7.325439    2.560128   -6.967846
  H     -9.538992    1.800190   -7.658600
  H     -9.758094    1.485448   -5.888381
  H     -9.552824    2.964969   -6.674743

 Multiplicity           Mult            ....    1
 Number of Electrons    NEL             ....   18
 Basis Dimension        Dim             ....  172

ORBITAL ENERGIES
----------------

  NO   OCC          E(Eh)            E(eV)
   0   2.0000     -19.234458      -523.3962
   1   2.0000     -10.314989      -280.6851
   2   2.0000      -1.135767       -30.9058
   3   2.0000      -0.808231       -21.9931
   4   2.0000      -0.623091       -16.9552
   5   2.0000      -0.543160       -14.7801
   6   2.0000      -0.510390       -13.8884
   7   2.0000      -0.441827       -12.0227
   8   2.0000      -0.372484       -10.1358
   9   0.0000       0.077639         2.1127
  10   0.0000       0.124781         3.3955
  11   0.0000       0.145901         3.9702
  12   0.0000       0.167515         4.5583
  13   0.0000       0.190304         5.1784

MULLIKEN ATOMIC CHARGES
-----------------------
   0 C :   -0.003086
   1 O :    0.000555
   2 H :    0.000011
   3 H :   -0.001248
   4 H :   -0.000315
   5 H :    0.000273
   6 C :   -0.185089
   7 O :   -0.465063
   8 H :    0.315350
   9 H :    0.103508
  10 H :    0.134895
  11 H :    0.100209
Sum of atomic charges:   -0.0000000

LOEWDIN ATOMIC CHARGES
----------------------
   0 C :   -0.002274
   1 O :   -0.000256
   2 H :   -0.000018
   3 H :   -0.001390
   4 H :   -0.000081
   5 H :   -0.000131
   6 C :   -0.378499
   7 O :   -0.073999
   8 H :    0.152632
   9 H :    0.094839
  10 H :    0.108157
  11 H :    0.101021

  Mayer bond orders larger than 0.1
B(  6-C ,  7-O ) :   1.0037 B(  6-C ,  9-H ) :   0.9665 B(  6-C , 10-H ) :   0.9729
B(  6-C , 11-H ) :   0.9779 B(  7-O ,  8-H ) :   0.9020

Dispersion correction           -0.000271072
FINAL SINGLE POINT ENERGY      -115.720814129881

DIPOLE MOMENT
-------------
                                X             Y             Z
Electronic contribution:      1.95792      -0.49917       0.35392
Nuclear contribution   :     -2.30857       1.05702      -0.69577
                        -----------------------------------------
Total Dipole Moment    :     -0.35065       0.55785      -0.34184
                        -----------------------------------------
Magnitude (a.u.)       :      0.74230
Magnitude (Debye)      :      1.88678

Rotational constants in cm-1:     4.672855     0.794938     0.755897
Rotational constants in MHz : 140088.671897 23831.653860 22661.211649

                             ****ORCA TERMINATED NORMALLY****
TOTAL RUN TIME: 0 days 0 hours 1 minutes 11 seconds 436 msec
