                         Program Version 4.1.2  - RELEASE  -
|  1> #Run DFT-D3 single point of the dimer
|  2> ! wB97X-D3 def2-TZVP TIGHTSCF CHELPG PMODEL PAL8
|  3>
|  4> %base "16-187_DFT_AB"
|  5>
|  6> %scf
|  7> MaxIter 1000
|  8> end
|  9>
| 10> * xyz 0 1
| 11>   C                      3.794266             -8.936856            6.741659
| 12>   O                      4.132634             -9.098652            8.080715
| 13>   H                      4.927049             -9.696112            8.053022
| 14>   H                      4.635598             -8.653033            6.097929
| 15>   H                      3.378870             -9.771579            6.225077
| 16>   H                      3.085883             -8.117320            6.674257
| 17>   C                      0.911363             -8.439596            9.086391
| 18>   O                      2.026675             -7.599376            9.425141
| 19>   H                      2.761438             -8.201270            9.323782
| 20>   H                      0.176568             -8.332073            9.896364
| 21>   H                      0.433024             -8.229368            8.098772
| 22>   H                      1.205850             -9.505201            9.067586
| 23> *
| 24>
| 25> #Run DFT-D3 single point of the molecule with dimer basis set
| 26> $new_job
| 27> %base "16-187_DFT_A"
| 28> ! wB97X-D3 def2-TZVP TIGHTSCF CHELPG PMODEL
| 29>
| 30> %scf
| 31> MaxIter 1000
| 32> end
| 33>
| 34> * xyz 0 1
| 35>   C                      3.794266             -8.936856            6.741659
| 36>   O                      4.132634             -9.098652            8.080715
| 37>   H                      4.927049             -9.696112            8.053022
| 38>   H                      4.635598             -8.653033            6.097929
| 39>   H                      3.378870             -9.771579            6.225077
| 40>   H                      3.085883             -8.117320            6.674257
| 41>   C                    : 0.911363             -8.439596            9.086391
| 42>   O                    : 2.026675             -7.599376            9.425141
| 43>   H                    : 2.761438             -8.201270            9.323782
| 44>   H                    : 0.176568             -8.332073            9.896364
| 45>   H                    : 0.433024             -8.229368            8.098772
| 46>   H                    : 1.205850             -9.505201            9.067586
| 47> *
| 48>
| 49> #Run DFT-D3 single point of the particle with dimer basis set
| 50> $new_job
| 51> %base "16-187_DFT_B"
| 52> ! wB97X-D3 def2-TZVP TIGHTSCF CHELPG PMODEL
| 53>
| 54> %scf
| 55> MaxIter 1000
| 56> end
| 57>
| 58> * xyz 0 1
| 59>   C                    : 3.794266             -8.936856            6.741659
| 60>   O                    : 4.132634             -9.098652            8.080715
| 61>   H                    : 4.927049             -9.696112            8.053022
| 62>   H                    : 4.635598             -8.653033            6.097929
| 63>   H                    : 3.378870             -9.771579            6.225077
| 64>   H                    : 3.085883             -8.117320            6.674257
| 65>   C                      0.911363             -8.439596            9.086391
| 66>   O                      2.026675             -7.599376            9.425141
| 67>   H                      2.761438             -8.201270            9.323782
| 68>   H                      0.176568             -8.332073            9.896364
| 69>   H                      0.433024             -8.229368            8.098772
| 70>   H                      1.205850             -9.505201            9.067586
| 71> *
| 72>
| 73>                          ****END OF INPUT****
 Total Charge           Charge          ....    0
 Multiplicity           Mult            ....    1
 Number of Electrons    NEL             ....   36
Dispersion correction           -0.002172412
FINAL SINGLE POINT ENERGY      -231.474702583156
Dispersion correction           -0.000232645
FINAL SINGLE POINT ENERGY      -115.733203092550

CARTESIAN COORDINATES (ANGSTROEM)
---------------------------------
  C      3.794266   -8.936856    6.741659
  O      4.132634   -9.098652    8.080715
  H      4.927049   -9.696112    8.053022
  H      4.635598   -8.653033    6.097929
  H      3.378870   -9.771579    6.225077
  H      3.085883   -8.117320    6.674257
  C      0.911363   -8.439596    9.086391
  O      2.026675   -7.599376    9.425141
  H      2.761438   -8.201270    9.323782
  H      0.176568   -8.332073    9.896364
  H      0.433024   -8.229368    8.098772
  H      1.205850   -9.505201    9.067586

 Multiplicity           Mult            ....    1
 Number of Electrons    NEL             ....   18
 Basis Dimension        Dim             ....  172

ORBITAL ENERGIES
----------------

  NO   OCC          E(Eh)            E(eV)
   0   2.0000     -19.233904      -523.3811
   1   2.0000     -10.320098      -280.8241
   2   2.0000      -1.136148       -30.9162
   3   2.0000      -0.791549       -21.5391
   4   2.0000      -0.609544       -16.5865
   5   2.0000      -0.538671       -14.6580
   6   2.0000      -0.521257       -14.1841
   7   2.0000      -0.441374       -12.0104
   8   2.0000      -0.377287       -10.2665
   9   0.0000       0.071678         1.9504
  10   0.0000       0.134147         3.6503
  11   0.0000       0.141684         3.8554
  12   0.0000       0.166752         4.5376
  13   0.0000       0.193641         5.2692

MULLIKEN ATOMIC CHARGES
-----------------------
   0 C :   -0.000524
   1 O :   -0.004927
   2 H :   -0.000311
   3 H :   -0.000068
   4 H :   -0.000357
   5 H :   -0.004017
   6 C :   -0.195170
   7 O :   -0.456424
   8 H :    0.314347
   9 H :    0.126046
  10 H :    0.110874
  11 H :    0.110531
Sum of atomic charges:   -0.0000000

LOEWDIN ATOMIC CHARGES
----------------------
   0 C :   -0.007294
   1 O :   -0.015552
   2 H :   -0.000570
   3 H :   -0.000080
   4 H :   -0.000143
   5 H :   -0.003378
   6 C :   -0.377060
   7 O :   -0.075764
   8 H :    0.172198
   9 H :    0.105020
  10 H :    0.102654
  11 H :    0.099969

  Mayer bond orders larger than 0.1
B(  6-C ,  7-O ) :   0.9919 B(  6-C ,  9-H ) :   0.9801 B(  6-C , 10-H ) :   0.9672
B(  6-C , 11-H ) :   0.9842 B(  7-O ,  8-H ) :   0.9079

Dispersion correction           -0.000252862
FINAL SINGLE POINT ENERGY      -115.733673214655

DIPOLE MOMENT
-------------
                                X             Y             Z
Electronic contribution:      1.33761       1.26306       0.42231
Nuclear contribution   :     -1.31814      -1.98580      -0.59868
                        -----------------------------------------
Total Dipole Moment    :      0.01947      -0.72274      -0.17636
                        -----------------------------------------
Magnitude (a.u.)       :      0.74420
Magnitude (Debye)      :      1.89161

Rotational constants in cm-1:     4.185104     0.811441     0.784444
Rotational constants in MHz : 125466.258432 24326.379727 23517.048381

                             ****ORCA TERMINATED NORMALLY****
TOTAL RUN TIME: 0 days 0 hours 1 minutes 6 seconds 588 msec
