                         Program Version 4.1.2  - RELEASE  -
|  1> #Run DFT-D3 single point of the dimer
|  2> ! wB97X-D3 def2-TZVP TIGHTSCF CHELPG PMODEL PAL8
|  3>
|  4> %base "7-29_DFT_AB"
|  5>
|  6> %scf
|  7> MaxIter 1000
|  8> end
|  9>
| 10> * xyz 0 1
| 11>   C                      0.666390             -0.715815            -0.420100
| 12>   O                      1.567490             0.321839             -0.143165
| 13>   H                      1.326093             1.086254             -0.696441
| 14>   H                      -0.316124            -0.427597            -0.014911
| 15>   H                      0.543968             -0.926248            -1.464179
| 16>   H                      1.024687             -1.624058            0.019191
| 17>   C                      1.775487             -5.850397            -1.722327
| 18>   O                      2.810676             -6.793449            -1.944086
| 19>   H                      2.419186             -7.565538            -2.296030
| 20>   H                      1.421974             -5.903203            -0.654926
| 21>   H                      2.131401             -4.852611            -1.820649
| 22>   H                      0.974114             -5.960712            -2.478591
| 23> *
| 24>
| 25> #Run DFT-D3 single point of the molecule with dimer basis set
| 26> $new_job
| 27> %base "7-29_DFT_A"
| 28> ! wB97X-D3 def2-TZVP TIGHTSCF CHELPG PMODEL
| 29>
| 30> %scf
| 31> MaxIter 1000
| 32> end
| 33>
| 34> * xyz 0 1
| 35>   C                      0.666390             -0.715815            -0.420100
| 36>   O                      1.567490             0.321839             -0.143165
| 37>   H                      1.326093             1.086254             -0.696441
| 38>   H                      -0.316124            -0.427597            -0.014911
| 39>   H                      0.543968             -0.926248            -1.464179
| 40>   H                      1.024687             -1.624058            0.019191
| 41>   C                    : 1.775487             -5.850397            -1.722327
| 42>   O                    : 2.810676             -6.793449            -1.944086
| 43>   H                    : 2.419186             -7.565538            -2.296030
| 44>   H                    : 1.421974             -5.903203            -0.654926
| 45>   H                    : 2.131401             -4.852611            -1.820649
| 46>   H                    : 0.974114             -5.960712            -2.478591
| 47> *
| 48>
| 49> #Run DFT-D3 single point of the particle with dimer basis set
| 50> $new_job
| 51> %base "7-29_DFT_B"
| 52> ! wB97X-D3 def2-TZVP TIGHTSCF CHELPG PMODEL
| 53>
| 54> %scf
| 55> MaxIter 1000
| 56> end
| 57>
| 58> * xyz 0 1
| 59>   C                    : 0.666390             -0.715815            -0.420100
| 60>   O                    : 1.567490             0.321839             -0.143165
| 61>   H                    : 1.326093             1.086254             -0.696441
| 62>   H                    : -0.316124            -0.427597            -0.014911
| 63>   H                    : 0.543968             -0.926248            -1.464179
| 64>   H                    : 1.024687             -1.624058            0.019191
| 65>   C                      1.775487             -5.850397            -1.722327
| 66>   O                      2.810676             -6.793449            -1.944086
| 67>   H                      2.419186             -7.565538            -2.296030
| 68>   H                      1.421974             -5.903203            -0.654926
| 69>   H                      2.131401             -4.852611            -1.820649
| 70>   H                      0.974114             -5.960712            -2.478591
| 71> *
| 72>
| 73>                          ****END OF INPUT****
 Total Charge           Charge          ....    0
 Multiplicity           Mult            ....    1
 Number of Electrons    NEL             ....   36
Dispersion correction           -0.000665369
FINAL SINGLE POINT ENERGY      -231.468927663962
Dispersion correction           -0.000225229
FINAL SINGLE POINT ENERGY      -115.735438276727

CARTESIAN COORDINATES (ANGSTROEM)
---------------------------------
  C      0.666390   -0.715815   -0.420100
  O      1.567490    0.321839   -0.143165
  H      1.326093    1.086254   -0.696441
  H     -0.316124   -0.427597   -0.014911
  H      0.543968   -0.926248   -1.464179
  H      1.024687   -1.624058    0.019191
  C      1.775487   -5.850397   -1.722327
  O      2.810676   -6.793449   -1.944086
  H      2.419186   -7.565538   -2.296030
  H      1.421974   -5.903203   -0.654926
  H      2.131401   -4.852611   -1.820649
  H      0.974114   -5.960712   -2.478591

 Multiplicity           Mult            ....    1
 Number of Electrons    NEL             ....   18
 Basis Dimension        Dim             ....  172

ORBITAL ENERGIES
----------------

  NO   OCC          E(Eh)            E(eV)
   0   2.0000     -19.227435      -523.2051
   1   2.0000     -10.315168      -280.6900
   2   2.0000      -1.140166       -31.0255
   3   2.0000      -0.797656       -21.7053
   4   2.0000      -0.610234       -16.6053
   5   2.0000      -0.540346       -14.7036
   6   2.0000      -0.532355       -14.4861
   7   2.0000      -0.433167       -11.7871
   8   2.0000      -0.373704       -10.1690
   9   0.0000       0.084031         2.2866
  10   0.0000       0.117090         3.1862
  11   0.0000       0.141130         3.8404
  12   0.0000       0.175468         4.7747
  13   0.0000       0.191695         5.2163

MULLIKEN ATOMIC CHARGES
-----------------------
   0 C :   -0.000022
   1 O :    0.000002
   2 H :    0.000000
   3 H :   -0.000002
   4 H :   -0.000021
   5 H :    0.000003
   6 C :   -0.166642
   7 O :   -0.469456
   8 H :    0.312445
   9 H :    0.100056
  10 H :    0.120036
  11 H :    0.103601
Sum of atomic charges:   -0.0000000

LOEWDIN ATOMIC CHARGES
----------------------
   0 C :   -0.000058
   1 O :   -0.000001
   2 H :   -0.000000
   3 H :   -0.000000
   4 H :   -0.000019
   5 H :   -0.000050
   6 C :   -0.382650
   7 O :   -0.069166
   8 H :    0.152128
   9 H :    0.102357
  10 H :    0.097936
  11 H :    0.099524

  Mayer bond orders larger than 0.1
B(  6-C ,  7-O ) :   1.0059 B(  6-C ,  9-H ) :   0.9752 B(  6-C , 10-H ) :   0.9749
B(  6-C , 11-H ) :   0.9820 B(  7-O ,  8-H ) :   0.9051

Dispersion correction           -0.000246357
FINAL SINGLE POINT ENERGY      -115.733444402013

DIPOLE MOMENT
-------------
                                X             Y             Z
Electronic contribution:      1.40780      -1.13866      -0.28321
Nuclear contribution   :     -2.05932       1.03840       0.11808
                        -----------------------------------------
Total Dipole Moment    :     -0.65152      -0.10026      -0.16513
                        -----------------------------------------
Magnitude (a.u.)       :      0.67956
Magnitude (Debye)      :      1.72730

Rotational constants in cm-1:     4.305668     0.826339     0.800509
Rotational constants in MHz : 129080.690900 24773.030683 23998.648252

                             ****ORCA TERMINATED NORMALLY****
TOTAL RUN TIME: 0 days 0 hours 0 minutes 58 seconds 170 msec
