                         Program Version 4.1.2  - RELEASE  -
|  1> #Run DFT-D3 single point of the dimer
|  2> ! wB97X-D3 def2-TZVP TIGHTSCF CHELPG PMODEL PAL8
|  3>
|  4> %base "6-190_DFT_AB"
|  5>
|  6> %scf
|  7> MaxIter 1000
|  8> end
|  9>
| 10> * xyz 0 1
| 11>   C                      7.449165             -7.833267            -3.684489
| 12>   O                      8.673282             -7.312019            -3.276682
| 13>   H                      8.453897             -6.609753            -2.633320
| 14>   H                      7.556963             -8.725010            -4.270334
| 15>   H                      6.723539             -8.104884            -2.806945
| 16>   H                      6.928298             -7.117201            -4.257824
| 17>   C                      11.076517            -8.554531            -1.744906
| 18>   O                      10.153964            -8.303741            -0.696655
| 19>   H                      9.337637             -8.741784            -1.011059
| 20>   H                      11.747606            -7.739471            -1.922216
| 21>   H                      11.732640            -9.399940            -1.543926
| 22>   H                      10.655528            -8.805024            -2.715409
| 23> *
| 24>
| 25> #Run DFT-D3 single point of the molecule with dimer basis set
| 26> $new_job
| 27> %base "6-190_DFT_A"
| 28> ! wB97X-D3 def2-TZVP TIGHTSCF CHELPG PMODEL
| 29>
| 30> %scf
| 31> MaxIter 1000
| 32> end
| 33>
| 34> * xyz 0 1
| 35>   C                      7.449165             -7.833267            -3.684489
| 36>   O                      8.673282             -7.312019            -3.276682
| 37>   H                      8.453897             -6.609753            -2.633320
| 38>   H                      7.556963             -8.725010            -4.270334
| 39>   H                      6.723539             -8.104884            -2.806945
| 40>   H                      6.928298             -7.117201            -4.257824
| 41>   C                    : 11.076517            -8.554531            -1.744906
| 42>   O                    : 10.153964            -8.303741            -0.696655
| 43>   H                    : 9.337637             -8.741784            -1.011059
| 44>   H                    : 11.747606            -7.739471            -1.922216
| 45>   H                    : 11.732640            -9.399940            -1.543926
| 46>   H                    : 10.655528            -8.805024            -2.715409
| 47> *
| 48>
| 49> #Run DFT-D3 single point of the particle with dimer basis set
| 50> $new_job
| 51> %base "6-190_DFT_B"
| 52> ! wB97X-D3 def2-TZVP TIGHTSCF CHELPG PMODEL
| 53>
| 54> %scf
| 55> MaxIter 1000
| 56> end
| 57>
| 58> * xyz 0 1
| 59>   C                    : 7.449165             -7.833267            -3.684489
| 60>   O                    : 8.673282             -7.312019            -3.276682
| 61>   H                    : 8.453897             -6.609753            -2.633320
| 62>   H                    : 7.556963             -8.725010            -4.270334
| 63>   H                    : 6.723539             -8.104884            -2.806945
| 64>   H                    : 6.928298             -7.117201            -4.257824
| 65>   C                      11.076517            -8.554531            -1.744906
| 66>   O                      10.153964            -8.303741            -0.696655
| 67>   H                      9.337637             -8.741784            -1.011059
| 68>   H                      11.747606            -7.739471            -1.922216
| 69>   H                      11.732640            -9.399940            -1.543926
| 70>   H                      10.655528            -8.805024            -2.715409
| 71> *
| 72>
| 73>                          ****END OF INPUT****
 Total Charge           Charge          ....    0
 Multiplicity           Mult            ....    1
 Number of Electrons    NEL             ....   36
Dispersion correction           -0.002098820
FINAL SINGLE POINT ENERGY      -231.467611558681
Dispersion correction           -0.000231438
FINAL SINGLE POINT ENERGY      -115.731806750912

CARTESIAN COORDINATES (ANGSTROEM)
---------------------------------
  C      7.449165   -7.833267   -3.684489
  O      8.673282   -7.312019   -3.276682
  H      8.453897   -6.609753   -2.633320
  H      7.556963   -8.725010   -4.270334
  H      6.723539   -8.104884   -2.806945
  H      6.928298   -7.117201   -4.257824
  C     11.076517   -8.554531   -1.744906
  O     10.153964   -8.303741   -0.696655
  H      9.337637   -8.741784   -1.011059
  H     11.747606   -7.739471   -1.922216
  H     11.732640   -9.399940   -1.543926
  H     10.655528   -8.805024   -2.715409

 Multiplicity           Mult            ....    1
 Number of Electrons    NEL             ....   18
 Basis Dimension        Dim             ....  172

ORBITAL ENERGIES
----------------

  NO   OCC          E(Eh)            E(eV)
   0   2.0000     -19.238105      -523.4954
   1   2.0000     -10.309287      -280.5299
   2   2.0000      -1.136483       -30.9253
   3   2.0000      -0.798570       -21.7302
   4   2.0000      -0.612627       -16.6704
   5   2.0000      -0.535620       -14.5750
   6   2.0000      -0.528794       -14.3892
   7   2.0000      -0.443308       -12.0630
   8   2.0000      -0.375080       -10.2065
   9   0.0000       0.071565         1.9474
  10   0.0000       0.132729         3.6117
  11   0.0000       0.146074         3.9749
  12   0.0000       0.165195         4.4952
  13   0.0000       0.187889         5.1127

MULLIKEN ATOMIC CHARGES
-----------------------
   0 C :    0.000123
   1 O :   -0.001756
   2 H :   -0.002837
   3 H :   -0.000065
   4 H :   -0.000154
   5 H :   -0.000062
   6 C :   -0.189322
   7 O :   -0.462232
   8 H :    0.319816
   9 H :    0.120323
  10 H :    0.107870
  11 H :    0.108296
Sum of atomic charges:   -0.0000000

LOEWDIN ATOMIC CHARGES
----------------------
   0 C :   -0.002073
   1 O :   -0.008031
   2 H :   -0.003371
   3 H :   -0.000142
   4 H :   -0.000218
   5 H :   -0.000032
   6 C :   -0.388449
   7 O :   -0.076519
   8 H :    0.184624
   9 H :    0.100814
  10 H :    0.096157
  11 H :    0.097240

  Mayer bond orders larger than 0.1
B(  6-C ,  7-O ) :   1.0010 B(  6-C ,  9-H ) :   0.9780 B(  6-C , 10-H ) :   0.9774
B(  6-C , 11-H ) :   0.9800 B(  7-O ,  8-H ) :   0.8995

Dispersion correction           -0.000252381
FINAL SINGLE POINT ENERGY      -115.732834588305

DIPOLE MOMENT
-------------
                                X             Y             Z
Electronic contribution:     -1.18561       0.48196       1.51702
Nuclear contribution   :      1.03933      -0.85174      -2.13100
                        -----------------------------------------
Total Dipole Moment    :     -0.14628      -0.36979      -0.61399
                        -----------------------------------------
Magnitude (a.u.)       :      0.73152
Magnitude (Debye)      :      1.85937

Rotational constants in cm-1:     4.458438     0.822324     0.788458
Rotational constants in MHz : 133660.613797 24652.653475 23637.372235

                             ****ORCA TERMINATED NORMALLY****
TOTAL RUN TIME: 0 days 0 hours 1 minutes 9 seconds 30 msec
