                         Program Version 4.1.2  - RELEASE  -
|  1> #Run DFT-D3 single point of the dimer
|  2> ! wB97X-D3 def2-TZVP TIGHTSCF CHELPG PMODEL PAL8
|  3>
|  4> %base "2-32_DFT_AB"
|  5>
|  6> %scf
|  7> MaxIter 1000
|  8> end
|  9>
| 10> * xyz 0 1
| 11>   C                      5.916145             7.599752             -3.115480
| 12>   O                      6.303187             6.405109             -3.797141
| 13>   H                      6.313995             5.742929             -3.113214
| 14>   H                      6.562852             7.866482             -2.246742
| 15>   H                      5.963492             8.428625             -3.817606
| 16>   H                      4.933177             7.588969             -2.693862
| 17>   C                      7.545939             11.477723            -5.060242
| 18>   O                      8.628813             10.954829            -4.312294
| 19>   H                      8.377161             10.922919            -3.407879
| 20>   H                      7.777598             11.448818            -6.128097
| 21>   H                      6.590545             10.941057            -4.773202
| 22>   H                      7.410125             12.507128            -4.888703
| 23> *
| 24>
| 25> #Run DFT-D3 single point of the molecule with dimer basis set
| 26> $new_job
| 27> %base "2-32_DFT_A"
| 28> ! wB97X-D3 def2-TZVP TIGHTSCF CHELPG PMODEL
| 29>
| 30> %scf
| 31> MaxIter 1000
| 32> end
| 33>
| 34> * xyz 0 1
| 35>   C                      5.916145             7.599752             -3.115480
| 36>   O                      6.303187             6.405109             -3.797141
| 37>   H                      6.313995             5.742929             -3.113214
| 38>   H                      6.562852             7.866482             -2.246742
| 39>   H                      5.963492             8.428625             -3.817606
| 40>   H                      4.933177             7.588969             -2.693862
| 41>   C                    : 7.545939             11.477723            -5.060242
| 42>   O                    : 8.628813             10.954829            -4.312294
| 43>   H                    : 8.377161             10.922919            -3.407879
| 44>   H                    : 7.777598             11.448818            -6.128097
| 45>   H                    : 6.590545             10.941057            -4.773202
| 46>   H                    : 7.410125             12.507128            -4.888703
| 47> *
| 48>
| 49> #Run DFT-D3 single point of the particle with dimer basis set
| 50> $new_job
| 51> %base "2-32_DFT_B"
| 52> ! wB97X-D3 def2-TZVP TIGHTSCF CHELPG PMODEL
| 53>
| 54> %scf
| 55> MaxIter 1000
| 56> end
| 57>
| 58> * xyz 0 1
| 59>   C                    : 5.916145             7.599752             -3.115480
| 60>   O                    : 6.303187             6.405109             -3.797141
| 61>   H                    : 6.313995             5.742929             -3.113214
| 62>   H                    : 6.562852             7.866482             -2.246742
| 63>   H                    : 5.963492             8.428625             -3.817606
| 64>   H                    : 4.933177             7.588969             -2.693862
| 65>   C                      7.545939             11.477723            -5.060242
| 66>   O                      8.628813             10.954829            -4.312294
| 67>   H                      8.377161             10.922919            -3.407879
| 68>   H                      7.777598             11.448818            -6.128097
| 69>   H                      6.590545             10.941057            -4.773202
| 70>   H                      7.410125             12.507128            -4.888703
| 71> *
| 72>
| 73>                          ****END OF INPUT****
 Total Charge           Charge          ....    0
 Multiplicity           Mult            ....    1
 Number of Electrons    NEL             ....   36
Dispersion correction           -0.001146434
FINAL SINGLE POINT ENERGY      -231.468186697679
Dispersion correction           -0.000247121
FINAL SINGLE POINT ENERGY      -115.735031124007

CARTESIAN COORDINATES (ANGSTROEM)
---------------------------------
  C      5.916145    7.599752   -3.115480
  O      6.303187    6.405109   -3.797141
  H      6.313995    5.742929   -3.113214
  H      6.562852    7.866482   -2.246742
  H      5.963492    8.428625   -3.817606
  H      4.933177    7.588969   -2.693862
  C      7.545939   11.477723   -5.060242
  O      8.628813   10.954829   -4.312294
  H      8.377161   10.922919   -3.407879
  H      7.777598   11.448818   -6.128097
  H      6.590545   10.941057   -4.773202
  H      7.410125   12.507128   -4.888703

 Multiplicity           Mult            ....    1
 Number of Electrons    NEL             ....   18
 Basis Dimension        Dim             ....  172

ORBITAL ENERGIES
----------------

  NO   OCC          E(Eh)            E(eV)
   0   2.0000     -19.227021      -523.1938
   1   2.0000     -10.313066      -280.6328
   2   2.0000      -1.138979       -30.9932
   3   2.0000      -0.798914       -21.7395
   4   2.0000      -0.612201       -16.6588
   5   2.0000      -0.545449       -14.8424
   6   2.0000      -0.526141       -14.3170
   7   2.0000      -0.434488       -11.8230
   8   2.0000      -0.372822       -10.1450
   9   0.0000       0.081041         2.2052
  10   0.0000       0.120979         3.2920
  11   0.0000       0.152952         4.1620
  12   0.0000       0.170897         4.6503
  13   0.0000       0.188819         5.1380

MULLIKEN ATOMIC CHARGES
-----------------------
   0 C :   -0.001919
   1 O :    0.000064
   2 H :    0.000003
   3 H :   -0.000067
   4 H :    0.002443
   5 H :    0.000078
   6 C :   -0.164046
   7 O :   -0.474820
   8 H :    0.311435
   9 H :    0.122444
  10 H :    0.094268
  11 H :    0.110118
Sum of atomic charges:   -0.0000000

LOEWDIN ATOMIC CHARGES
----------------------
   0 C :   -0.000830
   1 O :   -0.000009
   2 H :   -0.000001
   3 H :   -0.000119
   4 H :   -0.001186
   5 H :   -0.000020
   6 C :   -0.379781
   7 O :   -0.070046
   8 H :    0.154395
   9 H :    0.110290
  10 H :    0.102611
  11 H :    0.084696

  Mayer bond orders larger than 0.1
B(  6-C ,  7-O ) :   0.9968 B(  6-C ,  9-H ) :   0.9736 B(  6-C , 10-H ) :   0.9793
B(  6-C , 11-H ) :   0.9766 B(  7-O ,  8-H ) :   0.9037

Dispersion correction           -0.000233832
FINAL SINGLE POINT ENERGY      -115.733105157551

DIPOLE MOMENT
-------------
                                X             Y             Z
Electronic contribution:      1.46298      -0.67947       0.81619
Nuclear contribution   :     -2.04426       0.90135      -0.54098
                        -----------------------------------------
Total Dipole Moment    :     -0.58128       0.22188       0.27521
                        -----------------------------------------
Magnitude (a.u.)       :      0.68034
Magnitude (Debye)      :      1.72928

Rotational constants in cm-1:     4.326576     0.835412     0.797949
Rotational constants in MHz : 129707.496014 25045.014025 23921.918323

                             ****ORCA TERMINATED NORMALLY****
TOTAL RUN TIME: 0 days 0 hours 5 minutes 27 seconds 940 msec
