                         Program Version 4.1.2  - RELEASE  -
|  1> #Run DFT-D3 single point of the dimer
|  2> ! wB97X-D3 def2-TZVP TIGHTSCF CHELPG PMODEL PAL8
|  3>
|  4> %base "11-178_DFT_AB"
|  5>
|  6> %scf
|  7> MaxIter 1000
|  8> end
|  9>
| 10> * xyz 0 1
| 11>   C                      5.383772             1.473984             -0.370313
| 12>   O                      5.049317             2.549317             -1.247021
| 13>   H                      4.397362             2.140532             -1.766536
| 14>   H                      4.888294             1.611386             0.614607
| 15>   H                      5.168040             0.555937             -0.835142
| 16>   H                      6.514453             1.453211             -0.175672
| 17>   C                      6.148318             4.366646             1.432052
| 18>   O                      4.770829             4.087702             1.337902
| 19>   H                      4.430615             3.687898             0.504427
| 20>   H                      6.572475             4.720490             0.510176
| 21>   H                      6.351289             5.166952             2.177800
| 22>   H                      6.768153             3.547680             1.813746
| 23> *
| 24>
| 25> #Run DFT-D3 single point of the molecule with dimer basis set
| 26> $new_job
| 27> %base "11-178_DFT_A"
| 28> ! wB97X-D3 def2-TZVP TIGHTSCF CHELPG PMODEL
| 29>
| 30> %scf
| 31> MaxIter 1000
| 32> end
| 33>
| 34> * xyz 0 1
| 35>   C                      5.383772             1.473984             -0.370313
| 36>   O                      5.049317             2.549317             -1.247021
| 37>   H                      4.397362             2.140532             -1.766536
| 38>   H                      4.888294             1.611386             0.614607
| 39>   H                      5.168040             0.555937             -0.835142
| 40>   H                      6.514453             1.453211             -0.175672
| 41>   C                    : 6.148318             4.366646             1.432052
| 42>   O                    : 4.770829             4.087702             1.337902
| 43>   H                    : 4.430615             3.687898             0.504427
| 44>   H                    : 6.572475             4.720490             0.510176
| 45>   H                    : 6.351289             5.166952             2.177800
| 46>   H                    : 6.768153             3.547680             1.813746
| 47> *
| 48>
| 49> #Run DFT-D3 single point of the particle with dimer basis set
| 50> $new_job
| 51> %base "11-178_DFT_B"
| 52> ! wB97X-D3 def2-TZVP TIGHTSCF CHELPG PMODEL
| 53>
| 54> %scf
| 55> MaxIter 1000
| 56> end
| 57>
| 58> * xyz 0 1
| 59>   C                    : 5.383772             1.473984             -0.370313
| 60>   O                    : 5.049317             2.549317             -1.247021
| 61>   H                    : 4.397362             2.140532             -1.766536
| 62>   H                    : 4.888294             1.611386             0.614607
| 63>   H                    : 5.168040             0.555937             -0.835142
| 64>   H                    : 6.514453             1.453211             -0.175672
| 65>   C                      6.148318             4.366646             1.432052
| 66>   O                      4.770829             4.087702             1.337902
| 67>   H                      4.430615             3.687898             0.504427
| 68>   H                      6.572475             4.720490             0.510176
| 69>   H                      6.351289             5.166952             2.177800
| 70>   H                      6.768153             3.547680             1.813746
| 71> *
| 72>
| 73>                          ****END OF INPUT****
 Total Charge           Charge          ....    0
 Multiplicity           Mult            ....    1
 Number of Electrons    NEL             ....   36
Dispersion correction           -0.002368810
FINAL SINGLE POINT ENERGY      -231.468544910613
Dispersion correction           -0.000233139
FINAL SINGLE POINT ENERGY      -115.730034957487

CARTESIAN COORDINATES (ANGSTROEM)
---------------------------------
  C      5.383772    1.473984   -0.370313
  O      5.049317    2.549317   -1.247021
  H      4.397362    2.140532   -1.766536
  H      4.888294    1.611386    0.614607
  H      5.168040    0.555937   -0.835142
  H      6.514453    1.453211   -0.175672
  C      6.148318    4.366646    1.432052
  O      4.770829    4.087702    1.337902
  H      4.430615    3.687898    0.504427
  H      6.572475    4.720490    0.510176
  H      6.351289    5.166952    2.177800
  H      6.768153    3.547680    1.813746

 Multiplicity           Mult            ....    1
 Number of Electrons    NEL             ....   18
 Basis Dimension        Dim             ....  172

ORBITAL ENERGIES
----------------

  NO   OCC          E(Eh)            E(eV)
   0   2.0000     -19.232250      -523.3361
   1   2.0000     -10.314077      -280.6603
   2   2.0000      -1.128118       -30.6976
   3   2.0000      -0.799458       -21.7544
   4   2.0000      -0.614752       -16.7283
   5   2.0000      -0.541089       -14.7238
   6   2.0000      -0.525558       -14.3012
   7   2.0000      -0.420395       -11.4395
   8   2.0000      -0.373409       -10.1610
   9   0.0000       0.074126         2.0171
  10   0.0000       0.136265         3.7080
  11   0.0000       0.144697         3.9374
  12   0.0000       0.168666         4.5896
  13   0.0000       0.200325         5.4511

MULLIKEN ATOMIC CHARGES
-----------------------
   0 C :   -0.002731
   1 O :   -0.002545
   2 H :   -0.000323
   3 H :   -0.008700
   4 H :   -0.000664
   5 H :   -0.000399
   6 C :   -0.158718
   7 O :   -0.492930
   8 H :    0.329778
   9 H :    0.108272
  10 H :    0.122870
  11 H :    0.106090
Sum of atomic charges:    0.0000000

LOEWDIN ATOMIC CHARGES
----------------------
   0 C :   -0.015727
   1 O :   -0.010374
   2 H :   -0.000817
   3 H :   -0.010027
   4 H :   -0.000188
   5 H :   -0.001149
   6 C :   -0.388339
   7 O :   -0.066531
   8 H :    0.190739
   9 H :    0.092373
  10 H :    0.112997
  11 H :    0.097043

  Mayer bond orders larger than 0.1
B(  6-C ,  7-O ) :   0.9889 B(  6-C ,  9-H ) :   0.9822 B(  6-C , 10-H ) :   0.9733
B(  6-C , 11-H ) :   0.9751 B(  7-O ,  8-H ) :   0.8851

Dispersion correction           -0.000278598
FINAL SINGLE POINT ENERGY      -115.732256255254

DIPOLE MOMENT
-------------
                                X             Y             Z
Electronic contribution:     -1.83747      -0.35429      -0.08952
Nuclear contribution   :      2.18506       0.23901      -0.41612
                        -----------------------------------------
Total Dipole Moment    :      0.34759      -0.11528      -0.50564
                        -----------------------------------------
Magnitude (a.u.)       :      0.62432
Magnitude (Debye)      :      1.58691

Rotational constants in cm-1:     4.537746     0.810980     0.785816
Rotational constants in MHz : 136038.200452 24312.569709 23558.178583

                             ****ORCA TERMINATED NORMALLY****
TOTAL RUN TIME: 0 days 0 hours 1 minutes 15 seconds 942 msec
