                         Program Version 4.1.2  - RELEASE  -
|  1> #Run DFT-D3 single point of the dimer
|  2> ! wB97X-D3 def2-TZVP TIGHTSCF CHELPG PMODEL PAL8
|  3>
|  4> %base "17-214_DFT_AB"
|  5>
|  6> %scf
|  7> MaxIter 1000
|  8> end
|  9>
| 10> * xyz 0 1
| 11>   C                      -0.007571            2.884202             0.553842
| 12>   O                      -0.961278            2.596705             -0.447890
| 13>   H                      -1.309672            3.448110             -0.727636
| 14>   H                      -0.458122            3.474589             1.324680
| 15>   H                      0.421138             2.083740             1.150053
| 16>   H                      0.747337             3.588553             0.238310
| 17>   C                      -4.294630            2.636762             2.112842
| 18>   O                      -2.945016            2.913256             2.396499
| 19>   H                      -2.375241            2.588121             1.690587
| 20>   H                      -4.235161            1.715632             1.468674
| 21>   H                      -4.920146            2.517834             3.005229
| 22>   H                      -4.786454            3.438552             1.510866
| 23> *
| 24>
| 25> #Run DFT-D3 single point of the molecule with dimer basis set
| 26> $new_job
| 27> %base "17-214_DFT_A"
| 28> ! wB97X-D3 def2-TZVP TIGHTSCF CHELPG PMODEL
| 29>
| 30> %scf
| 31> MaxIter 1000
| 32> end
| 33>
| 34> * xyz 0 1
| 35>   C                      -0.007571            2.884202             0.553842
| 36>   O                      -0.961278            2.596705             -0.447890
| 37>   H                      -1.309672            3.448110             -0.727636
| 38>   H                      -0.458122            3.474589             1.324680
| 39>   H                      0.421138             2.083740             1.150053
| 40>   H                      0.747337             3.588553             0.238310
| 41>   C                    : -4.294630            2.636762             2.112842
| 42>   O                    : -2.945016            2.913256             2.396499
| 43>   H                    : -2.375241            2.588121             1.690587
| 44>   H                    : -4.235161            1.715632             1.468674
| 45>   H                    : -4.920146            2.517834             3.005229
| 46>   H                    : -4.786454            3.438552             1.510866
| 47> *
| 48>
| 49> #Run DFT-D3 single point of the particle with dimer basis set
| 50> $new_job
| 51> %base "17-214_DFT_B"
| 52> ! wB97X-D3 def2-TZVP TIGHTSCF CHELPG PMODEL
| 53>
| 54> %scf
| 55> MaxIter 1000
| 56> end
| 57>
| 58> * xyz 0 1
| 59>   C                    : -0.007571            2.884202             0.553842
| 60>   O                    : -0.961278            2.596705             -0.447890
| 61>   H                    : -1.309672            3.448110             -0.727636
| 62>   H                    : -0.458122            3.474589             1.324680
| 63>   H                    : 0.421138             2.083740             1.150053
| 64>   H                    : 0.747337             3.588553             0.238310
| 65>   C                      -4.294630            2.636762             2.112842
| 66>   O                      -2.945016            2.913256             2.396499
| 67>   H                      -2.375241            2.588121             1.690587
| 68>   H                      -4.235161            1.715632             1.468674
| 69>   H                      -4.920146            2.517834             3.005229
| 70>   H                      -4.786454            3.438552             1.510866
| 71> *
| 72>
| 73>                          ****END OF INPUT****
 Total Charge           Charge          ....    0
 Multiplicity           Mult            ....    1
 Number of Electrons    NEL             ....   36
Dispersion correction           -0.001749818
FINAL SINGLE POINT ENERGY      -231.463364327632
Dispersion correction           -0.000231028
FINAL SINGLE POINT ENERGY      -115.727381645222

CARTESIAN COORDINATES (ANGSTROEM)
---------------------------------
  C     -0.007571    2.884202    0.553842
  O     -0.961278    2.596705   -0.447890
  H     -1.309672    3.448110   -0.727636
  H     -0.458122    3.474589    1.324680
  H      0.421138    2.083740    1.150053
  H      0.747337    3.588553    0.238310
  C     -4.294630    2.636762    2.112842
  O     -2.945016    2.913256    2.396499
  H     -2.375241    2.588121    1.690587
  H     -4.235161    1.715632    1.468674
  H     -4.920146    2.517834    3.005229
  H     -4.786454    3.438552    1.510866

 Multiplicity           Mult            ....    1
 Number of Electrons    NEL             ....   18
 Basis Dimension        Dim             ....  172

ORBITAL ENERGIES
----------------

  NO   OCC          E(Eh)            E(eV)
   0   2.0000     -19.228701      -523.2396
   1   2.0000     -10.320017      -280.8219
   2   2.0000      -1.136913       -30.9370
   3   2.0000      -0.791259       -21.5312
   4   2.0000      -0.610023       -16.5996
   5   2.0000      -0.543262       -14.7829
   6   2.0000      -0.532299       -14.4846
   7   2.0000      -0.425538       -11.5795
   8   2.0000      -0.369638       -10.0583
   9   0.0000       0.072721         1.9788
  10   0.0000       0.128737         3.5031
  11   0.0000       0.155467         4.2305
  12   0.0000       0.164765         4.4835
  13   0.0000       0.188260         5.1228

MULLIKEN ATOMIC CHARGES
-----------------------
   0 C :    0.002627
   1 O :   -0.001012
   2 H :   -0.000805
   3 H :   -0.006002
   4 H :   -0.000248
   5 H :    0.000124
   6 C :   -0.163275
   7 O :   -0.466817
   8 H :    0.316713
   9 H :    0.097818
  10 H :    0.121588
  11 H :    0.099289
Sum of atomic charges:   -0.0000000

LOEWDIN ATOMIC CHARGES
----------------------
   0 C :   -0.008022
   1 O :   -0.002706
   2 H :   -0.000986
   3 H :   -0.005194
   4 H :   -0.000328
   5 H :   -0.000065
   6 C :   -0.392538
   7 O :   -0.071033
   8 H :    0.175925
   9 H :    0.103182
  10 H :    0.105574
  11 H :    0.096189

  Mayer bond orders larger than 0.1
B(  6-C ,  7-O ) :   1.0001 B(  6-C ,  9-H ) :   0.9960 B(  6-C , 10-H ) :   0.9703
B(  6-C , 11-H ) :   0.9670 B(  7-O ,  8-H ) :   0.8992

Dispersion correction           -0.000241892
FINAL SINGLE POINT ENERGY      -115.731440399613

DIPOLE MOMENT
-------------
                                X             Y             Z
Electronic contribution:      1.64094       0.42556       0.61592
Nuclear contribution   :     -1.81273      -0.75121      -1.16547
                        -----------------------------------------
Total Dipole Moment    :     -0.17180      -0.32565      -0.54955
                        -----------------------------------------
Magnitude (a.u.)       :      0.66149
Magnitude (Debye)      :      1.68137

Rotational constants in cm-1:     4.197086     0.838288     0.801856
Rotational constants in MHz : 125825.480443 25131.249410 24039.027160

                             ****ORCA TERMINATED NORMALLY****
TOTAL RUN TIME: 0 days 0 hours 1 minutes 5 seconds 891 msec
