                         Program Version 4.1.2  - RELEASE  -
|  1> #Run DFT-D3 single point of the dimer
|  2> ! wB97X-D3 def2-TZVP TIGHTSCF CHELPG PMODEL PAL8
|  3>
|  4> %base "11-177_DFT_AB"
|  5>
|  6> %scf
|  7> MaxIter 1000
|  8> end
|  9>
| 10> * xyz 0 1
| 11>   C                      -2.697451            1.555334             -5.655649
| 12>   O                      -1.695251            2.375888             -6.210828
| 13>   H                      -1.810377            2.163234             -7.153637
| 14>   H                      -2.575327            0.544410             -5.945289
| 15>   H                      -2.584690            1.726130             -4.569885
| 16>   H                      -3.748808            1.885637             -5.979245
| 17>   C                      -1.449569            3.574448             -9.995924
| 18>   O                      -1.190663            2.577832             -8.992000
| 19>   H                      -0.226915            2.508830             -8.717035
| 20>   H                      -2.515603            3.845396             -9.994576
| 21>   H                      -0.806280            4.457045             -9.912503
| 22>   H                      -1.294316            3.077921             -10.991959
| 23> *
| 24>
| 25> #Run DFT-D3 single point of the molecule with dimer basis set
| 26> $new_job
| 27> %base "11-177_DFT_A"
| 28> ! wB97X-D3 def2-TZVP TIGHTSCF CHELPG PMODEL
| 29>
| 30> %scf
| 31> MaxIter 1000
| 32> end
| 33>
| 34> * xyz 0 1
| 35>   C                      -2.697451            1.555334             -5.655649
| 36>   O                      -1.695251            2.375888             -6.210828
| 37>   H                      -1.810377            2.163234             -7.153637
| 38>   H                      -2.575327            0.544410             -5.945289
| 39>   H                      -2.584690            1.726130             -4.569885
| 40>   H                      -3.748808            1.885637             -5.979245
| 41>   C                    : -1.449569            3.574448             -9.995924
| 42>   O                    : -1.190663            2.577832             -8.992000
| 43>   H                    : -0.226915            2.508830             -8.717035
| 44>   H                    : -2.515603            3.845396             -9.994576
| 45>   H                    : -0.806280            4.457045             -9.912503
| 46>   H                    : -1.294316            3.077921             -10.991959
| 47> *
| 48>
| 49> #Run DFT-D3 single point of the particle with dimer basis set
| 50> $new_job
| 51> %base "11-177_DFT_B"
| 52> ! wB97X-D3 def2-TZVP TIGHTSCF CHELPG PMODEL
| 53>
| 54> %scf
| 55> MaxIter 1000
| 56> end
| 57>
| 58> * xyz 0 1
| 59>   C                    : -2.697451            1.555334             -5.655649
| 60>   O                    : -1.695251            2.375888             -6.210828
| 61>   H                    : -1.810377            2.163234             -7.153637
| 62>   H                    : -2.575327            0.544410             -5.945289
| 63>   H                    : -2.584690            1.726130             -4.569885
| 64>   H                    : -3.748808            1.885637             -5.979245
| 65>   C                      -1.449569            3.574448             -9.995924
| 66>   O                      -1.190663            2.577832             -8.992000
| 67>   H                      -0.226915            2.508830             -8.717035
| 68>   H                      -2.515603            3.845396             -9.994576
| 69>   H                      -0.806280            4.457045             -9.912503
| 70>   H                      -1.294316            3.077921             -10.991959
| 71> *
| 72>
| 73>                          ****END OF INPUT****
 Total Charge           Charge          ....    0
 Multiplicity           Mult            ....    1
 Number of Electrons    NEL             ....   36
Dispersion correction           -0.001456728
FINAL SINGLE POINT ENERGY      -231.470640312794
Dispersion correction           -0.000213569
FINAL SINGLE POINT ENERGY      -115.731644768908

CARTESIAN COORDINATES (ANGSTROEM)
---------------------------------
  C     -2.697451    1.555334   -5.655649
  O     -1.695251    2.375888   -6.210828
  H     -1.810377    2.163234   -7.153637
  H     -2.575327    0.544410   -5.945289
  H     -2.584690    1.726130   -4.569885
  H     -3.748808    1.885637   -5.979245
  C     -1.449569    3.574448   -9.995924
  O     -1.190663    2.577832   -8.992000
  H     -0.226915    2.508830   -8.717035
  H     -2.515603    3.845396   -9.994576
  H     -0.806280    4.457045   -9.912503
  H     -1.294316    3.077921  -10.991959

 Multiplicity           Mult            ....    1
 Number of Electrons    NEL             ....   18
 Basis Dimension        Dim             ....  172

ORBITAL ENERGIES
----------------

  NO   OCC          E(Eh)            E(eV)
   0   2.0000     -19.231097      -523.3047
   1   2.0000     -10.319586      -280.8102
   2   2.0000      -1.116778       -30.3891
   3   2.0000      -0.792156       -21.5557
   4   2.0000      -0.601599       -16.3703
   5   2.0000      -0.533019       -14.5042
   6   2.0000      -0.526583       -14.3291
   7   2.0000      -0.428528       -11.6608
   8   2.0000      -0.368474       -10.0267
   9   0.0000       0.096734         2.6323
  10   0.0000       0.118676         3.2293
  11   0.0000       0.148514         4.0413
  12   0.0000       0.191150         5.2014
  13   0.0000       0.199921         5.4401

MULLIKEN ATOMIC CHARGES
-----------------------
   0 C :    0.000151
   1 O :   -0.002149
   2 H :   -0.010106
   3 H :   -0.000344
   4 H :    0.000020
   5 H :   -0.000266
   6 C :   -0.157181
   7 O :   -0.487009
   8 H :    0.320835
   9 H :    0.125124
  10 H :    0.109036
  11 H :    0.101887
Sum of atomic charges:    0.0000000

LOEWDIN ATOMIC CHARGES
----------------------
   0 C :   -0.001453
   1 O :   -0.008865
   2 H :   -0.040093
   3 H :   -0.000087
   4 H :   -0.000027
   5 H :   -0.000071
   6 C :   -0.370998
   7 O :   -0.079192
   8 H :    0.192961
   9 H :    0.109567
  10 H :    0.095654
  11 H :    0.102603

  Mayer bond orders larger than 0.1
B(  6-C ,  7-O ) :   0.9894 B(  6-C ,  9-H ) :   0.9735 B(  6-C , 10-H ) :   0.9709
B(  6-C , 11-H ) :   0.9764 B(  7-O ,  8-H ) :   0.8853

Dispersion correction           -0.000273046
FINAL SINGLE POINT ENERGY      -115.731817348527

DIPOLE MOMENT
-------------
                                X             Y             Z
Electronic contribution:      0.20218      -1.13992       1.31984
Nuclear contribution   :      0.29969       1.52514      -1.57237
                        -----------------------------------------
Total Dipole Moment    :      0.50187       0.38523      -0.25254
                        -----------------------------------------
Magnitude (a.u.)       :      0.68121
Magnitude (Debye)      :      1.73150

Rotational constants in cm-1:     4.201555     0.799486     0.769697
Rotational constants in MHz : 125959.453457 23967.986089 23074.939029

                             ****ORCA TERMINATED NORMALLY****
TOTAL RUN TIME: 0 days 0 hours 1 minutes 14 seconds 647 msec
