                         Program Version 4.1.2  - RELEASE  -
|  1> #Run DFT-D3 single point of the dimer
|  2> ! wB97X-D3 def2-TZVP TIGHTSCF CHELPG PMODEL PAL8
|  3>
|  4> %base "8-125_DFT_AB"
|  5>
|  6> %scf
|  7> MaxIter 1000
|  8> end
|  9>
| 10> * xyz 0 1
| 11>   C                      6.823729             6.653392             4.663200
| 12>   O                      5.853408             7.293050             3.735871
| 13>   H                      5.958699             6.875321             2.844677
| 14>   H                      6.405214             6.361899             5.666741
| 15>   H                      7.327214             5.758224             4.307533
| 16>   H                      7.632612             7.335827             4.701187
| 17>   C                      3.181583             10.824812            2.357139
| 18>   O                      3.352786             9.447297             2.312862
| 19>   H                      3.442495             9.190709             3.246657
| 20>   H                      3.205216             11.214386            1.317607
| 21>   H                      2.145483             11.195536            2.772562
| 22>   H                      4.087869             11.332881            2.814354
| 23> *
| 24>
| 25> #Run DFT-D3 single point of the molecule with dimer basis set
| 26> $new_job
| 27> %base "8-125_DFT_A"
| 28> ! wB97X-D3 def2-TZVP TIGHTSCF CHELPG PMODEL
| 29>
| 30> %scf
| 31> MaxIter 1000
| 32> end
| 33>
| 34> * xyz 0 1
| 35>   C                      6.823729             6.653392             4.663200
| 36>   O                      5.853408             7.293050             3.735871
| 37>   H                      5.958699             6.875321             2.844677
| 38>   H                      6.405214             6.361899             5.666741
| 39>   H                      7.327214             5.758224             4.307533
| 40>   H                      7.632612             7.335827             4.701187
| 41>   C                    : 3.181583             10.824812            2.357139
| 42>   O                    : 3.352786             9.447297             2.312862
| 43>   H                    : 3.442495             9.190709             3.246657
| 44>   H                    : 3.205216             11.214386            1.317607
| 45>   H                    : 2.145483             11.195536            2.772562
| 46>   H                    : 4.087869             11.332881            2.814354
| 47> *
| 48>
| 49> #Run DFT-D3 single point of the particle with dimer basis set
| 50> $new_job
| 51> %base "8-125_DFT_B"
| 52> ! wB97X-D3 def2-TZVP TIGHTSCF CHELPG PMODEL
| 53>
| 54> %scf
| 55> MaxIter 1000
| 56> end
| 57>
| 58> * xyz 0 1
| 59>   C                    : 6.823729             6.653392             4.663200
| 60>   O                    : 5.853408             7.293050             3.735871
| 61>   H                    : 5.958699             6.875321             2.844677
| 62>   H                    : 6.405214             6.361899             5.666741
| 63>   H                    : 7.327214             5.758224             4.307533
| 64>   H                    : 7.632612             7.335827             4.701187
| 65>   C                      3.181583             10.824812            2.357139
| 66>   O                      3.352786             9.447297             2.312862
| 67>   H                      3.442495             9.190709             3.246657
| 68>   H                      3.205216             11.214386            1.317607
| 69>   H                      2.145483             11.195536            2.772562
| 70>   H                      4.087869             11.332881            2.814354
| 71> *
| 72>
| 73>                          ****END OF INPUT****
 Total Charge           Charge          ....    0
 Multiplicity           Mult            ....    1
 Number of Electrons    NEL             ....   36
Dispersion correction           -0.001058060
FINAL SINGLE POINT ENERGY      -231.457542681601
Dispersion correction           -0.000287315
FINAL SINGLE POINT ENERGY      -115.725116784393

CARTESIAN COORDINATES (ANGSTROEM)
---------------------------------
  C      6.823729    6.653392    4.663200
  O      5.853408    7.293050    3.735871
  H      5.958699    6.875321    2.844677
  H      6.405214    6.361899    5.666741
  H      7.327214    5.758224    4.307533
  H      7.632612    7.335827    4.701187
  C      3.181583   10.824812    2.357139
  O      3.352786    9.447297    2.312862
  H      3.442495    9.190709    3.246657
  H      3.205216   11.214386    1.317607
  H      2.145483   11.195536    2.772562
  H      4.087869   11.332881    2.814354

 Multiplicity           Mult            ....    1
 Number of Electrons    NEL             ....   18
 Basis Dimension        Dim             ....  172

ORBITAL ENERGIES
----------------

  NO   OCC          E(Eh)            E(eV)
   0   2.0000     -19.237779      -523.4866
   1   2.0000     -10.325267      -280.9648
   2   2.0000      -1.147921       -31.2365
   3   2.0000      -0.783683       -21.3251
   4   2.0000      -0.608221       -16.5505
   5   2.0000      -0.542779       -14.7698
   6   2.0000      -0.528571       -14.3832
   7   2.0000      -0.426410       -11.6032
   8   2.0000      -0.376329       -10.2404
   9   0.0000       0.082877         2.2552
  10   0.0000       0.115243         3.1359
  11   0.0000       0.145854         3.9689
  12   0.0000       0.177437         4.8283
  13   0.0000       0.193959         5.2779

MULLIKEN ATOMIC CHARGES
-----------------------
   0 C :   -0.000243
   1 O :   -0.000935
   2 H :   -0.000658
   3 H :    0.000007
   4 H :    0.000010
   5 H :    0.000011
   6 C :   -0.180931
   7 O :   -0.450284
   8 H :    0.319528
   9 H :    0.117282
  10 H :    0.095024
  11 H :    0.101190
Sum of atomic charges:    0.0000000

LOEWDIN ATOMIC CHARGES
----------------------
   0 C :   -0.000097
   1 O :   -0.001484
   2 H :   -0.000709
   3 H :   -0.000002
   4 H :   -0.000002
   5 H :   -0.000003
   6 C :   -0.434010
   7 O :   -0.059480
   8 H :    0.181325
   9 H :    0.109267
  10 H :    0.104568
  11 H :    0.100626

  Mayer bond orders larger than 0.1
B(  6-C ,  7-O ) :   1.0160 B(  6-C ,  9-H ) :   0.9735 B(  6-C , 10-H ) :   0.9645
B(  6-C , 11-H ) :   0.9743 B(  7-O ,  8-H ) :   0.8955

Dispersion correction           -0.000256820
FINAL SINGLE POINT ENERGY      -115.729836538666

DIPOLE MOMENT
-------------
                                X             Y             Z
Electronic contribution:      0.20884      -1.94173      -0.12665
Nuclear contribution   :     -0.19270       2.27118       0.67494
                        -----------------------------------------
Total Dipole Moment    :      0.01614       0.32945       0.54829
                        -----------------------------------------
Magnitude (a.u.)       :      0.63986
Magnitude (Debye)      :      1.62639

Rotational constants in cm-1:     4.013191     0.837256     0.821986
Rotational constants in MHz : 120312.438648 25100.294627 24642.507724

                             ****ORCA TERMINATED NORMALLY****
TOTAL RUN TIME: 0 days 0 hours 0 minutes 43 seconds 729 msec
