                         Program Version 4.1.2  - RELEASE  -
|  1> #Run DFT-D3 single point of the dimer
|  2> ! wB97X-D3 def2-TZVP TIGHTSCF CHELPG PMODEL PAL8
|  3>
|  4> %base "19-145_DFT_AB"
|  5>
|  6> %scf
|  7> MaxIter 1000
|  8> end
|  9>
| 10> * xyz 0 1
| 11>   C                      6.381632             -1.870875            3.659416
| 12>   O                      6.865294             -2.428046            2.462627
| 13>   H                      7.177478             -3.339419            2.607261
| 14>   H                      5.847585             -2.577557            4.305369
| 15>   H                      7.275320             -1.535234            4.225810
| 16>   H                      5.685898             -1.053315            3.452593
| 17>   C                      5.146326             -5.103840            1.842920
| 18>   O                      5.654684             -5.871163            0.799366
| 19>   H                      5.178208             -6.754287            0.859761
| 20>   H                      5.839088             -5.067599            2.729695
| 21>   H                      4.986382             -4.087363            1.493525
| 22>   H                      4.174827             -5.519229            2.109580
| 23> *
| 24>
| 25> #Run DFT-D3 single point of the molecule with dimer basis set
| 26> $new_job
| 27> %base "19-145_DFT_A"
| 28> ! wB97X-D3 def2-TZVP TIGHTSCF CHELPG PMODEL
| 29>
| 30> %scf
| 31> MaxIter 1000
| 32> end
| 33>
| 34> * xyz 0 1
| 35>   C                      6.381632             -1.870875            3.659416
| 36>   O                      6.865294             -2.428046            2.462627
| 37>   H                      7.177478             -3.339419            2.607261
| 38>   H                      5.847585             -2.577557            4.305369
| 39>   H                      7.275320             -1.535234            4.225810
| 40>   H                      5.685898             -1.053315            3.452593
| 41>   C                    : 5.146326             -5.103840            1.842920
| 42>   O                    : 5.654684             -5.871163            0.799366
| 43>   H                    : 5.178208             -6.754287            0.859761
| 44>   H                    : 5.839088             -5.067599            2.729695
| 45>   H                    : 4.986382             -4.087363            1.493525
| 46>   H                    : 4.174827             -5.519229            2.109580
| 47> *
| 48>
| 49> #Run DFT-D3 single point of the particle with dimer basis set
| 50> $new_job
| 51> %base "19-145_DFT_B"
| 52> ! wB97X-D3 def2-TZVP TIGHTSCF CHELPG PMODEL
| 53>
| 54> %scf
| 55> MaxIter 1000
| 56> end
| 57>
| 58> * xyz 0 1
| 59>   C                    : 6.381632             -1.870875            3.659416
| 60>   O                    : 6.865294             -2.428046            2.462627
| 61>   H                    : 7.177478             -3.339419            2.607261
| 62>   H                    : 5.847585             -2.577557            4.305369
| 63>   H                    : 7.275320             -1.535234            4.225810
| 64>   H                    : 5.685898             -1.053315            3.452593
| 65>   C                      5.146326             -5.103840            1.842920
| 66>   O                      5.654684             -5.871163            0.799366
| 67>   H                      5.178208             -6.754287            0.859761
| 68>   H                      5.839088             -5.067599            2.729695
| 69>   H                      4.986382             -4.087363            1.493525
| 70>   H                      4.174827             -5.519229            2.109580
| 71> *
| 72>
| 73>                          ****END OF INPUT****
 Total Charge           Charge          ....    0
 Multiplicity           Mult            ....    1
 Number of Electrons    NEL             ....   36
Dispersion correction           -0.001873749
FINAL SINGLE POINT ENERGY      -231.467469476801
Dispersion correction           -0.000241501
FINAL SINGLE POINT ENERGY      -115.735410375270

CARTESIAN COORDINATES (ANGSTROEM)
---------------------------------
  C      6.381632   -1.870875    3.659416
  O      6.865294   -2.428046    2.462627
  H      7.177478   -3.339419    2.607261
  H      5.847585   -2.577557    4.305369
  H      7.275320   -1.535234    4.225810
  H      5.685898   -1.053315    3.452593
  C      5.146326   -5.103840    1.842920
  O      5.654684   -5.871163    0.799366
  H      5.178208   -6.754287    0.859761
  H      5.839088   -5.067599    2.729695
  H      4.986382   -4.087363    1.493525
  H      4.174827   -5.519229    2.109580

 Multiplicity           Mult            ....    1
 Number of Electrons    NEL             ....   18
 Basis Dimension        Dim             ....  172

ORBITAL ENERGIES
----------------

  NO   OCC          E(Eh)            E(eV)
   0   2.0000     -19.232722      -523.3490
   1   2.0000     -10.312821      -280.6261
   2   2.0000      -1.137120       -30.9426
   3   2.0000      -0.786101       -21.3909
   4   2.0000      -0.610021       -16.5995
   5   2.0000      -0.541882       -14.7453
   6   2.0000      -0.531247       -14.4560
   7   2.0000      -0.429996       -11.7008
   8   2.0000      -0.370299       -10.0763
   9   0.0000       0.087475         2.3803
  10   0.0000       0.106434         2.8962
  11   0.0000       0.162548         4.4232
  12   0.0000       0.170852         4.6491
  13   0.0000       0.178869         4.8673

MULLIKEN ATOMIC CHARGES
-----------------------
   0 C :   -0.000629
   1 O :   -0.001721
   2 H :    0.002324
   3 H :   -0.000044
   4 H :    0.000070
   5 H :   -0.000007
   6 C :   -0.156838
   7 O :   -0.464150
   8 H :    0.319399
   9 H :    0.092511
  10 H :    0.110106
  11 H :    0.098978
Sum of atomic charges:   -0.0000000

LOEWDIN ATOMIC CHARGES
----------------------
   0 C :   -0.002942
   1 O :   -0.004208
   2 H :   -0.007668
   3 H :   -0.000811
   4 H :   -0.000020
   5 H :   -0.000067
   6 C :   -0.402627
   7 O :   -0.081390
   8 H :    0.198696
   9 H :    0.103617
  10 H :    0.103343
  11 H :    0.094077

  Mayer bond orders larger than 0.1
B(  6-C ,  7-O ) :   1.0174 B(  6-C ,  9-H ) :   0.9693 B(  6-C , 10-H ) :   0.9752
B(  6-C , 11-H ) :   0.9885 B(  7-O ,  8-H ) :   0.8940

Dispersion correction           -0.000232125
FINAL SINGLE POINT ENERGY      -115.731722516102

DIPOLE MOMENT
-------------
                                X             Y             Z
Electronic contribution:      0.76792      -0.86259      -1.39561
Nuclear contribution   :     -1.28222       0.60170       1.80084
                        -----------------------------------------
Total Dipole Moment    :     -0.51430      -0.26089       0.40523
                        -----------------------------------------
Magnitude (a.u.)       :      0.70483
Magnitude (Debye)      :      1.79153

Rotational constants in cm-1:     4.114830     0.857382     0.825094
Rotational constants in MHz : 123359.502428 25703.662915 24735.703555

                             ****ORCA TERMINATED NORMALLY****
TOTAL RUN TIME: 0 days 0 hours 1 minutes 37 seconds 607 msec
