                         Program Version 4.1.2  - RELEASE  -
|  1> #Run DFT-D3 single point of the dimer
|  2> ! wB97X-D3 def2-TZVP TIGHTSCF CHELPG PMODEL PAL8
|  3>
|  4> %base "8-84_DFT_AB"
|  5>
|  6> %scf
|  7> MaxIter 1000
|  8> end
|  9>
| 10> * xyz 0 1
| 11>   C                      6.555521             2.875121             5.302771
| 12>   O                      5.960526             2.912413             6.541502
| 13>   H                      5.034107             2.707951             6.433674
| 14>   H                      6.880396             3.815636             4.981021
| 15>   H                      7.546284             2.419773             5.320943
| 16>   H                      5.929050             2.395693             4.578541
| 17>   C                      9.860787             5.907711             6.897177
| 18>   O                      10.653293            5.265131             7.926446
| 19>   H                      10.742903            4.353411             7.693740
| 20>   H                      10.321976            5.580221             5.915725
| 21>   H                      8.846628             5.656148             6.871699
| 22>   H                      9.871683             6.996851             7.080874
| 23> *
| 24>
| 25> #Run DFT-D3 single point of the molecule with dimer basis set
| 26> $new_job
| 27> %base "8-84_DFT_A"
| 28> ! wB97X-D3 def2-TZVP TIGHTSCF CHELPG PMODEL
| 29>
| 30> %scf
| 31> MaxIter 1000
| 32> end
| 33>
| 34> * xyz 0 1
| 35>   C                      6.555521             2.875121             5.302771
| 36>   O                      5.960526             2.912413             6.541502
| 37>   H                      5.034107             2.707951             6.433674
| 38>   H                      6.880396             3.815636             4.981021
| 39>   H                      7.546284             2.419773             5.320943
| 40>   H                      5.929050             2.395693             4.578541
| 41>   C                    : 9.860787             5.907711             6.897177
| 42>   O                    : 10.653293            5.265131             7.926446
| 43>   H                    : 10.742903            4.353411             7.693740
| 44>   H                    : 10.321976            5.580221             5.915725
| 45>   H                    : 8.846628             5.656148             6.871699
| 46>   H                    : 9.871683             6.996851             7.080874
| 47> *
| 48>
| 49> #Run DFT-D3 single point of the particle with dimer basis set
| 50> $new_job
| 51> %base "8-84_DFT_B"
| 52> ! wB97X-D3 def2-TZVP TIGHTSCF CHELPG PMODEL
| 53>
| 54> %scf
| 55> MaxIter 1000
| 56> end
| 57>
| 58> * xyz 0 1
| 59>   C                    : 6.555521             2.875121             5.302771
| 60>   O                    : 5.960526             2.912413             6.541502
| 61>   H                    : 5.034107             2.707951             6.433674
| 62>   H                    : 6.880396             3.815636             4.981021
| 63>   H                    : 7.546284             2.419773             5.320943
| 64>   H                    : 5.929050             2.395693             4.578541
| 65>   C                      9.860787             5.907711             6.897177
| 66>   O                      10.653293            5.265131             7.926446
| 67>   H                      10.742903            4.353411             7.693740
| 68>   H                      10.321976            5.580221             5.915725
| 69>   H                      8.846628             5.656148             6.871699
| 70>   H                      9.871683             6.996851             7.080874
| 71> *
| 72>
| 73>                          ****END OF INPUT****
 Total Charge           Charge          ....    0
 Multiplicity           Mult            ....    1
 Number of Electrons    NEL             ....   36
Dispersion correction           -0.000960708
FINAL SINGLE POINT ENERGY      -231.459999829963
Dispersion correction           -0.000227656
FINAL SINGLE POINT ENERGY      -115.728597288351

CARTESIAN COORDINATES (ANGSTROEM)
---------------------------------
  C      6.555521    2.875121    5.302771
  O      5.960526    2.912413    6.541502
  H      5.034107    2.707951    6.433674
  H      6.880396    3.815636    4.981021
  H      7.546284    2.419773    5.320943
  H      5.929050    2.395693    4.578541
  C      9.860787    5.907711    6.897177
  O     10.653293    5.265131    7.926446
  H     10.742903    4.353411    7.693740
  H     10.321976    5.580221    5.915725
  H      8.846628    5.656148    6.871699
  H      9.871683    6.996851    7.080874

 Multiplicity           Mult            ....    1
 Number of Electrons    NEL             ....   18
 Basis Dimension        Dim             ....  172

ORBITAL ENERGIES
----------------

  NO   OCC          E(Eh)            E(eV)
   0   2.0000     -19.227038      -523.1943
   1   2.0000     -10.316900      -280.7371
   2   2.0000      -1.128176       -30.6992
   3   2.0000      -0.798508       -21.7285
   4   2.0000      -0.606690       -16.5089
   5   2.0000      -0.543082       -14.7780
   6   2.0000      -0.519192       -14.1279
   7   2.0000      -0.436923       -11.8893
   8   2.0000      -0.373511       -10.1637
   9   0.0000       0.079535         2.1643
  10   0.0000       0.116386         3.1670
  11   0.0000       0.148031         4.0281
  12   0.0000       0.164884         4.4867
  13   0.0000       0.183665         4.9978

MULLIKEN ATOMIC CHARGES
-----------------------
   0 C :    0.000779
   1 O :   -0.000075
   2 H :   -0.000006
   3 H :   -0.000800
   4 H :   -0.000071
   5 H :    0.000009
   6 C :   -0.171483
   7 O :   -0.477728
   8 H :    0.309517
   9 H :    0.099959
  10 H :    0.113693
  11 H :    0.126208
Sum of atomic charges:   -0.0000000

LOEWDIN ATOMIC CHARGES
----------------------
   0 C :   -0.000402
   1 O :   -0.000023
   2 H :   -0.000002
   3 H :   -0.000435
   4 H :   -0.000033
   5 H :   -0.000003
   6 C :   -0.356408
   7 O :   -0.097382
   8 H :    0.154452
   9 H :    0.105174
  10 H :    0.082115
  11 H :    0.112946

  Mayer bond orders larger than 0.1
B(  6-C ,  7-O ) :   0.9949 B(  6-C ,  9-H ) :   0.9885 B(  6-C , 10-H ) :   0.9637
B(  6-C , 11-H ) :   0.9735 B(  7-O ,  8-H ) :   0.9053

Dispersion correction           -0.000245214
FINAL SINGLE POINT ENERGY      -115.730835433741

DIPOLE MOMENT
-------------
                                X             Y             Z
Electronic contribution:      0.90270      -0.65597       1.38003
Nuclear contribution   :     -1.20039       0.34340      -1.94286
                        -----------------------------------------
Total Dipole Moment    :     -0.29769      -0.31258      -0.56283
                        -----------------------------------------
Magnitude (a.u.)       :      0.70930
Magnitude (Debye)      :      1.80289

Rotational constants in cm-1:     4.277193     0.807910     0.769914
Rotational constants in MHz : 128227.015902 24220.537515 23081.431423

                             ****ORCA TERMINATED NORMALLY****
TOTAL RUN TIME: 0 days 0 hours 0 minutes 42 seconds 827 msec
