                         Program Version 4.1.2  - RELEASE  -
|  1> #Run DFT-D3 single point of the dimer
|  2> ! wB97X-D3 def2-TZVP TIGHTSCF CHELPG PMODEL PAL8
|  3>
|  4> %base "5-124_DFT_AB"
|  5>
|  6> %scf
|  7> MaxIter 1000
|  8> end
|  9>
| 10> * xyz 0 1
| 11>   C                      8.993395             7.768408             -1.929499
| 12>   O                      8.277690             6.973573             -2.867001
| 13>   H                      8.425852             6.002038             -2.621908
| 14>   H                      8.719667             7.623738             -0.890754
| 15>   H                      10.017294            7.538047             -2.089698
| 16>   H                      8.693752             8.789069             -2.138796
| 17>   C                      8.147362             3.621650             -3.749684
| 18>   O                      8.053980             4.057583             -2.454928
| 19>   H                      7.472880             3.409524             -2.063040
| 20>   H                      7.820027             2.626620             -3.885421
| 21>   H                      7.487367             4.180078             -4.434288
| 22>   H                      9.216773             3.642630             -4.117676
| 23> *
| 24>
| 25> #Run DFT-D3 single point of the molecule with dimer basis set
| 26> $new_job
| 27> %base "5-124_DFT_A"
| 28> ! wB97X-D3 def2-TZVP TIGHTSCF CHELPG PMODEL
| 29>
| 30> %scf
| 31> MaxIter 1000
| 32> end
| 33>
| 34> * xyz 0 1
| 35>   C                      8.993395             7.768408             -1.929499
| 36>   O                      8.277690             6.973573             -2.867001
| 37>   H                      8.425852             6.002038             -2.621908
| 38>   H                      8.719667             7.623738             -0.890754
| 39>   H                      10.017294            7.538047             -2.089698
| 40>   H                      8.693752             8.789069             -2.138796
| 41>   C                    : 8.147362             3.621650             -3.749684
| 42>   O                    : 8.053980             4.057583             -2.454928
| 43>   H                    : 7.472880             3.409524             -2.063040
| 44>   H                    : 7.820027             2.626620             -3.885421
| 45>   H                    : 7.487367             4.180078             -4.434288
| 46>   H                    : 9.216773             3.642630             -4.117676
| 47> *
| 48>
| 49> #Run DFT-D3 single point of the particle with dimer basis set
| 50> $new_job
| 51> %base "5-124_DFT_B"
| 52> ! wB97X-D3 def2-TZVP TIGHTSCF CHELPG PMODEL
| 53>
| 54> %scf
| 55> MaxIter 1000
| 56> end
| 57>
| 58> * xyz 0 1
| 59>   C                    : 8.993395             7.768408             -1.929499
| 60>   O                    : 8.277690             6.973573             -2.867001
| 61>   H                    : 8.425852             6.002038             -2.621908
| 62>   H                    : 8.719667             7.623738             -0.890754
| 63>   H                    : 10.017294            7.538047             -2.089698
| 64>   H                    : 8.693752             8.789069             -2.138796
| 65>   C                      8.147362             3.621650             -3.749684
| 66>   O                      8.053980             4.057583             -2.454928
| 67>   H                      7.472880             3.409524             -2.063040
| 68>   H                      7.820027             2.626620             -3.885421
| 69>   H                      7.487367             4.180078             -4.434288
| 70>   H                      9.216773             3.642630             -4.117676
| 71> *
| 72>
| 73>                          ****END OF INPUT****
 Total Charge           Charge          ....    0
 Multiplicity           Mult            ....    1
 Number of Electrons    NEL             ....   36
Dispersion correction           -0.001583334
FINAL SINGLE POINT ENERGY      -231.468634268677
Dispersion correction           -0.000229114
FINAL SINGLE POINT ENERGY      -115.731316528609

CARTESIAN COORDINATES (ANGSTROEM)
---------------------------------
  C      8.993395    7.768408   -1.929499
  O      8.277690    6.973573   -2.867001
  H      8.425852    6.002038   -2.621908
  H      8.719667    7.623738   -0.890754
  H     10.017294    7.538047   -2.089698
  H      8.693752    8.789069   -2.138796
  C      8.147362    3.621650   -3.749684
  O      8.053980    4.057583   -2.454928
  H      7.472880    3.409524   -2.063040
  H      7.820027    2.626620   -3.885421
  H      7.487367    4.180078   -4.434288
  H      9.216773    3.642630   -4.117676

 Multiplicity           Mult            ....    1
 Number of Electrons    NEL             ....   18
 Basis Dimension        Dim             ....  172

ORBITAL ENERGIES
----------------

  NO   OCC          E(Eh)            E(eV)
   0   2.0000     -19.233634      -523.3738
   1   2.0000     -10.309880      -280.5461
   2   2.0000      -1.157921       -31.5086
   3   2.0000      -0.791737       -21.5443
   4   2.0000      -0.627910       -17.0863
   5   2.0000      -0.545412       -14.8414
   6   2.0000      -0.528869       -14.3913
   7   2.0000      -0.436625       -11.8812
   8   2.0000      -0.373045       -10.1511
   9   0.0000       0.099523         2.7082
  10   0.0000       0.119251         3.2450
  11   0.0000       0.153879         4.1873
  12   0.0000       0.188938         5.1413
  13   0.0000       0.197327         5.3695

MULLIKEN ATOMIC CHARGES
-----------------------
   0 C :   -0.000721
   1 O :   -0.001305
   2 H :   -0.000934
   3 H :   -0.000313
   4 H :   -0.000014
   5 H :   -0.000058
   6 C :   -0.167272
   7 O :   -0.449117
   8 H :    0.313218
   9 H :    0.105050
  10 H :    0.094966
  11 H :    0.106501
Sum of atomic charges:   -0.0000000

LOEWDIN ATOMIC CHARGES
----------------------
   0 C :   -0.001046
   1 O :   -0.003372
   2 H :   -0.032836
   3 H :   -0.000103
   4 H :   -0.000032
   5 H :   -0.000012
   6 C :   -0.423103
   7 O :   -0.009679
   8 H :    0.174667
   9 H :    0.088058
  10 H :    0.096662
  11 H :    0.110796

  Mayer bond orders larger than 0.1
B(  6-C ,  7-O ) :   1.0055 B(  6-C ,  9-H ) :   0.9816 B(  6-C , 10-H ) :   0.9750
B(  6-C , 11-H ) :   0.9769 B(  7-O ,  8-H ) :   0.9019

Dispersion correction           -0.000222055
FINAL SINGLE POINT ENERGY      -115.730401071948

DIPOLE MOMENT
-------------
                                X             Y             Z
Electronic contribution:     -0.04135       0.70702       1.80869
Nuclear contribution   :     -0.31128      -1.32815      -2.00805
                        -----------------------------------------
Total Dipole Moment    :     -0.35263      -0.62113      -0.19936
                        -----------------------------------------
Magnitude (a.u.)       :      0.74155
Magnitude (Debye)      :      1.88487

Rotational constants in cm-1:     4.309874     0.874608     0.844712
Rotational constants in MHz : 129206.778709 26220.086135 25323.813717

                             ****ORCA TERMINATED NORMALLY****
TOTAL RUN TIME: 0 days 0 hours 1 minutes 4 seconds 445 msec
