                         Program Version 4.1.2  - RELEASE  -
|  1> #Run DFT-D3 single point of the dimer
|  2> ! wB97X-D3 def2-TZVP TIGHTSCF CHELPG PMODEL PAL8
|  3>
|  4> %base "18-37_DFT_AB"
|  5>
|  6> %scf
|  7> MaxIter 1000
|  8> end
|  9>
| 10> * xyz 0 1
| 11>   C                      5.188788             2.614549             -0.430988
| 12>   O                      4.272714             3.629414             -0.212891
| 13>   H                      4.735754             4.461235             -0.188900
| 14>   H                      5.899015             2.492255             0.391204
| 15>   H                      4.718363             1.670627             -0.695147
| 16>   H                      5.822392             2.953750             -1.309417
| 17>   C                      7.316150             4.315736             2.639256
| 18>   O                      6.591456             5.243610             3.419545
| 19>   H                      6.164695             4.581253             3.946942
| 20>   H                      8.375635             4.458791             2.782526
| 21>   H                      7.085207             3.298872             2.953924
| 22>   H                      6.965721             4.240085             1.594744
| 23> *
| 24>
| 25> #Run DFT-D3 single point of the molecule with dimer basis set
| 26> $new_job
| 27> %base "18-37_DFT_A"
| 28> ! wB97X-D3 def2-TZVP TIGHTSCF CHELPG PMODEL
| 29>
| 30> %scf
| 31> MaxIter 1000
| 32> end
| 33>
| 34> * xyz 0 1
| 35>   C                      5.188788             2.614549             -0.430988
| 36>   O                      4.272714             3.629414             -0.212891
| 37>   H                      4.735754             4.461235             -0.188900
| 38>   H                      5.899015             2.492255             0.391204
| 39>   H                      4.718363             1.670627             -0.695147
| 40>   H                      5.822392             2.953750             -1.309417
| 41>   C                    : 7.316150             4.315736             2.639256
| 42>   O                    : 6.591456             5.243610             3.419545
| 43>   H                    : 6.164695             4.581253             3.946942
| 44>   H                    : 8.375635             4.458791             2.782526
| 45>   H                    : 7.085207             3.298872             2.953924
| 46>   H                    : 6.965721             4.240085             1.594744
| 47> *
| 48>
| 49> #Run DFT-D3 single point of the particle with dimer basis set
| 50> $new_job
| 51> %base "18-37_DFT_B"
| 52> ! wB97X-D3 def2-TZVP TIGHTSCF CHELPG PMODEL
| 53>
| 54> %scf
| 55> MaxIter 1000
| 56> end
| 57>
| 58> * xyz 0 1
| 59>   C                    : 5.188788             2.614549             -0.430988
| 60>   O                    : 4.272714             3.629414             -0.212891
| 61>   H                    : 4.735754             4.461235             -0.188900
| 62>   H                    : 5.899015             2.492255             0.391204
| 63>   H                    : 4.718363             1.670627             -0.695147
| 64>   H                    : 5.822392             2.953750             -1.309417
| 65>   C                      7.316150             4.315736             2.639256
| 66>   O                      6.591456             5.243610             3.419545
| 67>   H                      6.164695             4.581253             3.946942
| 68>   H                      8.375635             4.458791             2.782526
| 69>   H                      7.085207             3.298872             2.953924
| 70>   H                      6.965721             4.240085             1.594744
| 71> *
| 72>
| 73>                          ****END OF INPUT****
 Total Charge           Charge          ....    0
 Multiplicity           Mult            ....    1
 Number of Electrons    NEL             ....   36
Dispersion correction           -0.001500211
FINAL SINGLE POINT ENERGY      -231.459668778176
Dispersion correction           -0.000220553
FINAL SINGLE POINT ENERGY      -115.733428454564

CARTESIAN COORDINATES (ANGSTROEM)
---------------------------------
  C      5.188788    2.614549   -0.430988
  O      4.272714    3.629414   -0.212891
  H      4.735754    4.461235   -0.188900
  H      5.899015    2.492255    0.391204
  H      4.718363    1.670627   -0.695147
  H      5.822392    2.953750   -1.309417
  C      7.316150    4.315736    2.639256
  O      6.591456    5.243610    3.419545
  H      6.164695    4.581253    3.946942
  H      8.375635    4.458791    2.782526
  H      7.085207    3.298872    2.953924
  H      6.965721    4.240085    1.594744

 Multiplicity           Mult            ....    1
 Number of Electrons    NEL             ....   18
 Basis Dimension        Dim             ....  172

ORBITAL ENERGIES
----------------

  NO   OCC          E(Eh)            E(eV)
   0   2.0000     -19.232407      -523.3404
   1   2.0000     -10.313290      -280.6389
   2   2.0000      -1.149918       -31.2909
   3   2.0000      -0.792220       -21.5574
   4   2.0000      -0.616358       -16.7720
   5   2.0000      -0.553269       -15.0552
   6   2.0000      -0.520420       -14.1613
   7   2.0000      -0.438830       -11.9412
   8   2.0000      -0.378817       -10.3081
   9   0.0000       0.083306         2.2669
  10   0.0000       0.115050         3.1307
  11   0.0000       0.155165         4.2223
  12   0.0000       0.163821         4.4578
  13   0.0000       0.188141         5.1196

MULLIKEN ATOMIC CHARGES
-----------------------
   0 C :    0.004736
   1 O :    0.000074
   2 H :    0.000411
   3 H :   -0.006886
   4 H :   -0.000158
   5 H :   -0.000672
   6 C :   -0.184582
   7 O :   -0.446442
   8 H :    0.316010
   9 H :    0.116441
  10 H :    0.092791
  11 H :    0.108279
Sum of atomic charges:   -0.0000000

LOEWDIN ATOMIC CHARGES
----------------------
   0 C :   -0.003559
   1 O :   -0.000108
   2 H :   -0.000650
   3 H :   -0.004292
   4 H :   -0.000034
   5 H :   -0.000161
   6 C :   -0.393863
   7 O :   -0.067582
   8 H :    0.170620
   9 H :    0.098869
  10 H :    0.095580
  11 H :    0.105179

  Mayer bond orders larger than 0.1
B(  6-C ,  7-O ) :   1.0194 B(  6-C ,  9-H ) :   0.9725 B(  6-C , 10-H ) :   0.9978
B(  6-C , 11-H ) :   0.9654 B(  7-O ,  8-H ) :   0.9065

Dispersion correction           -0.000212232
FINAL SINGLE POINT ENERGY      -115.725176598139

DIPOLE MOMENT
-------------
                                X             Y             Z
Electronic contribution:     -0.80951       1.50768       0.92346
Nuclear contribution   :      0.80064      -2.29236      -0.86525
                        -----------------------------------------
Total Dipole Moment    :     -0.00887      -0.78467       0.05822
                        -----------------------------------------
Magnitude (a.u.)       :      0.78688
Magnitude (Debye)      :      2.00009

Rotational constants in cm-1:     4.261734     0.843193     0.820612
Rotational constants in MHz : 127763.566716 25278.302249 24601.339340

                             ****ORCA TERMINATED NORMALLY****
TOTAL RUN TIME: 0 days 0 hours 0 minutes 59 seconds 190 msec
