                         Program Version 4.1.2  - RELEASE  -
|  1> #Run DFT-D3 single point of the dimer
|  2> ! wB97X-D3 def2-TZVP TIGHTSCF CHELPG PMODEL PAL8
|  3>
|  4> %base "11-91_DFT_AB"
|  5>
|  6> %scf
|  7> MaxIter 1000
|  8> end
|  9>
| 10> * xyz 0 1
| 11>   C                      5.805939             10.294651            -6.906468
| 12>   O                      5.983511             11.721538            -7.025334
| 13>   H                      5.096172             12.079015            -7.135066
| 14>   H                      5.223192             9.968730             -7.767834
| 15>   H                      6.785383             9.801651             -6.954070
| 16>   H                      5.389869             9.935072             -5.948628
| 17>   C                      1.787189             8.141923             -6.209273
| 18>   O                      1.225959             9.057737             -7.130875
| 19>   H                      1.591158             9.924854             -6.877070
| 20>   H                      2.930828             8.116669             -6.320015
| 21>   H                      1.425929             8.176816             -5.223951
| 22>   H                      1.494492             7.116921             -6.583028
| 23> *
| 24>
| 25> #Run DFT-D3 single point of the molecule with dimer basis set
| 26> $new_job
| 27> %base "11-91_DFT_A"
| 28> ! wB97X-D3 def2-TZVP TIGHTSCF CHELPG PMODEL
| 29>
| 30> %scf
| 31> MaxIter 1000
| 32> end
| 33>
| 34> * xyz 0 1
| 35>   C                      5.805939             10.294651            -6.906468
| 36>   O                      5.983511             11.721538            -7.025334
| 37>   H                      5.096172             12.079015            -7.135066
| 38>   H                      5.223192             9.968730             -7.767834
| 39>   H                      6.785383             9.801651             -6.954070
| 40>   H                      5.389869             9.935072             -5.948628
| 41>   C                    : 1.787189             8.141923             -6.209273
| 42>   O                    : 1.225959             9.057737             -7.130875
| 43>   H                    : 1.591158             9.924854             -6.877070
| 44>   H                    : 2.930828             8.116669             -6.320015
| 45>   H                    : 1.425929             8.176816             -5.223951
| 46>   H                    : 1.494492             7.116921             -6.583028
| 47> *
| 48>
| 49> #Run DFT-D3 single point of the particle with dimer basis set
| 50> $new_job
| 51> %base "11-91_DFT_B"
| 52> ! wB97X-D3 def2-TZVP TIGHTSCF CHELPG PMODEL
| 53>
| 54> %scf
| 55> MaxIter 1000
| 56> end
| 57>
| 58> * xyz 0 1
| 59>   C                    : 5.805939             10.294651            -6.906468
| 60>   O                    : 5.983511             11.721538            -7.025334
| 61>   H                    : 5.096172             12.079015            -7.135066
| 62>   H                    : 5.223192             9.968730             -7.767834
| 63>   H                    : 6.785383             9.801651             -6.954070
| 64>   H                    : 5.389869             9.935072             -5.948628
| 65>   C                      1.787189             8.141923             -6.209273
| 66>   O                      1.225959             9.057737             -7.130875
| 67>   H                      1.591158             9.924854             -6.877070
| 68>   H                      2.930828             8.116669             -6.320015
| 69>   H                      1.425929             8.176816             -5.223951
| 70>   H                      1.494492             7.116921             -6.583028
| 71> *
| 72>
| 73>                          ****END OF INPUT****
 Total Charge           Charge          ....    0
 Multiplicity           Mult            ....    1
 Number of Electrons    NEL             ....   36
Dispersion correction           -0.001148952
FINAL SINGLE POINT ENERGY      -231.465446127811
Dispersion correction           -0.000251328
FINAL SINGLE POINT ENERGY      -115.734674915754

CARTESIAN COORDINATES (ANGSTROEM)
---------------------------------
  C      5.805939   10.294651   -6.906468
  O      5.983511   11.721538   -7.025334
  H      5.096172   12.079015   -7.135066
  H      5.223192    9.968730   -7.767834
  H      6.785383    9.801651   -6.954070
  H      5.389869    9.935072   -5.948628
  C      1.787189    8.141923   -6.209273
  O      1.225959    9.057737   -7.130875
  H      1.591158    9.924854   -6.877070
  H      2.930828    8.116669   -6.320015
  H      1.425929    8.176816   -5.223951
  H      1.494492    7.116921   -6.583028

 Multiplicity           Mult            ....    1
 Number of Electrons    NEL             ....   18
 Basis Dimension        Dim             ....  172

ORBITAL ENERGIES
----------------

  NO   OCC          E(Eh)            E(eV)
   0   2.0000     -19.234508      -523.3976
   1   2.0000     -10.317435      -280.7517
   2   2.0000      -1.136109       -30.9151
   3   2.0000      -0.791113       -21.5273
   4   2.0000      -0.606120       -16.4934
   5   2.0000      -0.550145       -14.9702
   6   2.0000      -0.518902       -14.1200
   7   2.0000      -0.427068       -11.6211
   8   2.0000      -0.378651       -10.3036
   9   0.0000       0.074175         2.0184
  10   0.0000       0.125355         3.4111
  11   0.0000       0.143437         3.9031
  12   0.0000       0.167687         4.5630
  13   0.0000       0.185559         5.0493

MULLIKEN ATOMIC CHARGES
-----------------------
   0 C :    0.000145
   1 O :    0.000004
   2 H :   -0.000013
   3 H :   -0.000054
   4 H :    0.000110
   5 H :   -0.000631
   6 C :   -0.175794
   7 O :   -0.466283
   8 H :    0.314936
   9 H :    0.102652
  10 H :    0.115005
  11 H :    0.109922
Sum of atomic charges:    0.0000000

LOEWDIN ATOMIC CHARGES
----------------------
   0 C :   -0.000963
   1 O :   -0.000011
   2 H :   -0.000020
   3 H :   -0.000258
   4 H :   -0.000006
   5 H :   -0.000779
   6 C :   -0.397738
   7 O :   -0.082683
   8 H :    0.177327
   9 H :    0.105710
  10 H :    0.084116
  11 H :    0.115305

  Mayer bond orders larger than 0.1
B(  6-C ,  7-O ) :   1.0065 B(  6-C ,  9-H ) :   0.9774 B(  6-C , 10-H ) :   0.9657
B(  6-C , 11-H ) :   0.9769 B(  7-O ,  8-H ) :   0.8993

Dispersion correction           -0.000249347
FINAL SINGLE POINT ENERGY      -115.730550605772

DIPOLE MOMENT
-------------
                                X             Y             Z
Electronic contribution:     -0.87064       1.25040      -1.07434
Nuclear contribution   :      1.28816      -1.08011       1.58319
                        -----------------------------------------
Total Dipole Moment    :      0.41752       0.17029       0.50885
                        -----------------------------------------
Magnitude (a.u.)       :      0.67989
Magnitude (Debye)      :      1.72814

Rotational constants in cm-1:     4.161492     0.824909     0.802389
Rotational constants in MHz : 124758.377187 24730.162301 24055.012683

                             ****ORCA TERMINATED NORMALLY****
TOTAL RUN TIME: 0 days 0 hours 1 minutes 12 seconds 282 msec
