                         Program Version 4.1.2  - RELEASE  -
|  1> #Run DFT-D3 single point of the dimer
|  2> ! wB97X-D3 def2-TZVP TIGHTSCF CHELPG PMODEL PAL8
|  3>
|  4> %base "12-131_DFT_AB"
|  5>
|  6> %scf
|  7> MaxIter 1000
|  8> end
|  9>
| 10> * xyz 0 1
| 11>   C                      -11.022894           6.448989             1.627032
| 12>   O                      -9.925908            5.585104             1.684676
| 13>   H                      -10.290465           4.941397             2.303877
| 14>   H                      -11.009041           7.205912             2.404261
| 15>   H                      -10.852252           7.117249             0.818682
| 16>   H                      -12.057190           5.986624             1.398803
| 17>   C                      -9.041128            7.108343             4.678222
| 18>   O                      -8.063156            7.959100             5.297418
| 19>   H                      -8.602774            8.629575             5.673982
| 20>   H                      -8.511217            6.497852             4.034014
| 21>   H                      -9.565376            6.519665             5.399782
| 22>   H                      -9.755183            7.740047             4.094476
| 23> *
| 24>
| 25> #Run DFT-D3 single point of the molecule with dimer basis set
| 26> $new_job
| 27> %base "12-131_DFT_A"
| 28> ! wB97X-D3 def2-TZVP TIGHTSCF CHELPG PMODEL
| 29>
| 30> %scf
| 31> MaxIter 1000
| 32> end
| 33>
| 34> * xyz 0 1
| 35>   C                      -11.022894           6.448989             1.627032
| 36>   O                      -9.925908            5.585104             1.684676
| 37>   H                      -10.290465           4.941397             2.303877
| 38>   H                      -11.009041           7.205912             2.404261
| 39>   H                      -10.852252           7.117249             0.818682
| 40>   H                      -12.057190           5.986624             1.398803
| 41>   C                    : -9.041128            7.108343             4.678222
| 42>   O                    : -8.063156            7.959100             5.297418
| 43>   H                    : -8.602774            8.629575             5.673982
| 44>   H                    : -8.511217            6.497852             4.034014
| 45>   H                    : -9.565376            6.519665             5.399782
| 46>   H                    : -9.755183            7.740047             4.094476
| 47> *
| 48>
| 49> #Run DFT-D3 single point of the particle with dimer basis set
| 50> $new_job
| 51> %base "12-131_DFT_B"
| 52> ! wB97X-D3 def2-TZVP TIGHTSCF CHELPG PMODEL
| 53>
| 54> %scf
| 55> MaxIter 1000
| 56> end
| 57>
| 58> * xyz 0 1
| 59>   C                    : -11.022894           6.448989             1.627032
| 60>   O                    : -9.925908            5.585104             1.684676
| 61>   H                    : -10.290465           4.941397             2.303877
| 62>   H                    : -11.009041           7.205912             2.404261
| 63>   H                    : -10.852252           7.117249             0.818682
| 64>   H                    : -12.057190           5.986624             1.398803
| 65>   C                      -9.041128            7.108343             4.678222
| 66>   O                      -8.063156            7.959100             5.297418
| 67>   H                      -8.602774            8.629575             5.673982
| 68>   H                      -8.511217            6.497852             4.034014
| 69>   H                      -9.565376            6.519665             5.399782
| 70>   H                      -9.755183            7.740047             4.094476
| 71> *
| 72>
| 73>                          ****END OF INPUT****
 Total Charge           Charge          ....    0
 Multiplicity           Mult            ....    1
 Number of Electrons    NEL             ....   36
Dispersion correction           -0.001854136
FINAL SINGLE POINT ENERGY      -231.458139559221
Dispersion correction           -0.000238417
FINAL SINGLE POINT ENERGY      -115.725122772586

CARTESIAN COORDINATES (ANGSTROEM)
---------------------------------
  C    -11.022894    6.448989    1.627032
  O     -9.925908    5.585104    1.684676
  H    -10.290465    4.941397    2.303877
  H    -11.009041    7.205912    2.404261
  H    -10.852252    7.117249    0.818682
  H    -12.057190    5.986624    1.398803
  C     -9.041128    7.108343    4.678222
  O     -8.063156    7.959100    5.297418
  H     -8.602774    8.629575    5.673982
  H     -8.511217    6.497852    4.034014
  H     -9.565376    6.519665    5.399782
  H     -9.755183    7.740047    4.094476

 Multiplicity           Mult            ....    1
 Number of Electrons    NEL             ....   18
 Basis Dimension        Dim             ....  172

ORBITAL ENERGIES
----------------

  NO   OCC          E(Eh)            E(eV)
   0   2.0000     -19.227158      -523.1976
   1   2.0000     -10.308408      -280.5060
   2   2.0000      -1.136816       -30.9343
   3   2.0000      -0.800093       -21.7716
   4   2.0000      -0.607632       -16.5345
   5   2.0000      -0.545689       -14.8490
   6   2.0000      -0.526012       -14.3135
   7   2.0000      -0.445146       -12.1130
   8   2.0000      -0.375440       -10.2162
   9   0.0000       0.084530         2.3002
  10   0.0000       0.117291         3.1917
  11   0.0000       0.153241         4.1699
  12   0.0000       0.171432         4.6649
  13   0.0000       0.188150         5.1198

MULLIKEN ATOMIC CHARGES
-----------------------
   0 C :    0.000705
   1 O :   -0.000371
   2 H :    0.000165
   3 H :   -0.004172
   4 H :   -0.000043
   5 H :   -0.000128
   6 C :   -0.154687
   7 O :   -0.468183
   8 H :    0.307060
   9 H :    0.120216
  10 H :    0.103294
  11 H :    0.096143
Sum of atomic charges:    0.0000000

LOEWDIN ATOMIC CHARGES
----------------------
   0 C :   -0.005548
   1 O :   -0.001553
   2 H :   -0.000736
   3 H :   -0.008401
   4 H :   -0.000078
   5 H :   -0.000032
   6 C :   -0.351419
   7 O :   -0.080954
   8 H :    0.154101
   9 H :    0.095362
  10 H :    0.091408
  11 H :    0.107850

  Mayer bond orders larger than 0.1
B(  6-C ,  7-O ) :   0.9972 B(  6-C ,  9-H ) :   0.9776 B(  6-C , 10-H ) :   0.9691
B(  6-C , 11-H ) :   0.9879 B(  7-O ,  8-H ) :   0.9115

Dispersion correction           -0.000213665
FINAL SINGLE POINT ENERGY      -115.732531170748

DIPOLE MOMENT
-------------
                                X             Y             Z
Electronic contribution:      1.33293       0.87274       0.73562
Nuclear contribution   :     -2.04660      -0.80607      -0.75454
                        -----------------------------------------
Total Dipole Moment    :     -0.71367       0.06667      -0.01892
                        -----------------------------------------
Magnitude (a.u.)       :      0.71702
Magnitude (Debye)      :      1.82253

Rotational constants in cm-1:     4.308918     0.828993     0.800769
Rotational constants in MHz : 129178.101323 24852.572048 24006.442596

                             ****ORCA TERMINATED NORMALLY****
TOTAL RUN TIME: 0 days 0 hours 1 minutes 7 seconds 867 msec
