                         Program Version 4.1.2  - RELEASE  -
|  1> #Run DFT-D3 single point of the dimer
|  2> ! wB97X-D3 def2-TZVP TIGHTSCF CHELPG PMODEL PAL8
|  3>
|  4> %base "12-75_DFT_AB"
|  5>
|  6> %scf
|  7> MaxIter 1000
|  8> end
|  9>
| 10> * xyz 0 1
| 11>   C                      7.095750             3.934989             5.712976
| 12>   O                      8.233398             3.019336             5.783510
| 13>   H                      8.730311             3.165655             4.956165
| 14>   H                      6.340234             3.723684             6.452433
| 15>   H                      7.425371             4.894638             6.015371
| 16>   H                      6.636750             3.988568             4.765022
| 17>   C                      8.756345             5.346527             9.124602
| 18>   O                      7.432067             5.202244             8.847964
| 19>   H                      7.096865             4.293952             8.916372
| 20>   H                      9.291302             4.993951             8.215409
| 21>   H                      9.107427             6.443233             9.263130
| 22>   H                      8.972218             4.789132             10.079502
| 23> *
| 24>
| 25> #Run DFT-D3 single point of the molecule with dimer basis set
| 26> $new_job
| 27> %base "12-75_DFT_A"
| 28> ! wB97X-D3 def2-TZVP TIGHTSCF CHELPG PMODEL
| 29>
| 30> %scf
| 31> MaxIter 1000
| 32> end
| 33>
| 34> * xyz 0 1
| 35>   C                      7.095750             3.934989             5.712976
| 36>   O                      8.233398             3.019336             5.783510
| 37>   H                      8.730311             3.165655             4.956165
| 38>   H                      6.340234             3.723684             6.452433
| 39>   H                      7.425371             4.894638             6.015371
| 40>   H                      6.636750             3.988568             4.765022
| 41>   C                    : 8.756345             5.346527             9.124602
| 42>   O                    : 7.432067             5.202244             8.847964
| 43>   H                    : 7.096865             4.293952             8.916372
| 44>   H                    : 9.291302             4.993951             8.215409
| 45>   H                    : 9.107427             6.443233             9.263130
| 46>   H                    : 8.972218             4.789132             10.079502
| 47> *
| 48>
| 49> #Run DFT-D3 single point of the particle with dimer basis set
| 50> $new_job
| 51> %base "12-75_DFT_B"
| 52> ! wB97X-D3 def2-TZVP TIGHTSCF CHELPG PMODEL
| 53>
| 54> %scf
| 55> MaxIter 1000
| 56> end
| 57>
| 58> * xyz 0 1
| 59>   C                    : 7.095750             3.934989             5.712976
| 60>   O                    : 8.233398             3.019336             5.783510
| 61>   H                    : 8.730311             3.165655             4.956165
| 62>   H                    : 6.340234             3.723684             6.452433
| 63>   H                    : 7.425371             4.894638             6.015371
| 64>   H                    : 6.636750             3.988568             4.765022
| 65>   C                      8.756345             5.346527             9.124602
| 66>   O                      7.432067             5.202244             8.847964
| 67>   H                      7.096865             4.293952             8.916372
| 68>   H                      9.291302             4.993951             8.215409
| 69>   H                      9.107427             6.443233             9.263130
| 70>   H                      8.972218             4.789132             10.079502
| 71> *
| 72>
| 73>                          ****END OF INPUT****
 Total Charge           Charge          ....    0
 Multiplicity           Mult            ....    1
 Number of Electrons    NEL             ....   36
Dispersion correction           -0.001982422
FINAL SINGLE POINT ENERGY      -231.460156089849
Dispersion correction           -0.000247378
FINAL SINGLE POINT ENERGY      -115.731108100571

CARTESIAN COORDINATES (ANGSTROEM)
---------------------------------
  C      7.095750    3.934989    5.712976
  O      8.233398    3.019336    5.783510
  H      8.730311    3.165655    4.956165
  H      6.340234    3.723684    6.452433
  H      7.425371    4.894638    6.015371
  H      6.636750    3.988568    4.765022
  C      8.756345    5.346527    9.124602
  O      7.432067    5.202244    8.847964
  H      7.096865    4.293952    8.916372
  H      9.291302    4.993951    8.215409
  H      9.107427    6.443233    9.263130
  H      8.972218    4.789132   10.079502

 Multiplicity           Mult            ....    1
 Number of Electrons    NEL             ....   18
 Basis Dimension        Dim             ....  172

ORBITAL ENERGIES
----------------

  NO   OCC          E(Eh)            E(eV)
   0   2.0000     -19.227245      -523.1999
   1   2.0000     -10.321493      -280.8621
   2   2.0000      -1.148466       -31.2513
   3   2.0000      -0.786833       -21.4108
   4   2.0000      -0.612784       -16.6747
   5   2.0000      -0.553669       -15.0661
   6   2.0000      -0.532542       -14.4912
   7   2.0000      -0.411537       -11.1985
   8   2.0000      -0.367172        -9.9913
   9   0.0000       0.084038         2.2868
  10   0.0000       0.126199         3.4341
  11   0.0000       0.144555         3.9335
  12   0.0000       0.175304         4.7703
  13   0.0000       0.192976         5.2511

MULLIKEN ATOMIC CHARGES
-----------------------
   0 C :   -0.005737
   1 O :    0.000533
   2 H :   -0.000020
   3 H :   -0.002947
   4 H :   -0.000619
   5 H :   -0.001147
   6 C :   -0.151317
   7 O :   -0.473435
   8 H :    0.327192
   9 H :    0.097749
  10 H :    0.111779
  11 H :    0.097971
Sum of atomic charges:    0.0000000

LOEWDIN ATOMIC CHARGES
----------------------
   0 C :   -0.009314
   1 O :   -0.000337
   2 H :   -0.000047
   3 H :   -0.002966
   4 H :   -0.004584
   5 H :   -0.000140
   6 C :   -0.436004
   7 O :   -0.039565
   8 H :    0.180203
   9 H :    0.095898
  10 H :    0.117498
  11 H :    0.099359

  Mayer bond orders larger than 0.1
B(  6-C ,  7-O ) :   1.0001 B(  6-C ,  9-H ) :   0.9804 B(  6-C , 10-H ) :   0.9637
B(  6-C , 11-H ) :   0.9850 B(  7-O ,  8-H ) :   0.8826

Dispersion correction           -0.000233139
FINAL SINGLE POINT ENERGY      -115.726384630220

DIPOLE MOMENT
-------------
                                X             Y             Z
Electronic contribution:     -1.75530      -0.08729      -0.33201
Nuclear contribution   :      2.01458      -0.44041       0.49664
                        -----------------------------------------
Total Dipole Moment    :      0.25928      -0.52770       0.16463
                        -----------------------------------------
Magnitude (a.u.)       :      0.61057
Magnitude (Debye)      :      1.55194

Rotational constants in cm-1:     4.109091     0.869155     0.843877
Rotational constants in MHz : 123187.458673 26056.623804 25298.795681

                             ****ORCA TERMINATED NORMALLY****
TOTAL RUN TIME: 0 days 0 hours 1 minutes 9 seconds 256 msec
