                         Program Version 4.1.2  - RELEASE  -
|  1> #Run DFT-D3 single point of the dimer
|  2> ! wB97X-D3 def2-TZVP TIGHTSCF CHELPG PMODEL PAL8
|  3>
|  4> %base "14-98_DFT_AB"
|  5>
|  6> %scf
|  7> MaxIter 1000
|  8> end
|  9>
| 10> * xyz 0 1
| 11>   C                      -8.023118            5.970073             -7.301579
| 12>   O                      -7.208899            5.748031             -6.199433
| 13>   H                      -7.582233            5.100643             -5.540227
| 14>   H                      -8.491772            6.984259             -7.204203
| 15>   H                      -7.494694            5.832346             -8.256467
| 16>   H                      -8.841849            5.215604             -7.301558
| 17>   C                      -7.738484            10.361660            -5.552580
| 18>   O                      -6.863904            9.779337             -4.522184
| 19>   H                      -7.368457            9.147472             -3.992070
| 20>   H                      -7.403363            11.428585            -5.831735
| 21>   H                      -7.648731            9.861242             -6.512678
| 22>   H                      -8.867734            10.356978            -5.293214
| 23> *
| 24>
| 25> #Run DFT-D3 single point of the molecule with dimer basis set
| 26> $new_job
| 27> %base "14-98_DFT_A"
| 28> ! wB97X-D3 def2-TZVP TIGHTSCF CHELPG PMODEL
| 29>
| 30> %scf
| 31> MaxIter 1000
| 32> end
| 33>
| 34> * xyz 0 1
| 35>   C                      -8.023118            5.970073             -7.301579
| 36>   O                      -7.208899            5.748031             -6.199433
| 37>   H                      -7.582233            5.100643             -5.540227
| 38>   H                      -8.491772            6.984259             -7.204203
| 39>   H                      -7.494694            5.832346             -8.256467
| 40>   H                      -8.841849            5.215604             -7.301558
| 41>   C                    : -7.738484            10.361660            -5.552580
| 42>   O                    : -6.863904            9.779337             -4.522184
| 43>   H                    : -7.368457            9.147472             -3.992070
| 44>   H                    : -7.403363            11.428585            -5.831735
| 45>   H                    : -7.648731            9.861242             -6.512678
| 46>   H                    : -8.867734            10.356978            -5.293214
| 47> *
| 48>
| 49> #Run DFT-D3 single point of the particle with dimer basis set
| 50> $new_job
| 51> %base "14-98_DFT_B"
| 52> ! wB97X-D3 def2-TZVP TIGHTSCF CHELPG PMODEL
| 53>
| 54> %scf
| 55> MaxIter 1000
| 56> end
| 57>
| 58> * xyz 0 1
| 59>   C                    : -8.023118            5.970073             -7.301579
| 60>   O                    : -7.208899            5.748031             -6.199433
| 61>   H                    : -7.582233            5.100643             -5.540227
| 62>   H                    : -8.491772            6.984259             -7.204203
| 63>   H                    : -7.494694            5.832346             -8.256467
| 64>   H                    : -8.841849            5.215604             -7.301558
| 65>   C                      -7.738484            10.361660            -5.552580
| 66>   O                      -6.863904            9.779337             -4.522184
| 67>   H                      -7.368457            9.147472             -3.992070
| 68>   H                      -7.403363            11.428585            -5.831735
| 69>   H                      -7.648731            9.861242             -6.512678
| 70>   H                      -8.867734            10.356978            -5.293214
| 71> *
| 72>
| 73>                          ****END OF INPUT****
 Total Charge           Charge          ....    0
 Multiplicity           Mult            ....    1
 Number of Electrons    NEL             ....   36
Dispersion correction           -0.001153167
FINAL SINGLE POINT ENERGY      -231.458718646484
Dispersion correction           -0.000249417
FINAL SINGLE POINT ENERGY      -115.731353224640

CARTESIAN COORDINATES (ANGSTROEM)
---------------------------------
  C     -8.023118    5.970073   -7.301579
  O     -7.208899    5.748031   -6.199433
  H     -7.582233    5.100643   -5.540227
  H     -8.491772    6.984259   -7.204203
  H     -7.494694    5.832346   -8.256467
  H     -8.841849    5.215604   -7.301558
  C     -7.738484   10.361660   -5.552580
  O     -6.863904    9.779337   -4.522184
  H     -7.368457    9.147472   -3.992070
  H     -7.403363   11.428585   -5.831735
  H     -7.648731    9.861242   -6.512678
  H     -8.867734   10.356978   -5.293214

 Multiplicity           Mult            ....    1
 Number of Electrons    NEL             ....   18
 Basis Dimension        Dim             ....  172

ORBITAL ENERGIES
----------------

  NO   OCC          E(Eh)            E(eV)
   0   2.0000     -19.234641      -523.4012
   1   2.0000     -10.331195      -281.1261
   2   2.0000      -1.119335       -30.4587
   3   2.0000      -0.791444       -21.5363
   4   2.0000      -0.600412       -16.3380
   5   2.0000      -0.527673       -14.3587
   6   2.0000      -0.515642       -14.0313
   7   2.0000      -0.436069       -11.8660
   8   2.0000      -0.374922       -10.2021
   9   0.0000       0.081437         2.2160
  10   0.0000       0.117151         3.1878
  11   0.0000       0.137579         3.7437
  12   0.0000       0.167842         4.5672
  13   0.0000       0.182098         4.9551

MULLIKEN ATOMIC CHARGES
-----------------------
   0 C :   -0.000022
   1 O :   -0.000054
   2 H :   -0.000007
   3 H :   -0.000001
   4 H :   -0.000041
   5 H :    0.000002
   6 C :   -0.193776
   7 O :   -0.477381
   8 H :    0.317473
   9 H :    0.121997
  10 H :    0.118886
  11 H :    0.112924
Sum of atomic charges:   -0.0000000

LOEWDIN ATOMIC CHARGES
----------------------
   0 C :   -0.000355
   1 O :   -0.000134
   2 H :   -0.000028
   3 H :   -0.000616
   4 H :   -0.000005
   5 H :   -0.000001
   6 C :   -0.366786
   7 O :   -0.118683
   8 H :    0.168652
   9 H :    0.116449
  10 H :    0.092997
  11 H :    0.108509

  Mayer bond orders larger than 0.1
B(  6-C ,  7-O ) :   1.0038 B(  6-C ,  9-H ) :   0.9735 B(  6-C , 10-H ) :   0.9686
B(  6-C , 11-H ) :   0.9717 B(  7-O ,  8-H ) :   0.8974

Dispersion correction           -0.000309599
FINAL SINGLE POINT ENERGY      -115.727314163811

DIPOLE MOMENT
-------------
                                X             Y             Z
Electronic contribution:      1.22471      -0.72186       1.33910
Nuclear contribution   :     -1.90634       0.55212      -1.44719
                        -----------------------------------------
Total Dipole Moment    :     -0.68163      -0.16974      -0.10809
                        -----------------------------------------
Magnitude (a.u.)       :      0.71072
Magnitude (Debye)      :      1.80650

Rotational constants in cm-1:     4.164977     0.765727     0.729146
Rotational constants in MHz : 124862.866007 22955.903968 21859.234306

                             ****ORCA TERMINATED NORMALLY****
TOTAL RUN TIME: 0 days 0 hours 1 minutes 10 seconds 217 msec
