                         Program Version 4.1.2  - RELEASE  -
|  1> #Run DFT-D3 single point of the dimer
|  2> ! wB97X-D3 def2-TZVP TIGHTSCF CHELPG PMODEL PAL8
|  3>
|  4> %base "13-217_DFT_AB"
|  5>
|  6> %scf
|  7> MaxIter 1000
|  8> end
|  9>
| 10> * xyz 0 1
| 11>   C                      0.922069             2.397543             -2.403654
| 12>   O                      1.090850             1.893788             -3.723139
| 13>   H                      2.030726             1.818473             -3.731177
| 14>   H                      -0.032940            3.018168             -2.168044
| 15>   H                      1.074150             1.541091             -1.683846
| 16>   H                      1.780223             3.123276             -2.281301
| 17>   C                      3.694090             0.378957             -6.877183
| 18>   O                      2.913124             -0.000757            -5.751815
| 19>   H                      1.927826             -0.047381            -5.934338
| 20>   H                      3.797572             -0.408838            -7.616210
| 21>   H                      3.427840             1.291935             -7.408147
| 22>   H                      4.631567             0.640459             -6.494055
| 23> *
| 24>
| 25> #Run DFT-D3 single point of the molecule with dimer basis set
| 26> $new_job
| 27> %base "13-217_DFT_A"
| 28> ! wB97X-D3 def2-TZVP TIGHTSCF CHELPG PMODEL
| 29>
| 30> %scf
| 31> MaxIter 1000
| 32> end
| 33>
| 34> * xyz 0 1
| 35>   C                      0.922069             2.397543             -2.403654
| 36>   O                      1.090850             1.893788             -3.723139
| 37>   H                      2.030726             1.818473             -3.731177
| 38>   H                      -0.032940            3.018168             -2.168044
| 39>   H                      1.074150             1.541091             -1.683846
| 40>   H                      1.780223             3.123276             -2.281301
| 41>   C                    : 3.694090             0.378957             -6.877183
| 42>   O                    : 2.913124             -0.000757            -5.751815
| 43>   H                    : 1.927826             -0.047381            -5.934338
| 44>   H                    : 3.797572             -0.408838            -7.616210
| 45>   H                    : 3.427840             1.291935             -7.408147
| 46>   H                    : 4.631567             0.640459             -6.494055
| 47> *
| 48>
| 49> #Run DFT-D3 single point of the particle with dimer basis set
| 50> $new_job
| 51> %base "13-217_DFT_B"
| 52> ! wB97X-D3 def2-TZVP TIGHTSCF CHELPG PMODEL
| 53>
| 54> %scf
| 55> MaxIter 1000
| 56> end
| 57>
| 58> * xyz 0 1
| 59>   C                    : 0.922069             2.397543             -2.403654
| 60>   O                    : 1.090850             1.893788             -3.723139
| 61>   H                    : 2.030726             1.818473             -3.731177
| 62>   H                    : -0.032940            3.018168             -2.168044
| 63>   H                    : 1.074150             1.541091             -1.683846
| 64>   H                    : 1.780223             3.123276             -2.281301
| 65>   C                      3.694090             0.378957             -6.877183
| 66>   O                      2.913124             -0.000757            -5.751815
| 67>   H                      1.927826             -0.047381            -5.934338
| 68>   H                      3.797572             -0.408838            -7.616210
| 69>   H                      3.427840             1.291935             -7.408147
| 70>   H                      4.631567             0.640459             -6.494055
| 71> *
| 72>
| 73>                          ****END OF INPUT****
 Total Charge           Charge          ....    0
 Multiplicity           Mult            ....    1
 Number of Electrons    NEL             ....   36
Dispersion correction           -0.001288381
FINAL SINGLE POINT ENERGY      -231.459357437451
Dispersion correction           -0.000228027
FINAL SINGLE POINT ENERGY      -115.723904632644

CARTESIAN COORDINATES (ANGSTROEM)
---------------------------------
  C      0.922069    2.397543   -2.403654
  O      1.090850    1.893788   -3.723139
  H      2.030726    1.818473   -3.731177
  H     -0.032940    3.018168   -2.168044
  H      1.074150    1.541091   -1.683846
  H      1.780223    3.123276   -2.281301
  C      3.694090    0.378957   -6.877183
  O      2.913124   -0.000757   -5.751815
  H      1.927826   -0.047381   -5.934338
  H      3.797572   -0.408838   -7.616210
  H      3.427840    1.291935   -7.408147
  H      4.631567    0.640459   -6.494055

 Multiplicity           Mult            ....    1
 Number of Electrons    NEL             ....   18
 Basis Dimension        Dim             ....  172

ORBITAL ENERGIES
----------------

  NO   OCC          E(Eh)            E(eV)
   0   2.0000     -19.234421      -523.3952
   1   2.0000     -10.306976      -280.4671
   2   2.0000      -1.123157       -30.5627
   3   2.0000      -0.802132       -21.8271
   4   2.0000      -0.608889       -16.5687
   5   2.0000      -0.544639       -14.8204
   6   2.0000      -0.520433       -14.1617
   7   2.0000      -0.428341       -11.6557
   8   2.0000      -0.375706       -10.2235
   9   0.0000       0.091058         2.4778
  10   0.0000       0.116540         3.1712
  11   0.0000       0.150326         4.0906
  12   0.0000       0.187884         5.1126
  13   0.0000       0.197179         5.3655

MULLIKEN ATOMIC CHARGES
-----------------------
   0 C :   -0.000085
   1 O :   -0.000965
   2 H :   -0.006684
   3 H :    0.000022
   4 H :   -0.000049
   5 H :    0.000062
   6 C :   -0.145561
   7 O :   -0.486862
   8 H :    0.319606
   9 H :    0.101803
  10 H :    0.098859
  11 H :    0.119854
Sum of atomic charges:    0.0000000

LOEWDIN ATOMIC CHARGES
----------------------
   0 C :   -0.000174
   1 O :   -0.002956
   2 H :   -0.007885
   3 H :   -0.000003
   4 H :   -0.000007
   5 H :   -0.000003
   6 C :   -0.377588
   7 O :   -0.090883
   8 H :    0.190224
   9 H :    0.093959
  10 H :    0.094794
  11 H :    0.100521

  Mayer bond orders larger than 0.1
B(  6-C ,  7-O ) :   1.0007 B(  6-C ,  9-H ) :   0.9738 B(  6-C , 10-H ) :   0.9711
B(  6-C , 11-H ) :   0.9783 B(  7-O ,  8-H ) :   0.8877

Dispersion correction           -0.000278146
FINAL SINGLE POINT ENERGY      -115.731191735748

DIPOLE MOMENT
-------------
                                X             Y             Z
Electronic contribution:     -0.92425      -0.53681       1.47524
Nuclear contribution   :      0.64484       0.67619      -2.05447
                        -----------------------------------------
Total Dipole Moment    :     -0.27941       0.13938      -0.57923
                        -----------------------------------------
Magnitude (a.u.)       :      0.65803
Magnitude (Debye)      :      1.67258

Rotational constants in cm-1:     4.534588     0.807961     0.786667
Rotational constants in MHz : 135943.514874 24222.068177 23583.672579

                             ****ORCA TERMINATED NORMALLY****
TOTAL RUN TIME: 0 days 0 hours 1 minutes 7 seconds 625 msec
