                         Program Version 4.1.2  - RELEASE  -
|  1> #Run DFT-D3 single point of the dimer
|  2> ! wB97X-D3 def2-TZVP TIGHTSCF CHELPG PMODEL PAL8
|  3>
|  4> %base "20-212_DFT_AB"
|  5>
|  6> %scf
|  7> MaxIter 1000
|  8> end
|  9>
| 10> * xyz 0 1
| 11>   C                      -8.111994            3.864327             -2.835475
| 12>   O                      -8.642965            2.687762             -3.546571
| 13>   H                      -7.884377            2.387574             -4.042041
| 14>   H                      -8.864080            4.273964             -2.218906
| 15>   H                      -7.179942            3.645142             -2.258175
| 16>   H                      -7.839754            4.679312             -3.527098
| 17>   C                      -7.808286            3.449472             -8.622125
| 18>   O                      -7.706338            3.599859             -7.196613
| 19>   H                      -8.188647            2.857284             -6.813448
| 20>   H                      -7.272703            4.306873             -9.125757
| 21>   H                      -7.322439            2.553376             -9.007611
| 22>   H                      -8.796503            3.293070             -9.010614
| 23> *
| 24>
| 25> #Run DFT-D3 single point of the molecule with dimer basis set
| 26> $new_job
| 27> %base "20-212_DFT_A"
| 28> ! wB97X-D3 def2-TZVP TIGHTSCF CHELPG PMODEL
| 29>
| 30> %scf
| 31> MaxIter 1000
| 32> end
| 33>
| 34> * xyz 0 1
| 35>   C                      -8.111994            3.864327             -2.835475
| 36>   O                      -8.642965            2.687762             -3.546571
| 37>   H                      -7.884377            2.387574             -4.042041
| 38>   H                      -8.864080            4.273964             -2.218906
| 39>   H                      -7.179942            3.645142             -2.258175
| 40>   H                      -7.839754            4.679312             -3.527098
| 41>   C                    : -7.808286            3.449472             -8.622125
| 42>   O                    : -7.706338            3.599859             -7.196613
| 43>   H                    : -8.188647            2.857284             -6.813448
| 44>   H                    : -7.272703            4.306873             -9.125757
| 45>   H                    : -7.322439            2.553376             -9.007611
| 46>   H                    : -8.796503            3.293070             -9.010614
| 47> *
| 48>
| 49> #Run DFT-D3 single point of the particle with dimer basis set
| 50> $new_job
| 51> %base "20-212_DFT_B"
| 52> ! wB97X-D3 def2-TZVP TIGHTSCF CHELPG PMODEL
| 53>
| 54> %scf
| 55> MaxIter 1000
| 56> end
| 57>
| 58> * xyz 0 1
| 59>   C                    : -8.111994            3.864327             -2.835475
| 60>   O                    : -8.642965            2.687762             -3.546571
| 61>   H                    : -7.884377            2.387574             -4.042041
| 62>   H                    : -8.864080            4.273964             -2.218906
| 63>   H                    : -7.179942            3.645142             -2.258175
| 64>   H                    : -7.839754            4.679312             -3.527098
| 65>   C                      -7.808286            3.449472             -8.622125
| 66>   O                      -7.706338            3.599859             -7.196613
| 67>   H                      -8.188647            2.857284             -6.813448
| 68>   H                      -7.272703            4.306873             -9.125757
| 69>   H                      -7.322439            2.553376             -9.007611
| 70>   H                      -8.796503            3.293070             -9.010614
| 71> *
| 72>
| 73>                          ****END OF INPUT****
 Total Charge           Charge          ....    0
 Multiplicity           Mult            ....    1
 Number of Electrons    NEL             ....   36
Dispersion correction           -0.001137759
FINAL SINGLE POINT ENERGY      -231.466874304513
Dispersion correction           -0.000258701
FINAL SINGLE POINT ENERGY      -115.732964550679

CARTESIAN COORDINATES (ANGSTROEM)
---------------------------------
  C     -8.111994    3.864327   -2.835475
  O     -8.642965    2.687762   -3.546571
  H     -7.884377    2.387574   -4.042041
  H     -8.864080    4.273964   -2.218906
  H     -7.179942    3.645142   -2.258175
  H     -7.839754    4.679312   -3.527098
  C     -7.808286    3.449472   -8.622125
  O     -7.706338    3.599859   -7.196613
  H     -8.188647    2.857284   -6.813448
  H     -7.272703    4.306873   -9.125757
  H     -7.322439    2.553376   -9.007611
  H     -8.796503    3.293070   -9.010614

 Multiplicity           Mult            ....    1
 Number of Electrons    NEL             ....   18
 Basis Dimension        Dim             ....  172

ORBITAL ENERGIES
----------------

  NO   OCC          E(Eh)            E(eV)
   0   2.0000     -19.234968      -523.4101
   1   2.0000     -10.316274      -280.7201
   2   2.0000      -1.131137       -30.7798
   3   2.0000      -0.796987       -21.6871
   4   2.0000      -0.614361       -16.7176
   5   2.0000      -0.530993       -14.4491
   6   2.0000      -0.518845       -14.1185
   7   2.0000      -0.444584       -12.0978
   8   2.0000      -0.373945       -10.1756
   9   0.0000       0.086437         2.3521
  10   0.0000       0.119609         3.2547
  11   0.0000       0.146396         3.9836
  12   0.0000       0.181306         4.9336
  13   0.0000       0.197089         5.3631

MULLIKEN ATOMIC CHARGES
-----------------------
   0 C :    0.000304
   1 O :    0.000005
   2 H :   -0.000747
   3 H :   -0.000004
   4 H :   -0.000004
   5 H :   -0.001047
   6 C :   -0.180419
   7 O :   -0.466829
   8 H :    0.314254
   9 H :    0.124511
  10 H :    0.102178
  11 H :    0.107797
Sum of atomic charges:    0.0000000

LOEWDIN ATOMIC CHARGES
----------------------
   0 C :   -0.000375
   1 O :   -0.000227
   2 H :   -0.001036
   3 H :   -0.000002
   4 H :   -0.000003
   5 H :   -0.000424
   6 C :   -0.378903
   7 O :   -0.090440
   8 H :    0.170993
   9 H :    0.118284
  10 H :    0.092372
  11 H :    0.089760

  Mayer bond orders larger than 0.1
B(  6-C ,  7-O ) :   1.0013 B(  6-C ,  9-H ) :   0.9746 B(  6-C , 10-H ) :   0.9735
B(  6-C , 11-H ) :   0.9716 B(  7-O ,  8-H ) :   0.8984

Dispersion correction           -0.000258181
FINAL SINGLE POINT ENERGY      -115.732308892418

DIPOLE MOMENT
-------------
                                X             Y             Z
Electronic contribution:      0.12916       0.37963       1.88396
Nuclear contribution   :     -0.47481      -0.92598      -2.22524
                        -----------------------------------------
Total Dipole Moment    :     -0.34566      -0.54635      -0.34128
                        -----------------------------------------
Magnitude (a.u.)       :      0.73106
Magnitude (Debye)      :      1.85820

Rotational constants in cm-1:     4.344662     0.809444     0.766916
Rotational constants in MHz : 130249.679674 24266.522587 22991.552299

                             ****ORCA TERMINATED NORMALLY****
TOTAL RUN TIME: 0 days 0 hours 0 minutes 53 seconds 938 msec
