                         Program Version 4.1.2  - RELEASE  -
|  1> #Run DFT-D3 single point of the dimer
|  2> ! wB97X-D3 def2-TZVP TIGHTSCF CHELPG PMODEL PAL8
|  3>
|  4> %base "11-212_DFT_AB"
|  5>
|  6> %scf
|  7> MaxIter 1000
|  8> end
|  9>
| 10> * xyz 0 1
| 11>   C                      -6.021615            2.934555             -8.492987
| 12>   O                      -5.141594            3.811978             -9.244973
| 13>   H                      -5.640391            4.497525             -9.594780
| 14>   H                      -5.572654            2.037681             -8.087284
| 15>   H                      -6.486371            3.436611             -7.618485
| 16>   H                      -6.830340            2.602840             -9.088502
| 17>   C                      -4.745214            7.664078             -8.687042
| 18>   O                      -4.332261            6.539408             -7.906045
| 19>   H                      -4.517169            5.671242             -8.362064
| 20>   H                      -4.368732            8.663309             -8.387422
| 21>   H                      -4.462829            7.513362             -9.758572
| 22>   H                      -5.833957            7.756142             -8.744650
| 23> *
| 24>
| 25> #Run DFT-D3 single point of the molecule with dimer basis set
| 26> $new_job
| 27> %base "11-212_DFT_A"
| 28> ! wB97X-D3 def2-TZVP TIGHTSCF CHELPG PMODEL
| 29>
| 30> %scf
| 31> MaxIter 1000
| 32> end
| 33>
| 34> * xyz 0 1
| 35>   C                      -6.021615            2.934555             -8.492987
| 36>   O                      -5.141594            3.811978             -9.244973
| 37>   H                      -5.640391            4.497525             -9.594780
| 38>   H                      -5.572654            2.037681             -8.087284
| 39>   H                      -6.486371            3.436611             -7.618485
| 40>   H                      -6.830340            2.602840             -9.088502
| 41>   C                    : -4.745214            7.664078             -8.687042
| 42>   O                    : -4.332261            6.539408             -7.906045
| 43>   H                    : -4.517169            5.671242             -8.362064
| 44>   H                    : -4.368732            8.663309             -8.387422
| 45>   H                    : -4.462829            7.513362             -9.758572
| 46>   H                    : -5.833957            7.756142             -8.744650
| 47> *
| 48>
| 49> #Run DFT-D3 single point of the particle with dimer basis set
| 50> $new_job
| 51> %base "11-212_DFT_B"
| 52> ! wB97X-D3 def2-TZVP TIGHTSCF CHELPG PMODEL
| 53>
| 54> %scf
| 55> MaxIter 1000
| 56> end
| 57>
| 58> * xyz 0 1
| 59>   C                    : -6.021615            2.934555             -8.492987
| 60>   O                    : -5.141594            3.811978             -9.244973
| 61>   H                    : -5.640391            4.497525             -9.594780
| 62>   H                    : -5.572654            2.037681             -8.087284
| 63>   H                    : -6.486371            3.436611             -7.618485
| 64>   H                    : -6.830340            2.602840             -9.088502
| 65>   C                      -4.745214            7.664078             -8.687042
| 66>   O                      -4.332261            6.539408             -7.906045
| 67>   H                      -4.517169            5.671242             -8.362064
| 68>   H                      -4.368732            8.663309             -8.387422
| 69>   H                      -4.462829            7.513362             -9.758572
| 70>   H                      -5.833957            7.756142             -8.744650
| 71> *
| 72>
| 73>                          ****END OF INPUT****
 Total Charge           Charge          ....    0
 Multiplicity           Mult            ....    1
 Number of Electrons    NEL             ....   36
Dispersion correction           -0.001665522
FINAL SINGLE POINT ENERGY      -231.465589415918
Dispersion correction           -0.000259534
FINAL SINGLE POINT ENERGY      -115.730866034388

CARTESIAN COORDINATES (ANGSTROEM)
---------------------------------
  C     -6.021615    2.934555   -8.492987
  O     -5.141594    3.811978   -9.244973
  H     -5.640391    4.497525   -9.594780
  H     -5.572654    2.037681   -8.087284
  H     -6.486371    3.436611   -7.618485
  H     -6.830340    2.602840   -9.088502
  C     -4.745214    7.664078   -8.687042
  O     -4.332261    6.539408   -7.906045
  H     -4.517169    5.671242   -8.362064
  H     -4.368732    8.663309   -8.387422
  H     -4.462829    7.513362   -9.758572
  H     -5.833957    7.756142   -8.744650

 Multiplicity           Mult            ....    1
 Number of Electrons    NEL             ....   18
 Basis Dimension        Dim             ....  172

ORBITAL ENERGIES
----------------

  NO   OCC          E(Eh)            E(eV)
   0   2.0000     -19.234410      -523.3949
   1   2.0000     -10.320261      -280.8286
   2   2.0000      -1.122772       -30.5522
   3   2.0000      -0.793530       -21.5930
   4   2.0000      -0.606659       -16.5080
   5   2.0000      -0.530953       -14.4480
   6   2.0000      -0.529440       -14.4068
   7   2.0000      -0.427763       -11.6400
   8   2.0000      -0.370917       -10.0932
   9   0.0000       0.069860         1.9010
  10   0.0000       0.124257         3.3812
  11   0.0000       0.144658         3.9363
  12   0.0000       0.180324         4.9069
  13   0.0000       0.188550         5.1307

MULLIKEN ATOMIC CHARGES
-----------------------
   0 C :    0.000203
   1 O :   -0.000611
   2 H :   -0.002744
   3 H :    0.000011
   4 H :   -0.001221
   5 H :   -0.000022
   6 C :   -0.166844
   7 O :   -0.484421
   8 H :    0.322127
   9 H :    0.125447
  10 H :    0.102456
  11 H :    0.105618
Sum of atomic charges:   -0.0000000

LOEWDIN ATOMIC CHARGES
----------------------
   0 C :   -0.002066
   1 O :   -0.010602
   2 H :   -0.005612
   3 H :   -0.000025
   4 H :   -0.000590
   5 H :   -0.000022
   6 C :   -0.382682
   7 O :   -0.100242
   8 H :    0.198093
   9 H :    0.111263
  10 H :    0.099255
  11 H :    0.093229

  Mayer bond orders larger than 0.1
B(  6-C ,  7-O ) :   0.9882 B(  6-C ,  9-H ) :   0.9694 B(  6-C , 10-H ) :   0.9836
B(  6-C , 11-H ) :   0.9723 B(  7-O ,  8-H ) :   0.8925

Dispersion correction           -0.000271445
FINAL SINGLE POINT ENERGY      -115.730177517505

DIPOLE MOMENT
-------------
                                X             Y             Z
Electronic contribution:      0.64903      -1.31631       1.25366
Nuclear contribution   :     -0.93616       1.23656      -1.87118
                        -----------------------------------------
Total Dipole Moment    :     -0.28712      -0.07975      -0.61752
                        -----------------------------------------
Magnitude (a.u.)       :      0.68566
Magnitude (Debye)      :      1.74280

Rotational constants in cm-1:     4.339200     0.798916     0.765865
Rotational constants in MHz : 130085.932981 23950.908396 22960.052830

                             ****ORCA TERMINATED NORMALLY****
TOTAL RUN TIME: 0 days 0 hours 1 minutes 6 seconds 275 msec
