                         Program Version 4.1.2  - RELEASE  -
|  1> #Run DFT-D3 single point of the dimer
|  2> ! wB97X-D3 def2-TZVP TIGHTSCF CHELPG PMODEL PAL8
|  3>
|  4> %base "13-7_DFT_AB"
|  5>
|  6> %scf
|  7> MaxIter 1000
|  8> end
|  9>
| 10> * xyz 0 1
| 11>   C                      -2.257604            -6.993449            -0.918277
| 12>   O                      -2.080523            -8.395982            -0.827367
| 13>   H                      -2.059170            -8.743386            0.111713
| 14>   H                      -1.423130            -6.407729            -0.539471
| 15>   H                      -2.370768            -6.724110            -2.003700
| 16>   H                      -3.147931            -6.621619            -0.383193
| 17>   C                      1.910665             -7.406347            -1.538785
| 18>   O                      2.346387             -8.085483            -0.372654
| 19>   H                      1.583944             -8.353732            0.133408
| 20>   H                      1.126425             -6.632266            -1.441613
| 21>   H                      2.766215             -6.993816            -2.162697
| 22>   H                      1.572978             -8.172519            -2.191011
| 23> *
| 24>
| 25> #Run DFT-D3 single point of the molecule with dimer basis set
| 26> $new_job
| 27> %base "13-7_DFT_A"
| 28> ! wB97X-D3 def2-TZVP TIGHTSCF CHELPG PMODEL
| 29>
| 30> %scf
| 31> MaxIter 1000
| 32> end
| 33>
| 34> * xyz 0 1
| 35>   C                      -2.257604            -6.993449            -0.918277
| 36>   O                      -2.080523            -8.395982            -0.827367
| 37>   H                      -2.059170            -8.743386            0.111713
| 38>   H                      -1.423130            -6.407729            -0.539471
| 39>   H                      -2.370768            -6.724110            -2.003700
| 40>   H                      -3.147931            -6.621619            -0.383193
| 41>   C                    : 1.910665             -7.406347            -1.538785
| 42>   O                    : 2.346387             -8.085483            -0.372654
| 43>   H                    : 1.583944             -8.353732            0.133408
| 44>   H                    : 1.126425             -6.632266            -1.441613
| 45>   H                    : 2.766215             -6.993816            -2.162697
| 46>   H                    : 1.572978             -8.172519            -2.191011
| 47> *
| 48>
| 49> #Run DFT-D3 single point of the particle with dimer basis set
| 50> $new_job
| 51> %base "13-7_DFT_B"
| 52> ! wB97X-D3 def2-TZVP TIGHTSCF CHELPG PMODEL
| 53>
| 54> %scf
| 55> MaxIter 1000
| 56> end
| 57>
| 58> * xyz 0 1
| 59>   C                    : -2.257604            -6.993449            -0.918277
| 60>   O                    : -2.080523            -8.395982            -0.827367
| 61>   H                    : -2.059170            -8.743386            0.111713
| 62>   H                    : -1.423130            -6.407729            -0.539471
| 63>   H                    : -2.370768            -6.724110            -2.003700
| 64>   H                    : -3.147931            -6.621619            -0.383193
| 65>   C                      1.910665             -7.406347            -1.538785
| 66>   O                      2.346387             -8.085483            -0.372654
| 67>   H                      1.583944             -8.353732            0.133408
| 68>   H                      1.126425             -6.632266            -1.441613
| 69>   H                      2.766215             -6.993816            -2.162697
| 70>   H                      1.572978             -8.172519            -2.191011
| 71> *
| 72>
| 73>                          ****END OF INPUT****
 Total Charge           Charge          ....    0
 Multiplicity           Mult            ....    1
 Number of Electrons    NEL             ....   36
Dispersion correction           -0.001501904
FINAL SINGLE POINT ENERGY      -231.464504706856
Dispersion correction           -0.000274567
FINAL SINGLE POINT ENERGY      -115.733972100276

CARTESIAN COORDINATES (ANGSTROEM)
---------------------------------
  C     -2.257604   -6.993449   -0.918277
  O     -2.080523   -8.395982   -0.827367
  H     -2.059170   -8.743386    0.111713
  H     -1.423130   -6.407729   -0.539471
  H     -2.370768   -6.724110   -2.003700
  H     -3.147931   -6.621619   -0.383193
  C      1.910665   -7.406347   -1.538785
  O      2.346387   -8.085483   -0.372654
  H      1.583944   -8.353732    0.133408
  H      1.126425   -6.632266   -1.441613
  H      2.766215   -6.993816   -2.162697
  H      1.572978   -8.172519   -2.191011

 Multiplicity           Mult            ....    1
 Number of Electrons    NEL             ....   18
 Basis Dimension        Dim             ....  172

ORBITAL ENERGIES
----------------

  NO   OCC          E(Eh)            E(eV)
   0   2.0000     -19.230248      -523.2817
   1   2.0000     -10.315203      -280.6909
   2   2.0000      -1.136256       -30.9191
   3   2.0000      -0.796458       -21.6727
   4   2.0000      -0.610994       -16.6260
   5   2.0000      -0.543159       -14.7801
   6   2.0000      -0.523918       -14.2565
   7   2.0000      -0.431234       -11.7345
   8   2.0000      -0.371894       -10.1198
   9   0.0000       0.072363         1.9691
  10   0.0000       0.123307         3.3554
  11   0.0000       0.143415         3.9025
  12   0.0000       0.165178         4.4947
  13   0.0000       0.189378         5.1532

MULLIKEN ATOMIC CHARGES
-----------------------
   0 C :   -0.000688
   1 O :    0.000092
   2 H :   -0.000089
   3 H :    0.000903
   4 H :   -0.000070
   5 H :    0.000021
   6 C :   -0.177414
   7 O :   -0.476139
   8 H :    0.315875
   9 H :    0.106099
  10 H :    0.118374
  11 H :    0.113036
Sum of atomic charges:    0.0000000

LOEWDIN ATOMIC CHARGES
----------------------
   0 C :   -0.001697
   1 O :   -0.000089
   2 H :   -0.000104
   3 H :   -0.001520
   4 H :   -0.000108
   5 H :   -0.000007
   6 C :   -0.390776
   7 O :   -0.077134
   8 H :    0.164864
   9 H :    0.097421
  10 H :    0.118164
  11 H :    0.090984

  Mayer bond orders larger than 0.1
B(  6-C ,  7-O ) :   0.9950 B(  6-C ,  9-H ) :   0.9654 B(  6-C , 10-H ) :   0.9704
B(  6-C , 11-H ) :   0.9872 B(  7-O ,  8-H ) :   0.8983

Dispersion correction           -0.000253578
FINAL SINGLE POINT ENERGY      -115.729368953969

DIPOLE MOMENT
-------------
                                X             Y             Z
Electronic contribution:      0.63386      -0.75960       1.60864
Nuclear contribution   :     -1.29936       0.83561      -1.77216
                        -----------------------------------------
Total Dipole Moment    :     -0.66550       0.07601      -0.16352
                        -----------------------------------------
Magnitude (a.u.)       :      0.68949
Magnitude (Debye)      :      1.75255

Rotational constants in cm-1:     4.389261     0.821017     0.786505
Rotational constants in MHz : 131586.720383 24613.476430 23578.815664

                             ****ORCA TERMINATED NORMALLY****
TOTAL RUN TIME: 0 days 0 hours 1 minutes 11 seconds 580 msec
