                         Program Version 4.1.2  - RELEASE  -
|  1> #Run DFT-D3 single point of the dimer
|  2> ! wB97X-D3 def2-TZVP TIGHTSCF CHELPG PMODEL PAL8
|  3>
|  4> %base "21-99_DFT_AB"
|  5>
|  6> %scf
|  7> MaxIter 1000
|  8> end
|  9>
| 10> * xyz 0 1
| 11>   C                      -9.935633            -1.088503            1.284899
| 12>   O                      -11.033869           -1.960237            1.345496
| 13>   H                      -11.887862           -1.623931            1.666152
| 14>   H                      -8.996411            -1.368978            1.817904
| 15>   H                      -9.676983            -0.896278            0.194077
| 16>   H                      -10.219109           -0.076535            1.690126
| 17>   C                      -5.652929            -1.250957            1.725191
| 18>   O                      -6.202180            -2.400594            2.281908
| 19>   H                      -5.745252            -2.499682            3.138613
| 20>   H                      -6.004820            -1.145557            0.712726
| 21>   H                      -5.831111            -0.320405            2.391999
| 22>   H                      -4.525826            -1.285167            1.674275
| 23> *
| 24>
| 25> #Run DFT-D3 single point of the molecule with dimer basis set
| 26> $new_job
| 27> %base "21-99_DFT_A"
| 28> ! wB97X-D3 def2-TZVP TIGHTSCF CHELPG PMODEL
| 29>
| 30> %scf
| 31> MaxIter 1000
| 32> end
| 33>
| 34> * xyz 0 1
| 35>   C                      -9.935633            -1.088503            1.284899
| 36>   O                      -11.033869           -1.960237            1.345496
| 37>   H                      -11.887862           -1.623931            1.666152
| 38>   H                      -8.996411            -1.368978            1.817904
| 39>   H                      -9.676983            -0.896278            0.194077
| 40>   H                      -10.219109           -0.076535            1.690126
| 41>   C                    : -5.652929            -1.250957            1.725191
| 42>   O                    : -6.202180            -2.400594            2.281908
| 43>   H                    : -5.745252            -2.499682            3.138613
| 44>   H                    : -6.004820            -1.145557            0.712726
| 45>   H                    : -5.831111            -0.320405            2.391999
| 46>   H                    : -4.525826            -1.285167            1.674275
| 47> *
| 48>
| 49> #Run DFT-D3 single point of the particle with dimer basis set
| 50> $new_job
| 51> %base "21-99_DFT_B"
| 52> ! wB97X-D3 def2-TZVP TIGHTSCF CHELPG PMODEL
| 53>
| 54> %scf
| 55> MaxIter 1000
| 56> end
| 57>
| 58> * xyz 0 1
| 59>   C                    : -9.935633            -1.088503            1.284899
| 60>   O                    : -11.033869           -1.960237            1.345496
| 61>   H                    : -11.887862           -1.623931            1.666152
| 62>   H                    : -8.996411            -1.368978            1.817904
| 63>   H                    : -9.676983            -0.896278            0.194077
| 64>   H                    : -10.219109           -0.076535            1.690126
| 65>   C                      -5.652929            -1.250957            1.725191
| 66>   O                      -6.202180            -2.400594            2.281908
| 67>   H                      -5.745252            -2.499682            3.138613
| 68>   H                      -6.004820            -1.145557            0.712726
| 69>   H                      -5.831111            -0.320405            2.391999
| 70>   H                      -4.525826            -1.285167            1.674275
| 71> *
| 72>
| 73>                          ****END OF INPUT****
 Total Charge           Charge          ....    0
 Multiplicity           Mult            ....    1
 Number of Electrons    NEL             ....   36
Dispersion correction           -0.001313031
FINAL SINGLE POINT ENERGY      -231.461285971234
Dispersion correction           -0.000280027
FINAL SINGLE POINT ENERGY      -115.728035384057

CARTESIAN COORDINATES (ANGSTROEM)
---------------------------------
  C     -9.935633   -1.088503    1.284899
  O    -11.033869   -1.960237    1.345496
  H    -11.887862   -1.623931    1.666152
  H     -8.996411   -1.368978    1.817904
  H     -9.676983   -0.896278    0.194077
  H    -10.219109   -0.076535    1.690126
  C     -5.652929   -1.250957    1.725191
  O     -6.202180   -2.400594    2.281908
  H     -5.745252   -2.499682    3.138613
  H     -6.004820   -1.145557    0.712726
  H     -5.831111   -0.320405    2.391999
  H     -4.525826   -1.285167    1.674275

 Multiplicity           Mult            ....    1
 Number of Electrons    NEL             ....   18
 Basis Dimension        Dim             ....  172

ORBITAL ENERGIES
----------------

  NO   OCC          E(Eh)            E(eV)
   0   2.0000     -19.236012      -523.4385
   1   2.0000     -10.320083      -280.8237
   2   2.0000      -1.145590       -31.1731
   3   2.0000      -0.786679       -21.4066
   4   2.0000      -0.615753       -16.7555
   5   2.0000      -0.538145       -14.6437
   6   2.0000      -0.526043       -14.3143
   7   2.0000      -0.441353       -12.0098
   8   2.0000      -0.368815       -10.0360
   9   0.0000       0.091667         2.4944
  10   0.0000       0.113201         3.0803
  11   0.0000       0.150444         4.0938
  12   0.0000       0.172160         4.6847
  13   0.0000       0.189757         5.1635

MULLIKEN ATOMIC CHARGES
-----------------------
   0 C :    0.000297
   1 O :    0.000044
   2 H :    0.000004
   3 H :   -0.002605
   4 H :   -0.000159
   5 H :   -0.000015
   6 C :   -0.178685
   7 O :   -0.458125
   8 H :    0.316682
   9 H :    0.125754
  10 H :    0.095607
  11 H :    0.101202
Sum of atomic charges:    0.0000000

LOEWDIN ATOMIC CHARGES
----------------------
   0 C :   -0.000908
   1 O :   -0.000013
   2 H :   -0.000001
   3 H :   -0.003573
   4 H :   -0.000067
   5 H :   -0.000013
   6 C :   -0.419659
   7 O :   -0.061857
   8 H :    0.183203
   9 H :    0.104446
  10 H :    0.101628
  11 H :    0.096813

  Mayer bond orders larger than 0.1
B(  6-C ,  7-O ) :   0.9939 B(  6-C ,  9-H ) :   0.9741 B(  6-C , 10-H ) :   0.9731
B(  6-C , 11-H ) :   0.9696 B(  7-O ,  8-H ) :   0.8963

Dispersion correction           -0.000233511
FINAL SINGLE POINT ENERGY      -115.732295676056

DIPOLE MOMENT
-------------
                                X             Y             Z
Electronic contribution:     -0.94163      -1.61158       0.51402
Nuclear contribution   :      1.43879       1.94321      -0.20557
                        -----------------------------------------
Total Dipole Moment    :      0.49716       0.33163       0.30844
                        -----------------------------------------
Magnitude (a.u.)       :      0.67252
Magnitude (Debye)      :      1.70942

Rotational constants in cm-1:     4.075946     0.854679     0.815329
Rotational constants in MHz : 122193.779931 25622.646363 24442.953756

                             ****ORCA TERMINATED NORMALLY****
TOTAL RUN TIME: 0 days 0 hours 0 minutes 45 seconds 227 msec
