                         Program Version 4.1.2  - RELEASE  -
|  1> #Run DFT-D3 single point of the dimer
|  2> ! wB97X-D3 def2-TZVP TIGHTSCF CHELPG PMODEL PAL8
|  3>
|  4> %base "1-135_DFT_AB"
|  5>
|  6> %scf
|  7> MaxIter 1000
|  8> end
|  9>
| 10> * xyz 0 1
| 11>   C                      -5.907909            -7.270383            -9.411896
| 12>   O                      -6.939199            -7.776413            -10.164808
| 13>   H                      -6.849810            -8.745502            -10.180810
| 14>   H                      -5.949273            -7.445977            -8.375448
| 15>   H                      -4.982129            -7.743169            -9.713157
| 16>   H                      -5.813734            -6.172566            -9.550983
| 17>   C                      -8.955742            -3.391190            -9.964173
| 18>   O                      -7.976021            -4.295720            -10.433268
| 19>   H                      -7.679073            -4.827402            -9.662915
| 20>   H                      -9.835861            -4.048527            -9.793605
| 21>   H                      -8.592057            -2.977344            -8.992259
| 22>   H                      -9.217615            -2.591024            -10.684996
| 23> *
| 24>
| 25> #Run DFT-D3 single point of the molecule with dimer basis set
| 26> $new_job
| 27> %base "1-135_DFT_A"
| 28> ! wB97X-D3 def2-TZVP TIGHTSCF CHELPG PMODEL
| 29>
| 30> %scf
| 31> MaxIter 1000
| 32> end
| 33>
| 34> * xyz 0 1
| 35>   C                      -5.907909            -7.270383            -9.411896
| 36>   O                      -6.939199            -7.776413            -10.164808
| 37>   H                      -6.849810            -8.745502            -10.180810
| 38>   H                      -5.949273            -7.445977            -8.375448
| 39>   H                      -4.982129            -7.743169            -9.713157
| 40>   H                      -5.813734            -6.172566            -9.550983
| 41>   C                    : -8.955742            -3.391190            -9.964173
| 42>   O                    : -7.976021            -4.295720            -10.433268
| 43>   H                    : -7.679073            -4.827402            -9.662915
| 44>   H                    : -9.835861            -4.048527            -9.793605
| 45>   H                    : -8.592057            -2.977344            -8.992259
| 46>   H                    : -9.217615            -2.591024            -10.684996
| 47> *
| 48>
| 49> #Run DFT-D3 single point of the particle with dimer basis set
| 50> $new_job
| 51> %base "1-135_DFT_B"
| 52> ! wB97X-D3 def2-TZVP TIGHTSCF CHELPG PMODEL
| 53>
| 54> %scf
| 55> MaxIter 1000
| 56> end
| 57>
| 58> * xyz 0 1
| 59>   C                    : -5.907909            -7.270383            -9.411896
| 60>   O                    : -6.939199            -7.776413            -10.164808
| 61>   H                    : -6.849810            -8.745502            -10.180810
| 62>   H                    : -5.949273            -7.445977            -8.375448
| 63>   H                    : -4.982129            -7.743169            -9.713157
| 64>   H                    : -5.813734            -6.172566            -9.550983
| 65>   C                      -8.955742            -3.391190            -9.964173
| 66>   O                      -7.976021            -4.295720            -10.433268
| 67>   H                      -7.679073            -4.827402            -9.662915
| 68>   H                      -9.835861            -4.048527            -9.793605
| 69>   H                      -8.592057            -2.977344            -8.992259
| 70>   H                      -9.217615            -2.591024            -10.684996
| 71> *
| 72>
| 73>                          ****END OF INPUT****
 Total Charge           Charge          ....    0
 Multiplicity           Mult            ....    1
 Number of Electrons    NEL             ....   36
Dispersion correction           -0.001330058
FINAL SINGLE POINT ENERGY      -231.463759020785
Dispersion correction           -0.000219184
FINAL SINGLE POINT ENERGY      -115.732668082100

CARTESIAN COORDINATES (ANGSTROEM)
---------------------------------
  C     -5.907909   -7.270383   -9.411896
  O     -6.939199   -7.776413  -10.164808
  H     -6.849810   -8.745502  -10.180810
  H     -5.949273   -7.445977   -8.375448
  H     -4.982129   -7.743169   -9.713157
  H     -5.813734   -6.172566   -9.550983
  C     -8.955742   -3.391190   -9.964173
  O     -7.976021   -4.295720  -10.433268
  H     -7.679073   -4.827402   -9.662915
  H     -9.835861   -4.048527   -9.793605
  H     -8.592057   -2.977344   -8.992259
  H     -9.217615   -2.591024  -10.684996

 Multiplicity           Mult            ....    1
 Number of Electrons    NEL             ....   18
 Basis Dimension        Dim             ....  172

ORBITAL ENERGIES
----------------

  NO   OCC          E(Eh)            E(eV)
   0   2.0000     -19.227792      -523.2148
   1   2.0000     -10.319532      -280.8087
   2   2.0000      -1.132137       -30.8070
   3   2.0000      -0.786387       -21.3987
   4   2.0000      -0.602959       -16.4074
   5   2.0000      -0.542380       -14.7589
   6   2.0000      -0.532512       -14.4904
   7   2.0000      -0.429495       -11.6872
   8   2.0000      -0.366381        -9.9697
   9   0.0000       0.078434         2.1343
  10   0.0000       0.121778         3.3137
  11   0.0000       0.153565         4.1787
  12   0.0000       0.169386         4.6092
  13   0.0000       0.195732         5.3261

MULLIKEN ATOMIC CHARGES
-----------------------
   0 C :   -0.000396
   1 O :   -0.000193
   2 H :   -0.000028
   3 H :    0.000043
   4 H :   -0.000016
   5 H :   -0.003210
   6 C :   -0.167272
   7 O :   -0.476346
   8 H :    0.320367
   9 H :    0.104118
  10 H :    0.098160
  11 H :    0.124774
Sum of atomic charges:    0.0000000

LOEWDIN ATOMIC CHARGES
----------------------
   0 C :   -0.003594
   1 O :   -0.000838
   2 H :   -0.000041
   3 H :   -0.000054
   4 H :   -0.000032
   5 H :   -0.003390
   6 C :   -0.389365
   7 O :   -0.094297
   8 H :    0.184398
   9 H :    0.099295
  10 H :    0.097891
  11 H :    0.110025

  Mayer bond orders larger than 0.1
B(  6-C ,  7-O ) :   0.9866 B(  6-C ,  9-H ) :   0.9860 B(  6-C , 10-H ) :   0.9836
B(  6-C , 11-H ) :   0.9656 B(  7-O ,  8-H ) :   0.8914

Dispersion correction           -0.000218502
FINAL SINGLE POINT ENERGY      -115.731062699045

DIPOLE MOMENT
-------------
                                X             Y             Z
Electronic contribution:      1.21489      -0.92901      -0.81269
Nuclear contribution   :     -1.42004       0.96727       1.46805
                        -----------------------------------------
Total Dipole Moment    :     -0.20515       0.03827       0.65536
                        -----------------------------------------
Magnitude (a.u.)       :      0.68779
Magnitude (Debye)      :      1.74821

Rotational constants in cm-1:     4.058146     0.840043     0.806546
Rotational constants in MHz : 121660.163846 25183.862376 24179.644520

                             ****ORCA TERMINATED NORMALLY****
TOTAL RUN TIME: 0 days 0 hours 5 minutes 38 seconds 515 msec
