                         Program Version 4.1.2  - RELEASE  -
|  1> #Run DFT-D3 single point of the dimer
|  2> ! wB97X-D3 def2-TZVP TIGHTSCF CHELPG PMODEL PAL8
|  3>
|  4> %base "21-3_DFT_AB"
|  5>
|  6> %scf
|  7> MaxIter 1000
|  8> end
|  9>
| 10> * xyz 0 1
| 11>   C                      -6.197209            -10.043977           -7.076087
| 12>   O                      -7.192169            -9.113181            -7.459103
| 13>   H                      -7.983588            -9.380507            -7.088494
| 14>   H                      -6.571320            -11.022002           -7.330227
| 15>   H                      -5.260879            -9.809619            -7.601295
| 16>   H                      -5.787484            -10.013825           -6.086584
| 17>   C                      -8.175844            -6.461726            -9.529841
| 18>   O                      -6.888502            -6.628987            -8.963924
| 19>   H                      -6.925999            -7.424524            -8.347092
| 20>   H                      -8.688891            -7.439171            -9.596102
| 21>   H                      -8.830355            -5.949237            -8.826932
| 22>   H                      -8.134614            -6.010198            -10.551838
| 23> *
| 24>
| 25> #Run DFT-D3 single point of the molecule with dimer basis set
| 26> $new_job
| 27> %base "21-3_DFT_A"
| 28> ! wB97X-D3 def2-TZVP TIGHTSCF CHELPG PMODEL
| 29>
| 30> %scf
| 31> MaxIter 1000
| 32> end
| 33>
| 34> * xyz 0 1
| 35>   C                      -6.197209            -10.043977           -7.076087
| 36>   O                      -7.192169            -9.113181            -7.459103
| 37>   H                      -7.983588            -9.380507            -7.088494
| 38>   H                      -6.571320            -11.022002           -7.330227
| 39>   H                      -5.260879            -9.809619            -7.601295
| 40>   H                      -5.787484            -10.013825           -6.086584
| 41>   C                    : -8.175844            -6.461726            -9.529841
| 42>   O                    : -6.888502            -6.628987            -8.963924
| 43>   H                    : -6.925999            -7.424524            -8.347092
| 44>   H                    : -8.688891            -7.439171            -9.596102
| 45>   H                    : -8.830355            -5.949237            -8.826932
| 46>   H                    : -8.134614            -6.010198            -10.551838
| 47> *
| 48>
| 49> #Run DFT-D3 single point of the particle with dimer basis set
| 50> $new_job
| 51> %base "21-3_DFT_B"
| 52> ! wB97X-D3 def2-TZVP TIGHTSCF CHELPG PMODEL
| 53>
| 54> %scf
| 55> MaxIter 1000
| 56> end
| 57>
| 58> * xyz 0 1
| 59>   C                    : -6.197209            -10.043977           -7.076087
| 60>   O                    : -7.192169            -9.113181            -7.459103
| 61>   H                    : -7.983588            -9.380507            -7.088494
| 62>   H                    : -6.571320            -11.022002           -7.330227
| 63>   H                    : -5.260879            -9.809619            -7.601295
| 64>   H                    : -5.787484            -10.013825           -6.086584
| 65>   C                      -8.175844            -6.461726            -9.529841
| 66>   O                      -6.888502            -6.628987            -8.963924
| 67>   H                      -6.925999            -7.424524            -8.347092
| 68>   H                      -8.688891            -7.439171            -9.596102
| 69>   H                      -8.830355            -5.949237            -8.826932
| 70>   H                      -8.134614            -6.010198            -10.551838
| 71> *
| 72>
| 73>                          ****END OF INPUT****
 Total Charge           Charge          ....    0
 Multiplicity           Mult            ....    1
 Number of Electrons    NEL             ....   36
Dispersion correction           -0.001678676
FINAL SINGLE POINT ENERGY      -231.469015964747
Dispersion correction           -0.000241853
FINAL SINGLE POINT ENERGY      -115.729024529967

CARTESIAN COORDINATES (ANGSTROEM)
---------------------------------
  C     -6.197209  -10.043977   -7.076087
  O     -7.192169   -9.113181   -7.459103
  H     -7.983588   -9.380507   -7.088494
  H     -6.571320  -11.022002   -7.330227
  H     -5.260879   -9.809619   -7.601295
  H     -5.787484  -10.013825   -6.086584
  C     -8.175844   -6.461726   -9.529841
  O     -6.888502   -6.628987   -8.963924
  H     -6.925999   -7.424524   -8.347092
  H     -8.688891   -7.439171   -9.596102
  H     -8.830355   -5.949237   -8.826932
  H     -8.134614   -6.010198  -10.551838

 Multiplicity           Mult            ....    1
 Number of Electrons    NEL             ....   18
 Basis Dimension        Dim             ....  172

ORBITAL ENERGIES
----------------

  NO   OCC          E(Eh)            E(eV)
   0   2.0000     -19.233654      -523.3743
   1   2.0000     -10.316502      -280.7263
   2   2.0000      -1.127376       -30.6774
   3   2.0000      -0.788714       -21.4620
   4   2.0000      -0.608293       -16.5525
   5   2.0000      -0.540391       -14.7048
   6   2.0000      -0.521542       -14.1919
   7   2.0000      -0.432453       -11.7676
   8   2.0000      -0.369762       -10.0617
   9   0.0000       0.066256         1.8029
  10   0.0000       0.124990         3.4012
  11   0.0000       0.149275         4.0620
  12   0.0000       0.168691         4.5903
  13   0.0000       0.193036         5.2528

MULLIKEN ATOMIC CHARGES
-----------------------
   0 C :   -0.002315
   1 O :   -0.003836
   2 H :    0.000119
   3 H :    0.000115
   4 H :   -0.000358
   5 H :    0.000027
   6 C :   -0.172134
   7 O :   -0.473691
   8 H :    0.319792
   9 H :    0.101925
  10 H :    0.104837
  11 H :    0.125518
Sum of atomic charges:    0.0000000

LOEWDIN ATOMIC CHARGES
----------------------
   0 C :   -0.002944
   1 O :   -0.021405
   2 H :   -0.001366
   3 H :   -0.000061
   4 H :   -0.000422
   5 H :   -0.000055
   6 C :   -0.392203
   7 O :   -0.092568
   8 H :    0.207964
   9 H :    0.096585
  10 H :    0.093542
  11 H :    0.112932

  Mayer bond orders larger than 0.1
B(  6-C ,  7-O ) :   0.9896 B(  6-C ,  9-H ) :   0.9829 B(  6-C , 10-H ) :   0.9750
B(  6-C , 11-H ) :   0.9676 B(  7-O ,  8-H ) :   0.8974

Dispersion correction           -0.000240568
FINAL SINGLE POINT ENERGY      -115.730719338257

DIPOLE MOMENT
-------------
                                X             Y             Z
Electronic contribution:      1.76442       0.03894       0.55819
Nuclear contribution   :     -2.30142      -0.48800      -0.40262
                        -----------------------------------------
Total Dipole Moment    :     -0.53700      -0.44906       0.15557
                        -----------------------------------------
Magnitude (a.u.)       :      0.71709
Magnitude (Debye)      :      1.82271

Rotational constants in cm-1:     4.144276     0.830787     0.790512
Rotational constants in MHz : 124242.265973 24906.365612 23698.958903

                             ****ORCA TERMINATED NORMALLY****
TOTAL RUN TIME: 0 days 0 hours 0 minutes 59 seconds 893 msec
