                         Program Version 4.1.2  - RELEASE  -
|  1> #Run DFT-D3 single point of the dimer
|  2> ! wB97X-D3 def2-TZVP TIGHTSCF  CHELPG PAL8
|  3>
|  4> %base "74_charges"
|  5>
|  6> %scf
|  7> MaxIter 1000
|  8> end
|  9> %output
| 10>   Print[ P_Mayer ] 1
| 11>   Print[ P_NatPop ] 1
| 12>   Print[ P_Hirshfeld ] 1
| 13>   Print[ P_Mulliken ] 1
| 14>   Print [ P_Loewdin ] 1
| 15> end
| 16>
| 17> * xyz 0 1
| 18>   C                      -3.349839            -10.377519           6.723190
| 19>   O                      -3.909223            -9.244859            5.906930
| 20>   H                      -3.983696            -9.489105            4.982760
| 21>   H                      -2.320992            -10.540145           6.444161
| 22>   H                      -3.449869            -10.212168           7.828835
| 23>   H                      -3.826895            -11.280781           6.500275
| 24> *
| 25>
| 26>                          ****END OF INPUT****

CARTESIAN COORDINATES (ANGSTROEM)
---------------------------------
  C     -3.349839  -10.377519    6.723190
  O     -3.909223   -9.244859    5.906930
  H     -3.983696   -9.489105    4.982760
  H     -2.320992  -10.540145    6.444161
  H     -3.449869  -10.212168    7.828835
  H     -3.826895  -11.280781    6.500275

 Total Charge           Charge          ....    0
 Multiplicity           Mult            ....    1
 Number of Electrons    NEL             ....   18
 Basis Dimension        Dim             ....   86

ORBITAL ENERGIES
----------------

  NO   OCC          E(Eh)            E(eV)
   0   2.0000     -19.226744      -523.1863
   1   2.0000     -10.318134      -280.7707
   2   2.0000      -1.108256       -30.1572
   3   2.0000      -0.804289       -21.8858
   4   2.0000      -0.597681       -16.2637
   5   2.0000      -0.534493       -14.5443
   6   2.0000      -0.519367       -14.1327
   7   2.0000      -0.434787       -11.8311
   8   2.0000      -0.374700       -10.1961
   9   0.0000       0.116064         3.1583
  10   0.0000       0.145392         3.9563
  11   0.0000       0.198468         5.4006
  12   0.0000       0.206143         5.6094
  13   0.0000       0.219484         5.9725

MULLIKEN ATOMIC CHARGES
-----------------------
   0 C :   -0.174085
   1 O :   -0.500241
   2 H :    0.312635
   3 H :    0.114536
   4 H :    0.130410
   5 H :    0.116746
Sum of atomic charges:   -0.0000000

LOEWDIN ATOMIC CHARGES
----------------------
   0 C :   -0.316580
   1 O :   -0.141006
   2 H :    0.158719
   3 H :    0.095191
   4 H :    0.117791
   5 H :    0.085884

  Mayer bond orders larger than 0.1
B(  0-C ,  1-O ) :   0.9819 B(  0-C ,  3-H ) :   0.9764 B(  0-C ,  4-H ) :   0.9706
B(  0-C ,  5-H ) :   0.9751 B(  1-O ,  2-H ) :   0.8999

Dispersion correction           -0.000280056
FINAL SINGLE POINT ENERGY      -115.727584599525

DIPOLE MOMENT
-------------
                                X             Y             Z
Electronic contribution:     -0.69472       1.41917      -0.81848
Nuclear contribution   :      0.89476      -2.12390       0.59172
                        -----------------------------------------
Total Dipole Moment    :      0.20004      -0.70473      -0.22676
                        -----------------------------------------
Magnitude (a.u.)       :      0.76686
Magnitude (Debye)      :      1.94922

Rotational constants in cm-1:     4.432859     0.749438     0.720081
Rotational constants in MHz : 132893.769437 22467.595653 21587.500120

                             ****ORCA TERMINATED NORMALLY****
TOTAL RUN TIME: 0 days 0 hours 0 minutes 41 seconds 640 msec
