                         Program Version 4.1.2  - RELEASE  -
|  1> #Run DFT-D3 single point of the dimer
|  2> ! wB97X-D3 def2-TZVP TIGHTSCF CHELPG PMODEL PAL8
|  3>
|  4> %base "22-204_DFT_AB"
|  5>
|  6> %scf
|  7> MaxIter 1000
|  8> end
|  9>
| 10> * xyz 0 1
| 11>   C                      1.442386             -2.274042            -9.890710
| 12>   O                      0.592274             -2.089816            -8.804962
| 13>   H                      0.747935             -1.204462            -8.573068
| 14>   H                      1.681016             -1.319483            -10.309592
| 15>   H                      2.439277             -2.726638            -9.619208
| 16>   H                      0.897639             -2.841825            -10.695493
| 17>   C                      -2.562139            -3.045690            -7.339028
| 18>   O                      -1.235167            -3.429709            -7.022291
| 19>   H                      -0.707073            -3.079050            -7.717613
| 20>   H                      -2.916041            -3.229346            -8.340485
| 21>   H                      -3.183797            -3.662519            -6.608650
| 22>   H                      -2.642464            -1.999985            -7.043889
| 23> *
| 24>
| 25> #Run DFT-D3 single point of the molecule with dimer basis set
| 26> $new_job
| 27> %base "22-204_DFT_A"
| 28> ! wB97X-D3 def2-TZVP TIGHTSCF CHELPG PMODEL
| 29>
| 30> %scf
| 31> MaxIter 1000
| 32> end
| 33>
| 34> * xyz 0 1
| 35>   C                      1.442386             -2.274042            -9.890710
| 36>   O                      0.592274             -2.089816            -8.804962
| 37>   H                      0.747935             -1.204462            -8.573068
| 38>   H                      1.681016             -1.319483            -10.309592
| 39>   H                      2.439277             -2.726638            -9.619208
| 40>   H                      0.897639             -2.841825            -10.695493
| 41>   C                    : -2.562139            -3.045690            -7.339028
| 42>   O                    : -1.235167            -3.429709            -7.022291
| 43>   H                    : -0.707073            -3.079050            -7.717613
| 44>   H                    : -2.916041            -3.229346            -8.340485
| 45>   H                    : -3.183797            -3.662519            -6.608650
| 46>   H                    : -2.642464            -1.999985            -7.043889
| 47> *
| 48>
| 49> #Run DFT-D3 single point of the particle with dimer basis set
| 50> $new_job
| 51> %base "22-204_DFT_B"
| 52> ! wB97X-D3 def2-TZVP TIGHTSCF CHELPG PMODEL
| 53>
| 54> %scf
| 55> MaxIter 1000
| 56> end
| 57>
| 58> * xyz 0 1
| 59>   C                    : 1.442386             -2.274042            -9.890710
| 60>   O                    : 0.592274             -2.089816            -8.804962
| 61>   H                    : 0.747935             -1.204462            -8.573068
| 62>   H                    : 1.681016             -1.319483            -10.309592
| 63>   H                    : 2.439277             -2.726638            -9.619208
| 64>   H                    : 0.897639             -2.841825            -10.695493
| 65>   C                      -2.562139            -3.045690            -7.339028
| 66>   O                      -1.235167            -3.429709            -7.022291
| 67>   H                      -0.707073            -3.079050            -7.717613
| 68>   H                      -2.916041            -3.229346            -8.340485
| 69>   H                      -3.183797            -3.662519            -6.608650
| 70>   H                      -2.642464            -1.999985            -7.043889
| 71> *
| 72>
| 73>                          ****END OF INPUT****
 Total Charge           Charge          ....    0
 Multiplicity           Mult            ....    1
 Number of Electrons    NEL             ....   36
Dispersion correction           -0.001486819
FINAL SINGLE POINT ENERGY      -231.470323605910
Dispersion correction           -0.000225630
FINAL SINGLE POINT ENERGY      -115.730783363226

CARTESIAN COORDINATES (ANGSTROEM)
---------------------------------
  C      1.442386   -2.274042   -9.890710
  O      0.592274   -2.089816   -8.804962
  H      0.747935   -1.204462   -8.573068
  H      1.681016   -1.319483  -10.309592
  H      2.439277   -2.726638   -9.619208
  H      0.897639   -2.841825  -10.695493
  C     -2.562139   -3.045690   -7.339028
  O     -1.235167   -3.429709   -7.022291
  H     -0.707073   -3.079050   -7.717613
  H     -2.916041   -3.229346   -8.340485
  H     -3.183797   -3.662519   -6.608650
  H     -2.642464   -1.999985   -7.043889

 Multiplicity           Mult            ....    1
 Number of Electrons    NEL             ....   18
 Basis Dimension        Dim             ....  172

ORBITAL ENERGIES
----------------

  NO   OCC          E(Eh)            E(eV)
   0   2.0000     -19.228346      -523.2299
   1   2.0000     -10.315180      -280.6903
   2   2.0000      -1.141317       -31.0568
   3   2.0000      -0.792976       -21.5780
   4   2.0000      -0.613208       -16.6862
   5   2.0000      -0.548879       -14.9358
   6   2.0000      -0.514902       -14.0112
   7   2.0000      -0.437564       -11.9067
   8   2.0000      -0.374556       -10.1922
   9   0.0000       0.071253         1.9389
  10   0.0000       0.128339         3.4923
  11   0.0000       0.155794         4.2394
  12   0.0000       0.167227         4.5505
  13   0.0000       0.191199         5.2028

MULLIKEN ATOMIC CHARGES
-----------------------
   0 C :   -0.001370
   1 O :   -0.004584
   2 H :   -0.000623
   3 H :    0.000038
   4 H :    0.000054
   5 H :   -0.000072
   6 C :   -0.164808
   7 O :   -0.460811
   8 H :    0.306686
   9 H :    0.107913
  10 H :    0.111723
  11 H :    0.105854
Sum of atomic charges:    0.0000000

LOEWDIN ATOMIC CHARGES
----------------------
   0 C :   -0.001895
   1 O :   -0.019927
   2 H :   -0.001702
   3 H :   -0.000051
   4 H :   -0.000041
   5 H :   -0.000107
   6 C :   -0.384351
   7 O :   -0.060555
   8 H :    0.162298
   9 H :    0.090769
  10 H :    0.119197
  11 H :    0.096365

  Mayer bond orders larger than 0.1
B(  6-C ,  7-O ) :   0.9902 B(  6-C ,  9-H ) :   0.9657 B(  6-C , 10-H ) :   0.9783
B(  6-C , 11-H ) :   0.9813 B(  7-O ,  8-H ) :   0.9141

Dispersion correction           -0.000229419
FINAL SINGLE POINT ENERGY      -115.732368913946

DIPOLE MOMENT
-------------
                                X             Y             Z
Electronic contribution:      1.63566      -0.52599       0.31883
Nuclear contribution   :     -1.82157       0.89037      -0.88174
                        -----------------------------------------
Total Dipole Moment    :     -0.18591       0.36438      -0.56291
                        -----------------------------------------
Magnitude (a.u.)       :      0.69584
Magnitude (Debye)      :      1.76870

Rotational constants in cm-1:     4.178723     0.839366     0.808445
Rotational constants in MHz : 125274.950118 25163.568828 24236.585760

                             ****ORCA TERMINATED NORMALLY****
TOTAL RUN TIME: 0 days 0 hours 0 minutes 58 seconds 862 msec
