                         Program Version 4.1.2  - RELEASE  -
|  1> #Run DFT-D3 single point of the dimer
|  2> ! wB97X-D3 def2-TZVP TIGHTSCF CHELPG PMODEL PAL8
|  3>
|  4> %base "8-57_DFT_AB"
|  5>
|  6> %scf
|  7> MaxIter 1000
|  8> end
|  9>
| 10> * xyz 0 1
| 11>   C                      -1.670944            -9.559233            3.799074
| 12>   O                      -0.481268            -9.603435            3.036567
| 13>   H                      -0.736108            -9.305396            2.153526
| 14>   H                      -2.402088            -10.358033           3.567388
| 15>   H                      -1.449708            -9.797974            4.816966
| 16>   H                      -2.153882            -8.556090            3.774826
| 17>   C                      -1.836438            -10.187012           8.477243
| 18>   O                      -3.182947            -10.585800           8.737161
| 19>   H                      -3.371845            -11.517466           8.417675
| 20>   H                      -1.785848            -9.646708            7.498774
| 21>   H                      -1.443843            -9.424437            9.185187
| 22>   H                      -1.188261            -11.073030           8.387025
| 23> *
| 24>
| 25> #Run DFT-D3 single point of the molecule with dimer basis set
| 26> $new_job
| 27> %base "8-57_DFT_A"
| 28> ! wB97X-D3 def2-TZVP TIGHTSCF CHELPG PMODEL
| 29>
| 30> %scf
| 31> MaxIter 1000
| 32> end
| 33>
| 34> * xyz 0 1
| 35>   C                      -1.670944            -9.559233            3.799074
| 36>   O                      -0.481268            -9.603435            3.036567
| 37>   H                      -0.736108            -9.305396            2.153526
| 38>   H                      -2.402088            -10.358033           3.567388
| 39>   H                      -1.449708            -9.797974            4.816966
| 40>   H                      -2.153882            -8.556090            3.774826
| 41>   C                    : -1.836438            -10.187012           8.477243
| 42>   O                    : -3.182947            -10.585800           8.737161
| 43>   H                    : -3.371845            -11.517466           8.417675
| 44>   H                    : -1.785848            -9.646708            7.498774
| 45>   H                    : -1.443843            -9.424437            9.185187
| 46>   H                    : -1.188261            -11.073030           8.387025
| 47> *
| 48>
| 49> #Run DFT-D3 single point of the particle with dimer basis set
| 50> $new_job
| 51> %base "8-57_DFT_B"
| 52> ! wB97X-D3 def2-TZVP TIGHTSCF CHELPG PMODEL
| 53>
| 54> %scf
| 55> MaxIter 1000
| 56> end
| 57>
| 58> * xyz 0 1
| 59>   C                    : -1.670944            -9.559233            3.799074
| 60>   O                    : -0.481268            -9.603435            3.036567
| 61>   H                    : -0.736108            -9.305396            2.153526
| 62>   H                    : -2.402088            -10.358033           3.567388
| 63>   H                    : -1.449708            -9.797974            4.816966
| 64>   H                    : -2.153882            -8.556090            3.774826
| 65>   C                      -1.836438            -10.187012           8.477243
| 66>   O                      -3.182947            -10.585800           8.737161
| 67>   H                      -3.371845            -11.517466           8.417675
| 68>   H                      -1.785848            -9.646708            7.498774
| 69>   H                      -1.443843            -9.424437            9.185187
| 70>   H                      -1.188261            -11.073030           8.387025
| 71> *
| 72>
| 73>                          ****END OF INPUT****
 Total Charge           Charge          ....    0
 Multiplicity           Mult            ....    1
 Number of Electrons    NEL             ....   36
Dispersion correction           -0.001009206
FINAL SINGLE POINT ENERGY      -231.465893703750
Dispersion correction           -0.000248263
FINAL SINGLE POINT ENERGY      -115.734759359825

CARTESIAN COORDINATES (ANGSTROEM)
---------------------------------
  C     -1.670944   -9.559233    3.799074
  O     -0.481268   -9.603435    3.036567
  H     -0.736108   -9.305396    2.153526
  H     -2.402088  -10.358033    3.567388
  H     -1.449708   -9.797974    4.816966
  H     -2.153882   -8.556090    3.774826
  C     -1.836438  -10.187012    8.477243
  O     -3.182947  -10.585800    8.737161
  H     -3.371845  -11.517466    8.417675
  H     -1.785848   -9.646708    7.498774
  H     -1.443843   -9.424437    9.185187
  H     -1.188261  -11.073030    8.387025

 Multiplicity           Mult            ....    1
 Number of Electrons    NEL             ....   18
 Basis Dimension        Dim             ....  172

ORBITAL ENERGIES
----------------

  NO   OCC          E(Eh)            E(eV)
   0   2.0000     -19.232055      -523.3308
   1   2.0000     -10.319859      -280.8176
   2   2.0000      -1.121371       -30.5141
   3   2.0000      -0.790177       -21.5018
   4   2.0000      -0.603810       -16.4305
   5   2.0000      -0.535812       -14.5802
   6   2.0000      -0.524486       -14.2720
   7   2.0000      -0.429022       -11.6743
   8   2.0000      -0.367662       -10.0046
   9   0.0000       0.084453         2.2981
  10   0.0000       0.109624         2.9830
  11   0.0000       0.144483         3.9316
  12   0.0000       0.170639         4.6433
  13   0.0000       0.192589         5.2406

MULLIKEN ATOMIC CHARGES
-----------------------
   0 C :    0.000168
   1 O :    0.000046
   2 H :    0.000005
   3 H :   -0.000078
   4 H :   -0.000226
   5 H :   -0.000115
   6 C :   -0.167621
   7 O :   -0.487175
   8 H :    0.322277
   9 H :    0.102833
  10 H :    0.122744
  11 H :    0.107142
Sum of atomic charges:   -0.0000000

LOEWDIN ATOMIC CHARGES
----------------------
   0 C :   -0.000860
   1 O :   -0.000010
   2 H :   -0.000001
   3 H :   -0.000012
   4 H :   -0.002492
   5 H :   -0.000035
   6 C :   -0.384711
   7 O :   -0.111467
   8 H :    0.192501
   9 H :    0.099771
  10 H :    0.109681
  11 H :    0.097635

  Mayer bond orders larger than 0.1
B(  6-C ,  7-O ) :   1.0025 B(  6-C ,  9-H ) :   0.9749 B(  6-C , 10-H ) :   0.9681
B(  6-C , 11-H ) :   0.9820 B(  7-O ,  8-H ) :   0.8876

Dispersion correction           -0.000266921
FINAL SINGLE POINT ENERGY      -115.730540928581

DIPOLE MOMENT
-------------
                                X             Y             Z
Electronic contribution:     -1.71561      -0.43116       0.52158
Nuclear contribution   :      2.14912      -0.00455      -0.82961
                        -----------------------------------------
Total Dipole Moment    :      0.43351      -0.43570      -0.30804
                        -----------------------------------------
Magnitude (a.u.)       :      0.68750
Magnitude (Debye)      :      1.74749

Rotational constants in cm-1:     4.211165     0.808867     0.772183
Rotational constants in MHz : 126247.545726 24249.211844 23149.458577

                             ****ORCA TERMINATED NORMALLY****
TOTAL RUN TIME: 0 days 0 hours 0 minutes 42 seconds 845 msec
