                         Program Version 4.1.2  - RELEASE  -
|  1> #Run DFT-D3 single point of the dimer
|  2> ! wB97X-D3 def2-TZVP TIGHTSCF CHELPG PMODEL PAL8
|  3>
|  4> %base "15-12_DFT_AB"
|  5>
|  6> %scf
|  7> MaxIter 1000
|  8> end
|  9>
| 10> * xyz 0 1
| 11>   C                      -9.116109            5.828608             -3.149760
| 12>   O                      -8.666366            7.180685             -3.469790
| 13>   H                      -8.814491            7.394887             -4.363041
| 14>   H                      -9.459913            5.864401             -2.148955
| 15>   H                      -9.944737            5.470337             -3.807818
| 16>   H                      -8.309017            5.140862             -3.188582
| 17>   C                      -8.741298            2.011350             -3.240860
| 18>   O                      -9.621524            0.943779             -3.563059
| 19>   H                      -9.309505            0.156833             -3.162644
| 20>   H                      -9.085731            2.993607             -3.654103
| 21>   H                      -8.600028            2.141304             -2.154189
| 22>   H                      -7.868140            1.741703             -3.848083
| 23> *
| 24>
| 25> #Run DFT-D3 single point of the molecule with dimer basis set
| 26> $new_job
| 27> %base "15-12_DFT_A"
| 28> ! wB97X-D3 def2-TZVP TIGHTSCF CHELPG PMODEL
| 29>
| 30> %scf
| 31> MaxIter 1000
| 32> end
| 33>
| 34> * xyz 0 1
| 35>   C                      -9.116109            5.828608             -3.149760
| 36>   O                      -8.666366            7.180685             -3.469790
| 37>   H                      -8.814491            7.394887             -4.363041
| 38>   H                      -9.459913            5.864401             -2.148955
| 39>   H                      -9.944737            5.470337             -3.807818
| 40>   H                      -8.309017            5.140862             -3.188582
| 41>   C                    : -8.741298            2.011350             -3.240860
| 42>   O                    : -9.621524            0.943779             -3.563059
| 43>   H                    : -9.309505            0.156833             -3.162644
| 44>   H                    : -9.085731            2.993607             -3.654103
| 45>   H                    : -8.600028            2.141304             -2.154189
| 46>   H                    : -7.868140            1.741703             -3.848083
| 47> *
| 48>
| 49> #Run DFT-D3 single point of the particle with dimer basis set
| 50> $new_job
| 51> %base "15-12_DFT_B"
| 52> ! wB97X-D3 def2-TZVP TIGHTSCF CHELPG PMODEL
| 53>
| 54> %scf
| 55> MaxIter 1000
| 56> end
| 57>
| 58> * xyz 0 1
| 59>   C                    : -9.116109            5.828608             -3.149760
| 60>   O                    : -8.666366            7.180685             -3.469790
| 61>   H                    : -8.814491            7.394887             -4.363041
| 62>   H                    : -9.459913            5.864401             -2.148955
| 63>   H                    : -9.944737            5.470337             -3.807818
| 64>   H                    : -8.309017            5.140862             -3.188582
| 65>   C                      -8.741298            2.011350             -3.240860
| 66>   O                      -9.621524            0.943779             -3.563059
| 67>   H                      -9.309505            0.156833             -3.162644
| 68>   H                      -9.085731            2.993607             -3.654103
| 69>   H                      -8.600028            2.141304             -2.154189
| 70>   H                      -7.868140            1.741703             -3.848083
| 71> *
| 72>
| 73>                          ****END OF INPUT****
 Total Charge           Charge          ....    0
 Multiplicity           Mult            ....    1
 Number of Electrons    NEL             ....   36
Dispersion correction           -0.001401846
FINAL SINGLE POINT ENERGY      -231.462711079127
Dispersion correction           -0.000266839
FINAL SINGLE POINT ENERGY      -115.732654092605

CARTESIAN COORDINATES (ANGSTROEM)
---------------------------------
  C     -9.116109    5.828608   -3.149760
  O     -8.666366    7.180685   -3.469790
  H     -8.814491    7.394887   -4.363041
  H     -9.459913    5.864401   -2.148955
  H     -9.944737    5.470337   -3.807818
  H     -8.309017    5.140862   -3.188582
  C     -8.741298    2.011350   -3.240860
  O     -9.621524    0.943779   -3.563059
  H     -9.309505    0.156833   -3.162644
  H     -9.085731    2.993607   -3.654103
  H     -8.600028    2.141304   -2.154189
  H     -7.868140    1.741703   -3.848083

 Multiplicity           Mult            ....    1
 Number of Electrons    NEL             ....   18
 Basis Dimension        Dim             ....  172

ORBITAL ENERGIES
----------------

  NO   OCC          E(Eh)            E(eV)
   0   2.0000     -19.223367      -523.0944
   1   2.0000     -10.317988      -280.7667
   2   2.0000      -1.137041       -30.9405
   3   2.0000      -0.793945       -21.6043
   4   2.0000      -0.604368       -16.4457
   5   2.0000      -0.552394       -15.0314
   6   2.0000      -0.526529       -14.3276
   7   2.0000      -0.424454       -11.5500
   8   2.0000      -0.371062       -10.0971
   9   0.0000       0.084830         2.3084
  10   0.0000       0.118762         3.2317
  11   0.0000       0.149312         4.0630
  12   0.0000       0.178109         4.8466
  13   0.0000       0.183701         4.9987

MULLIKEN ATOMIC CHARGES
-----------------------
   0 C :   -0.002194
   1 O :    0.000002
   2 H :   -0.000003
   3 H :    0.000168
   4 H :    0.000263
   5 H :    0.001351
   6 C :   -0.155801
   7 O :   -0.479765
   8 H :    0.311785
   9 H :    0.115242
  10 H :    0.103811
  11 H :    0.105141
Sum of atomic charges:   -0.0000000

LOEWDIN ATOMIC CHARGES
----------------------
   0 C :   -0.007408
   1 O :   -0.000025
   2 H :   -0.000006
   3 H :   -0.000179
   4 H :   -0.001631
   5 H :   -0.003508
   6 C :   -0.377570
   7 O :   -0.078512
   8 H :    0.151429
   9 H :    0.117532
  10 H :    0.098261
  11 H :    0.101617

  Mayer bond orders larger than 0.1
B(  6-C ,  7-O ) :   0.9944 B(  6-C ,  9-H ) :   0.9711 B(  6-C , 10-H ) :   0.9708
B(  6-C , 11-H ) :   0.9894 B(  7-O ,  8-H ) :   0.9024

Dispersion correction           -0.000231632
FINAL SINGLE POINT ENERGY      -115.729690748172

DIPOLE MOMENT
-------------
                                X             Y             Z
Electronic contribution:     -1.17208      -1.22808      -0.34036
Nuclear contribution   :      1.72626       1.16303       0.71972
                        -----------------------------------------
Total Dipole Moment    :      0.55418      -0.06505       0.37936
                        -----------------------------------------
Magnitude (a.u.)       :      0.67473
Magnitude (Debye)      :      1.71503

Rotational constants in cm-1:     4.230686     0.824498     0.804888
Rotational constants in MHz : 126832.763417 24717.829618 24129.945959

                             ****ORCA TERMINATED NORMALLY****
TOTAL RUN TIME: 0 days 0 hours 0 minutes 57 seconds 70 msec
