                         Program Version 4.1.2  - RELEASE  -
|  1> #Run DFT-D3 single point of the dimer
|  2> ! wB97X-D3 def2-TZVP TIGHTSCF CHELPG PMODEL PAL8
|  3>
|  4> %base "7-183_DFT_AB"
|  5>
|  6> %scf
|  7> MaxIter 1000
|  8> end
|  9>
| 10> * xyz 0 1
| 11>   C                      -9.951513            -10.281393           7.497342
| 12>   O                      -9.276138            -9.266810            6.843790
| 13>   H                      -8.815560            -8.762262            7.546139
| 14>   H                      -11.039121           -10.246626           7.273744
| 15>   H                      -9.426906            -11.213108           7.173774
| 16>   H                      -9.783525            -10.291402           8.602816
| 17>   C                      -6.546638            -8.521955            5.114871
| 18>   O                      -7.399952            -9.493348            4.657832
| 19>   H                      -8.075278            -9.706095            5.357748
| 20>   H                      -7.118130            -7.541197            4.996308
| 21>   H                      -6.100771            -8.747694            6.103445
| 22>   H                      -5.678386            -8.451725            4.465441
| 23> *
| 24>
| 25> #Run DFT-D3 single point of the molecule with dimer basis set
| 26> $new_job
| 27> %base "7-183_DFT_A"
| 28> ! wB97X-D3 def2-TZVP TIGHTSCF CHELPG PMODEL
| 29>
| 30> %scf
| 31> MaxIter 1000
| 32> end
| 33>
| 34> * xyz 0 1
| 35>   C                      -9.951513            -10.281393           7.497342
| 36>   O                      -9.276138            -9.266810            6.843790
| 37>   H                      -8.815560            -8.762262            7.546139
| 38>   H                      -11.039121           -10.246626           7.273744
| 39>   H                      -9.426906            -11.213108           7.173774
| 40>   H                      -9.783525            -10.291402           8.602816
| 41>   C                    : -6.546638            -8.521955            5.114871
| 42>   O                    : -7.399952            -9.493348            4.657832
| 43>   H                    : -8.075278            -9.706095            5.357748
| 44>   H                    : -7.118130            -7.541197            4.996308
| 45>   H                    : -6.100771            -8.747694            6.103445
| 46>   H                    : -5.678386            -8.451725            4.465441
| 47> *
| 48>
| 49> #Run DFT-D3 single point of the particle with dimer basis set
| 50> $new_job
| 51> %base "7-183_DFT_B"
| 52> ! wB97X-D3 def2-TZVP TIGHTSCF CHELPG PMODEL
| 53>
| 54> %scf
| 55> MaxIter 1000
| 56> end
| 57>
| 58> * xyz 0 1
| 59>   C                    : -9.951513            -10.281393           7.497342
| 60>   O                    : -9.276138            -9.266810            6.843790
| 61>   H                    : -8.815560            -8.762262            7.546139
| 62>   H                    : -11.039121           -10.246626           7.273744
| 63>   H                    : -9.426906            -11.213108           7.173774
| 64>   H                    : -9.783525            -10.291402           8.602816
| 65>   C                      -6.546638            -8.521955            5.114871
| 66>   O                      -7.399952            -9.493348            4.657832
| 67>   H                      -8.075278            -9.706095            5.357748
| 68>   H                      -7.118130            -7.541197            4.996308
| 69>   H                      -6.100771            -8.747694            6.103445
| 70>   H                      -5.678386            -8.451725            4.465441
| 71> *
| 72>
| 73>                          ****END OF INPUT****
 Total Charge           Charge          ....    0
 Multiplicity           Mult            ....    1
 Number of Electrons    NEL             ....   36
Dispersion correction           -0.001848152
FINAL SINGLE POINT ENERGY      -231.468138187438
Dispersion correction           -0.000233007
FINAL SINGLE POINT ENERGY      -115.730399852839

CARTESIAN COORDINATES (ANGSTROEM)
---------------------------------
  C     -9.951513  -10.281393    7.497342
  O     -9.276138   -9.266810    6.843790
  H     -8.815560   -8.762262    7.546139
  H    -11.039121  -10.246626    7.273744
  H     -9.426906  -11.213108    7.173774
  H     -9.783525  -10.291402    8.602816
  C     -6.546638   -8.521955    5.114871
  O     -7.399952   -9.493348    4.657832
  H     -8.075278   -9.706095    5.357748
  H     -7.118130   -7.541197    4.996308
  H     -6.100771   -8.747694    6.103445
  H     -5.678386   -8.451725    4.465441

 Multiplicity           Mult            ....    1
 Number of Electrons    NEL             ....   18
 Basis Dimension        Dim             ....  172

ORBITAL ENERGIES
----------------

  NO   OCC          E(Eh)            E(eV)
   0   2.0000     -19.231381      -523.3125
   1   2.0000     -10.314290      -280.6661
   2   2.0000      -1.142865       -31.0989
   3   2.0000      -0.787577       -21.4311
   4   2.0000      -0.608331       -16.5535
   5   2.0000      -0.551129       -14.9970
   6   2.0000      -0.531530       -14.4637
   7   2.0000      -0.420606       -11.4453
   8   2.0000      -0.369130       -10.0445
   9   0.0000       0.067355         1.8328
  10   0.0000       0.130454         3.5498
  11   0.0000       0.150794         4.1033
  12   0.0000       0.174568         4.7502
  13   0.0000       0.184357         5.0166

MULLIKEN ATOMIC CHARGES
-----------------------
   0 C :   -0.002216
   1 O :   -0.004466
   2 H :    0.000360
   3 H :    0.000079
   4 H :   -0.000723
   5 H :    0.000039
   6 C :   -0.157680
   7 O :   -0.467653
   8 H :    0.320245
   9 H :    0.096854
  10 H :    0.098450
  11 H :    0.116710
Sum of atomic charges:   -0.0000000

LOEWDIN ATOMIC CHARGES
----------------------
   0 C :   -0.003841
   1 O :   -0.019622
   2 H :   -0.001710
   3 H :   -0.000071
   4 H :   -0.000936
   5 H :   -0.000051
   6 C :   -0.427739
   7 O :   -0.054230
   8 H :    0.201466
   9 H :    0.104818
  10 H :    0.096891
  11 H :    0.105025

  Mayer bond orders larger than 0.1
B(  6-C ,  7-O ) :   0.9939 B(  6-C ,  9-H ) :   0.9853 B(  6-C , 10-H ) :   0.9733
B(  6-C , 11-H ) :   0.9711 B(  7-O ,  8-H ) :   0.8970

Dispersion correction           -0.000233290
FINAL SINGLE POINT ENERGY      -115.730009827441

DIPOLE MOMENT
-------------
                                X             Y             Z
Electronic contribution:     -1.02376      -1.32438      -0.64969
Nuclear contribution   :      0.94834       1.51881       1.23288
                        -----------------------------------------
Total Dipole Moment    :     -0.07542       0.19443       0.58319
                        -----------------------------------------
Magnitude (a.u.)       :      0.61935
Magnitude (Debye)      :      1.57427

Rotational constants in cm-1:     4.116668     0.861920     0.846017
Rotational constants in MHz : 123414.596595 25839.721510 25362.953747

                             ****ORCA TERMINATED NORMALLY****
TOTAL RUN TIME: 0 days 0 hours 1 minutes 9 seconds 517 msec
