                         Program Version 4.1.2  - RELEASE  -
|  1> #Run DFT-D3 single point of the dimer
|  2> ! wB97X-D3 def2-TZVP TIGHTSCF CHELPG PMODEL PAL8
|  3>
|  4> %base "3-197_DFT_AB"
|  5>
|  6> %scf
|  7> MaxIter 1000
|  8> end
|  9>
| 10> * xyz 0 1
| 11>   C                      1.126425             -7.979691            8.688435
| 12>   O                      0.167515             -7.011438            8.689688
| 13>   H                      -0.711181            -7.413790            8.442444
| 14>   H                      1.685178             -7.866956            9.647331
| 15>   H                      0.695395             -8.997913            8.613979
| 16>   H                      1.773083             -7.918611            7.867989
| 17>   C                      0.950948             -3.319941            8.340230
| 18>   O                      1.689084             -4.526680            8.530754
| 19>   H                      1.756726             -4.672052            9.437307
| 20>   H                      0.546774             -3.197701            7.363918
| 21>   H                      0.064719             -3.277361            8.944016
| 22>   H                      1.442575             -2.422004            8.557518
| 23> *
| 24>
| 25> #Run DFT-D3 single point of the molecule with dimer basis set
| 26> $new_job
| 27> %base "3-197_DFT_A"
| 28> ! wB97X-D3 def2-TZVP TIGHTSCF CHELPG PMODEL
| 29>
| 30> %scf
| 31> MaxIter 1000
| 32> end
| 33>
| 34> * xyz 0 1
| 35>   C                      1.126425             -7.979691            8.688435
| 36>   O                      0.167515             -7.011438            8.689688
| 37>   H                      -0.711181            -7.413790            8.442444
| 38>   H                      1.685178             -7.866956            9.647331
| 39>   H                      0.695395             -8.997913            8.613979
| 40>   H                      1.773083             -7.918611            7.867989
| 41>   C                    : 0.950948             -3.319941            8.340230
| 42>   O                    : 1.689084             -4.526680            8.530754
| 43>   H                    : 1.756726             -4.672052            9.437307
| 44>   H                    : 0.546774             -3.197701            7.363918
| 45>   H                    : 0.064719             -3.277361            8.944016
| 46>   H                    : 1.442575             -2.422004            8.557518
| 47> *
| 48>
| 49> #Run DFT-D3 single point of the particle with dimer basis set
| 50> $new_job
| 51> %base "3-197_DFT_B"
| 52> ! wB97X-D3 def2-TZVP TIGHTSCF CHELPG PMODEL
| 53>
| 54> %scf
| 55> MaxIter 1000
| 56> end
| 57>
| 58> * xyz 0 1
| 59>   C                    : 1.126425             -7.979691            8.688435
| 60>   O                    : 0.167515             -7.011438            8.689688
| 61>   H                    : -0.711181            -7.413790            8.442444
| 62>   H                    : 1.685178             -7.866956            9.647331
| 63>   H                    : 0.695395             -8.997913            8.613979
| 64>   H                    : 1.773083             -7.918611            7.867989
| 65>   C                      0.950948             -3.319941            8.340230
| 66>   O                      1.689084             -4.526680            8.530754
| 67>   H                      1.756726             -4.672052            9.437307
| 68>   H                      0.546774             -3.197701            7.363918
| 69>   H                      0.064719             -3.277361            8.944016
| 70>   H                      1.442575             -2.422004            8.557518
| 71> *
| 72>
| 73>                          ****END OF INPUT****
 Total Charge           Charge          ....    0
 Multiplicity           Mult            ....    1
 Number of Electrons    NEL             ....   36
Dispersion correction           -0.001643018
FINAL SINGLE POINT ENERGY      -231.457048480492
Dispersion correction           -0.000227882
FINAL SINGLE POINT ENERGY      -115.729732994435

CARTESIAN COORDINATES (ANGSTROEM)
---------------------------------
  C      1.126425   -7.979691    8.688435
  O      0.167515   -7.011438    8.689688
  H     -0.711181   -7.413790    8.442444
  H      1.685178   -7.866956    9.647331
  H      0.695395   -8.997913    8.613979
  H      1.773083   -7.918611    7.867989
  C      0.950948   -3.319941    8.340230
  O      1.689084   -4.526680    8.530754
  H      1.756726   -4.672052    9.437307
  H      0.546774   -3.197701    7.363918
  H      0.064719   -3.277361    8.944016
  H      1.442575   -2.422004    8.557518

 Multiplicity           Mult            ....    1
 Number of Electrons    NEL             ....   18
 Basis Dimension        Dim             ....  172

ORBITAL ENERGIES
----------------

  NO   OCC          E(Eh)            E(eV)
   0   2.0000     -19.230744      -523.2951
   1   2.0000     -10.304324      -280.3949
   2   2.0000      -1.141923       -31.0733
   3   2.0000      -0.811504       -22.0821
   4   2.0000      -0.619473       -16.8567
   5   2.0000      -0.542543       -14.7633
   6   2.0000      -0.530941       -14.4476
   7   2.0000      -0.437804       -11.9133
   8   2.0000      -0.379537       -10.3277
   9   0.0000       0.090478         2.4620
  10   0.0000       0.129203         3.5158
  11   0.0000       0.149969         4.0809
  12   0.0000       0.175020         4.7625
  13   0.0000       0.200607         5.4588

MULLIKEN ATOMIC CHARGES
-----------------------
   0 C :   -0.006582
   1 O :    0.000337
   2 H :    0.000001
   3 H :   -0.000300
   4 H :   -0.000132
   5 H :   -0.000636
   6 C :   -0.169170
   7 O :   -0.463848
   8 H :    0.309562
   9 H :    0.120485
  10 H :    0.102383
  11 H :    0.107900
Sum of atomic charges:   -0.0000000

LOEWDIN ATOMIC CHARGES
----------------------
   0 C :   -0.006771
   1 O :   -0.010335
   2 H :   -0.000558
   3 H :   -0.000491
   4 H :   -0.000119
   5 H :   -0.000895
   6 C :   -0.366325
   7 O :   -0.045227
   8 H :    0.144504
   9 H :    0.104571
  10 H :    0.094569
  11 H :    0.087076

  Mayer bond orders larger than 0.1
B(  6-C ,  7-O ) :   0.9997 B(  6-C ,  9-H ) :   0.9777 B(  6-C , 10-H ) :   0.9836
B(  6-C , 11-H ) :   0.9716 B(  7-O ,  8-H ) :   0.9075

Dispersion correction           -0.000246817
FINAL SINGLE POINT ENERGY      -115.729743772902

DIPOLE MOMENT
-------------
                                X             Y             Z
Electronic contribution:      1.09402      -1.58710       0.09309
Nuclear contribution   :     -1.37190       2.01505       0.41640
                        -----------------------------------------
Total Dipole Moment    :     -0.27787       0.42795       0.50948
                        -----------------------------------------
Magnitude (a.u.)       :      0.72106
Magnitude (Debye)      :      1.83279

Rotational constants in cm-1:     4.796923     0.811627     0.785836
Rotational constants in MHz : 143808.135773 24331.952481 23558.774740

                             ****ORCA TERMINATED NORMALLY****
TOTAL RUN TIME: 0 days 0 hours 6 minutes 17 seconds 942 msec
