                         Program Version 4.1.2  - RELEASE  -
|  1> #Run DFT-D3 single point of the dimer
|  2> ! wB97X-D3 def2-TZVP TIGHTSCF CHELPG PMODEL PAL8
|  3>
|  4> %base "3-13_DFT_AB"
|  5>
|  6> %scf
|  7> MaxIter 1000
|  8> end
|  9>
| 10> * xyz 0 1
| 11>   C                      0.141561             6.247437             4.342902
| 12>   O                      -0.671210            6.055133             5.470995
| 13>   H                      -0.143852            5.652897             6.120910
| 14>   H                      0.997028             6.871239             4.544806
| 15>   H                      0.411989             5.326716             3.898990
| 16>   H                      -0.387381            6.739469             3.540981
| 17>   C                      -2.458285            10.967730            3.713155
| 18>   O                      -1.115640            10.801903            3.545610
| 19>   H                      -0.781288            11.672776            3.636155
| 20>   H                      -3.014142            9.977026             3.960035
| 21>   H                      -2.852818            11.591613            4.525997
| 22>   H                      -2.997046            11.406928            2.910698
| 23> *
| 24>
| 25> #Run DFT-D3 single point of the molecule with dimer basis set
| 26> $new_job
| 27> %base "3-13_DFT_A"
| 28> ! wB97X-D3 def2-TZVP TIGHTSCF CHELPG PMODEL
| 29>
| 30> %scf
| 31> MaxIter 1000
| 32> end
| 33>
| 34> * xyz 0 1
| 35>   C                      0.141561             6.247437             4.342902
| 36>   O                      -0.671210            6.055133             5.470995
| 37>   H                      -0.143852            5.652897             6.120910
| 38>   H                      0.997028             6.871239             4.544806
| 39>   H                      0.411989             5.326716             3.898990
| 40>   H                      -0.387381            6.739469             3.540981
| 41>   C                    : -2.458285            10.967730            3.713155
| 42>   O                    : -1.115640            10.801903            3.545610
| 43>   H                    : -0.781288            11.672776            3.636155
| 44>   H                    : -3.014142            9.977026             3.960035
| 45>   H                    : -2.852818            11.591613            4.525997
| 46>   H                    : -2.997046            11.406928            2.910698
| 47> *
| 48>
| 49> #Run DFT-D3 single point of the particle with dimer basis set
| 50> $new_job
| 51> %base "3-13_DFT_B"
| 52> ! wB97X-D3 def2-TZVP TIGHTSCF CHELPG PMODEL
| 53>
| 54> %scf
| 55> MaxIter 1000
| 56> end
| 57>
| 58> * xyz 0 1
| 59>   C                    : 0.141561             6.247437             4.342902
| 60>   O                    : -0.671210            6.055133             5.470995
| 61>   H                    : -0.143852            5.652897             6.120910
| 62>   H                    : 0.997028             6.871239             4.544806
| 63>   H                    : 0.411989             5.326716             3.898990
| 64>   H                    : -0.387381            6.739469             3.540981
| 65>   C                      -2.458285            10.967730            3.713155
| 66>   O                      -1.115640            10.801903            3.545610
| 67>   H                      -0.781288            11.672776            3.636155
| 68>   H                      -3.014142            9.977026             3.960035
| 69>   H                      -2.852818            11.591613            4.525997
| 70>   H                      -2.997046            11.406928            2.910698
| 71> *
| 72>
| 73>                          ****END OF INPUT****
 Total Charge           Charge          ....    0
 Multiplicity           Mult            ....    1
 Number of Electrons    NEL             ....   36
Dispersion correction           -0.000722981
FINAL SINGLE POINT ENERGY      -231.458648983935
Dispersion correction           -0.000225441
FINAL SINGLE POINT ENERGY      -115.733617236910

CARTESIAN COORDINATES (ANGSTROEM)
---------------------------------
  C      0.141561    6.247437    4.342902
  O     -0.671210    6.055133    5.470995
  H     -0.143852    5.652897    6.120910
  H      0.997028    6.871239    4.544806
  H      0.411989    5.326716    3.898990
  H     -0.387381    6.739469    3.540981
  C     -2.458285   10.967730    3.713155
  O     -1.115640   10.801903    3.545610
  H     -0.781288   11.672776    3.636155
  H     -3.014142    9.977026    3.960035
  H     -2.852818   11.591613    4.525997
  H     -2.997046   11.406928    2.910698

 Multiplicity           Mult            ....    1
 Number of Electrons    NEL             ....   18
 Basis Dimension        Dim             ....  172

ORBITAL ENERGIES
----------------

  NO   OCC          E(Eh)            E(eV)
   0   2.0000     -19.239248      -523.5266
   1   2.0000     -10.312627      -280.6209
   2   2.0000      -1.165939       -31.7268
   3   2.0000      -0.795991       -21.6600
   4   2.0000      -0.634055       -17.2535
   5   2.0000      -0.542821       -14.7709
   6   2.0000      -0.530520       -14.4362
   7   2.0000      -0.431913       -11.7529
   8   2.0000      -0.376355       -10.2411
   9   0.0000       0.093547         2.5455
  10   0.0000       0.117526         3.1980
  11   0.0000       0.149687         4.0732
  12   0.0000       0.170888         4.6501
  13   0.0000       0.184395         5.0176

MULLIKEN ATOMIC CHARGES
-----------------------
   0 C :   -0.000185
   1 O :    0.000021
   2 H :    0.000002
   3 H :   -0.000004
   4 H :   -0.000035
   5 H :   -0.000389
   6 C :   -0.187570
   7 O :   -0.437584
   8 H :    0.315254
   9 H :    0.109491
  10 H :    0.099070
  11 H :    0.101929
Sum of atomic charges:    0.0000000

LOEWDIN ATOMIC CHARGES
----------------------
   0 C :   -0.000195
   1 O :   -0.000008
   2 H :   -0.000000
   3 H :   -0.000036
   4 H :   -0.000007
   5 H :   -0.000118
   6 C :   -0.447765
   7 O :   -0.015333
   8 H :    0.166163
   9 H :    0.119556
  10 H :    0.093291
  11 H :    0.084453

  Mayer bond orders larger than 0.1
B(  6-C ,  7-O ) :   1.0169 B(  6-C ,  9-H ) :   0.9751 B(  6-C , 10-H ) :   0.9727
B(  6-C , 11-H ) :   0.9722 B(  7-O ,  8-H ) :   0.9018

Dispersion correction           -0.000241887
FINAL SINGLE POINT ENERGY      -115.724695663142

DIPOLE MOMENT
-------------
                                X             Y             Z
Electronic contribution:      2.10035      -0.30739      -0.33687
Nuclear contribution   :     -2.35191       0.94671       0.46046
                        -----------------------------------------
Total Dipole Moment    :     -0.25156       0.63933       0.12358
                        -----------------------------------------
Magnitude (a.u.)       :      0.69807
Magnitude (Debye)      :      1.77434

Rotational constants in cm-1:     4.537900     0.865051     0.824344
Rotational constants in MHz : 136042.830804 25933.591193 24713.212684

                             ****ORCA TERMINATED NORMALLY****
TOTAL RUN TIME: 0 days 0 hours 5 minutes 50 seconds 510 msec
