                         Program Version 4.1.2  - RELEASE  -
|  1> #Run DFT-D3 single point of the dimer
|  2> ! wB97X-D3 def2-TZVP TIGHTSCF CHELPG PMODEL PAL8
|  3>
|  4> %base "20-90_DFT_AB"
|  5>
|  6> %scf
|  7> MaxIter 1000
|  8> end
|  9>
| 10> * xyz 0 1
| 11>   C                      -5.619514            -0.230082            9.710258
| 12>   O                      -5.919557            0.391140             10.949691
| 13>   H                      -5.148180            1.017697             11.036180
| 14>   H                      -6.402927            -0.922974            9.360529
| 15>   H                      -5.635728            0.617874             8.986753
| 16>   H                      -4.641547            -0.829193            9.755749
| 17>   C                      -3.568571            -0.794082            6.539326
| 18>   O                      -4.726504            -0.588247            5.801819
| 19>   H                      -5.423464            -1.013772            6.340919
| 20>   H                      -3.615336            -1.698133            7.213197
| 21>   H                      -2.745506            -0.996332            5.876634
| 22>   H                      -3.350459            0.093289             7.137578
| 23> *
| 24>
| 25> #Run DFT-D3 single point of the molecule with dimer basis set
| 26> $new_job
| 27> %base "20-90_DFT_A"
| 28> ! wB97X-D3 def2-TZVP TIGHTSCF CHELPG PMODEL
| 29>
| 30> %scf
| 31> MaxIter 1000
| 32> end
| 33>
| 34> * xyz 0 1
| 35>   C                      -5.619514            -0.230082            9.710258
| 36>   O                      -5.919557            0.391140             10.949691
| 37>   H                      -5.148180            1.017697             11.036180
| 38>   H                      -6.402927            -0.922974            9.360529
| 39>   H                      -5.635728            0.617874             8.986753
| 40>   H                      -4.641547            -0.829193            9.755749
| 41>   C                    : -3.568571            -0.794082            6.539326
| 42>   O                    : -4.726504            -0.588247            5.801819
| 43>   H                    : -5.423464            -1.013772            6.340919
| 44>   H                    : -3.615336            -1.698133            7.213197
| 45>   H                    : -2.745506            -0.996332            5.876634
| 46>   H                    : -3.350459            0.093289             7.137578
| 47> *
| 48>
| 49> #Run DFT-D3 single point of the particle with dimer basis set
| 50> $new_job
| 51> %base "20-90_DFT_B"
| 52> ! wB97X-D3 def2-TZVP TIGHTSCF CHELPG PMODEL
| 53>
| 54> %scf
| 55> MaxIter 1000
| 56> end
| 57>
| 58> * xyz 0 1
| 59>   C                    : -5.619514            -0.230082            9.710258
| 60>   O                    : -5.919557            0.391140             10.949691
| 61>   H                    : -5.148180            1.017697             11.036180
| 62>   H                    : -6.402927            -0.922974            9.360529
| 63>   H                    : -5.635728            0.617874             8.986753
| 64>   H                    : -4.641547            -0.829193            9.755749
| 65>   C                      -3.568571            -0.794082            6.539326
| 66>   O                      -4.726504            -0.588247            5.801819
| 67>   H                      -5.423464            -1.013772            6.340919
| 68>   H                      -3.615336            -1.698133            7.213197
| 69>   H                      -2.745506            -0.996332            5.876634
| 70>   H                      -3.350459            0.093289             7.137578
| 71> *
| 72>
| 73>                          ****END OF INPUT****
 Total Charge           Charge          ....    0
 Multiplicity           Mult            ....    1
 Number of Electrons    NEL             ....   36
Dispersion correction           -0.001762256
FINAL SINGLE POINT ENERGY      -231.463090549620
Dispersion correction           -0.000228326
FINAL SINGLE POINT ENERGY      -115.728475013534

CARTESIAN COORDINATES (ANGSTROEM)
---------------------------------
  C     -5.619514   -0.230082    9.710258
  O     -5.919557    0.391140   10.949691
  H     -5.148180    1.017697   11.036180
  H     -6.402927   -0.922974    9.360529
  H     -5.635728    0.617874    8.986753
  H     -4.641547   -0.829193    9.755749
  C     -3.568571   -0.794082    6.539326
  O     -4.726504   -0.588247    5.801819
  H     -5.423464   -1.013772    6.340919
  H     -3.615336   -1.698133    7.213197
  H     -2.745506   -0.996332    5.876634
  H     -3.350459    0.093289    7.137578

 Multiplicity           Mult            ....    1
 Number of Electrons    NEL             ....   18
 Basis Dimension        Dim             ....  172

ORBITAL ENERGIES
----------------

  NO   OCC          E(Eh)            E(eV)
   0   2.0000     -19.233072      -523.3585
   1   2.0000     -10.311634      -280.5938
   2   2.0000      -1.144486       -31.1431
   3   2.0000      -0.789761       -21.4905
   4   2.0000      -0.612140       -16.6572
   5   2.0000      -0.548997       -14.9390
   6   2.0000      -0.527192       -14.3456
   7   2.0000      -0.433290       -11.7904
   8   2.0000      -0.373086       -10.1522
   9   0.0000       0.072742         1.9794
  10   0.0000       0.120742         3.2855
  11   0.0000       0.151865         4.1325
  12   0.0000       0.169941         4.6243
  13   0.0000       0.187234         5.0949

MULLIKEN ATOMIC CHARGES
-----------------------
   0 C :    0.001319
   1 O :    0.000032
   2 H :    0.000022
   3 H :   -0.000227
   4 H :   -0.000602
   5 H :   -0.002217
   6 C :   -0.176651
   7 O :   -0.464732
   8 H :    0.319701
   9 H :    0.098706
  10 H :    0.120327
  11 H :    0.104321
Sum of atomic charges:   -0.0000000

LOEWDIN ATOMIC CHARGES
----------------------
   0 C :   -0.003476
   1 O :   -0.000022
   2 H :   -0.000005
   3 H :   -0.000277
   4 H :   -0.000909
   5 H :   -0.001729
   6 C :   -0.411195
   7 O :   -0.065074
   8 H :    0.185172
   9 H :    0.101321
  10 H :    0.100317
  11 H :    0.095876

  Mayer bond orders larger than 0.1
B(  6-C ,  7-O ) :   1.0034 B(  6-C ,  9-H ) :   0.9839 B(  6-C , 10-H ) :   0.9751
B(  6-C , 11-H ) :   0.9768 B(  7-O ,  8-H ) :   0.8990

Dispersion correction           -0.000229054
FINAL SINGLE POINT ENERGY      -115.733663229158

DIPOLE MOMENT
-------------
                                X             Y             Z
Electronic contribution:     -1.45782       0.38537      -1.12076
Nuclear contribution   :      1.45583      -0.74368       1.71336
                        -----------------------------------------
Total Dipole Moment    :     -0.00199      -0.35832       0.59260
                        -----------------------------------------
Magnitude (a.u.)       :      0.69251
Magnitude (Debye)      :      1.76022

Rotational constants in cm-1:     4.196401     0.859112     0.827583
Rotational constants in MHz : 125804.932055 25755.527457 24810.300430

                             ****ORCA TERMINATED NORMALLY****
TOTAL RUN TIME: 0 days 0 hours 0 minutes 51 seconds 428 msec
