                         Program Version 4.1.2  - RELEASE  -
|  1> #Run DFT-D3 single point of the dimer
|  2> ! wB97X-D3 def2-TZVP TIGHTSCF  CHELPG PAL8
|  3>
|  4> %base "63_charges"
|  5>
|  6> %scf
|  7> MaxIter 1000
|  8> end
|  9> %output
| 10>   Print[ P_Mayer ] 1
| 11>   Print[ P_NatPop ] 1
| 12>   Print[ P_Hirshfeld ] 1
| 13>   Print[ P_Mulliken ] 1
| 14>   Print [ P_Loewdin ] 1
| 15> end
| 16>
| 17> * xyz 0 1
| 18>   C                      -9.971029            10.712221            -1.637117
| 19>   O                      -9.698350            12.034304            -1.135220
| 20>   H                      -9.308766            11.889900            -0.273848
| 21>   H                      -9.155551            9.983718             -1.596313
| 22>   H                      -10.851314           10.272460            -1.114591
| 23>   H                      -10.232360           10.832801            -2.726006
| 24> *
| 25>
| 26>                          ****END OF INPUT****

CARTESIAN COORDINATES (ANGSTROEM)
---------------------------------
  C     -9.971029   10.712221   -1.637117
  O     -9.698350   12.034304   -1.135220
  H     -9.308766   11.889900   -0.273848
  H     -9.155551    9.983718   -1.596313
  H    -10.851314   10.272460   -1.114591
  H    -10.232360   10.832801   -2.726006

 Total Charge           Charge          ....    0
 Multiplicity           Mult            ....    1
 Number of Electrons    NEL             ....   18
 Basis Dimension        Dim             ....   86

ORBITAL ENERGIES
----------------

  NO   OCC          E(Eh)            E(eV)
   0   2.0000     -19.233160      -523.3609
   1   2.0000     -10.320578      -280.8372
   2   2.0000      -1.132401       -30.8142
   3   2.0000      -0.791829       -21.5468
   4   2.0000      -0.607792       -16.5389
   5   2.0000      -0.537437       -14.6244
   6   2.0000      -0.516150       -14.0451
   7   2.0000      -0.440382       -11.9834
   8   2.0000      -0.376609       -10.2480
   9   0.0000       0.115805         3.1512
  10   0.0000       0.151833         4.1316
  11   0.0000       0.194482         5.2921
  12   0.0000       0.202252         5.5036
  13   0.0000       0.226214         6.1556

MULLIKEN ATOMIC CHARGES
-----------------------
   0 C :   -0.175724
   1 O :   -0.467420
   2 H :    0.311767
   3 H :    0.109076
   4 H :    0.103077
   5 H :    0.119223
Sum of atomic charges:   -0.0000000

LOEWDIN ATOMIC CHARGES
----------------------
   0 C :   -0.379213
   1 O :   -0.091783
   2 H :    0.164547
   3 H :    0.093005
   4 H :    0.097964
   5 H :    0.115481

  Mayer bond orders larger than 0.1
B(  0-C ,  1-O ) :   1.0017 B(  0-C ,  3-H ) :   0.9672 B(  0-C ,  4-H ) :   0.9741
B(  0-C ,  5-H ) :   0.9755 B(  1-O ,  2-H ) :   0.9036

Dispersion correction           -0.000259110
FINAL SINGLE POINT ENERGY      -115.734767156535

DIPOLE MOMENT
-------------
                                X             Y             Z
Electronic contribution:      0.37774       1.74553       0.58295
Nuclear contribution   :     -0.23341      -2.36095      -0.25009
                        -----------------------------------------
Total Dipole Moment    :      0.14433      -0.61542       0.33285
                        -----------------------------------------
Magnitude (a.u.)       :      0.71440
Magnitude (Debye)      :      1.81585

Rotational constants in cm-1:     4.187256     0.804856     0.775770
Rotational constants in MHz : 125530.767261 24128.984815 23257.009041

                             ****ORCA TERMINATED NORMALLY****
TOTAL RUN TIME: 0 days 0 hours 0 minutes 41 seconds 283 msec
