                         Program Version 4.1.2  - RELEASE  -
|  1> #Run DFT-D3 single point of the dimer
|  2> ! wB97X-D3 def2-TZVP TIGHTSCF CHELPG PMODEL PAL8
|  3>
|  4> %base "3-92_DFT_AB"
|  5>
|  6> %scf
|  7> MaxIter 1000
|  8> end
|  9>
| 10> * xyz 0 1
| 11>   C                      -1.179622            -0.680025            6.462159
| 12>   O                      -1.994517            0.038928             7.405688
| 13>   H                      -2.109912            0.907878             7.079844
| 14>   H                      -0.109920            -0.503745            6.727623
| 15>   H                      -1.354234            -1.756892            6.522703
| 16>   H                      -1.366128            -0.313220            5.402350
| 17>   C                      -5.006678            3.473235             5.282168
| 18>   O                      -3.904577            3.294647             6.106569
| 19>   H                      -3.139534            2.854562             5.646487
| 20>   H                      -5.948990            3.414311             5.817788
| 21>   H                      -4.871574            4.409236             4.792176
| 22>   H                      -5.065093            2.613388             4.563416
| 23> *
| 24>
| 25> #Run DFT-D3 single point of the molecule with dimer basis set
| 26> $new_job
| 27> %base "3-92_DFT_A"
| 28> ! wB97X-D3 def2-TZVP TIGHTSCF CHELPG PMODEL
| 29>
| 30> %scf
| 31> MaxIter 1000
| 32> end
| 33>
| 34> * xyz 0 1
| 35>   C                      -1.179622            -0.680025            6.462159
| 36>   O                      -1.994517            0.038928             7.405688
| 37>   H                      -2.109912            0.907878             7.079844
| 38>   H                      -0.109920            -0.503745            6.727623
| 39>   H                      -1.354234            -1.756892            6.522703
| 40>   H                      -1.366128            -0.313220            5.402350
| 41>   C                    : -5.006678            3.473235             5.282168
| 42>   O                    : -3.904577            3.294647             6.106569
| 43>   H                    : -3.139534            2.854562             5.646487
| 44>   H                    : -5.948990            3.414311             5.817788
| 45>   H                    : -4.871574            4.409236             4.792176
| 46>   H                    : -5.065093            2.613388             4.563416
| 47> *
| 48>
| 49> #Run DFT-D3 single point of the particle with dimer basis set
| 50> $new_job
| 51> %base "3-92_DFT_B"
| 52> ! wB97X-D3 def2-TZVP TIGHTSCF CHELPG PMODEL
| 53>
| 54> %scf
| 55> MaxIter 1000
| 56> end
| 57>
| 58> * xyz 0 1
| 59>   C                    : -1.179622            -0.680025            6.462159
| 60>   O                    : -1.994517            0.038928             7.405688
| 61>   H                    : -2.109912            0.907878             7.079844
| 62>   H                    : -0.109920            -0.503745            6.727623
| 63>   H                    : -1.354234            -1.756892            6.522703
| 64>   H                    : -1.366128            -0.313220            5.402350
| 65>   C                      -5.006678            3.473235             5.282168
| 66>   O                      -3.904577            3.294647             6.106569
| 67>   H                      -3.139534            2.854562             5.646487
| 68>   H                      -5.948990            3.414311             5.817788
| 69>   H                      -4.871574            4.409236             4.792176
| 70>   H                      -5.065093            2.613388             4.563416
| 71> *
| 72>
| 73>                          ****END OF INPUT****
 Total Charge           Charge          ....    0
 Multiplicity           Mult            ....    1
 Number of Electrons    NEL             ....   36
Dispersion correction           -0.001087855
FINAL SINGLE POINT ENERGY      -231.464088140989
Dispersion correction           -0.000253585
FINAL SINGLE POINT ENERGY      -115.733901119306

CARTESIAN COORDINATES (ANGSTROEM)
---------------------------------
  C     -1.179622   -0.680025    6.462159
  O     -1.994517    0.038928    7.405688
  H     -2.109912    0.907878    7.079844
  H     -0.109920   -0.503745    6.727623
  H     -1.354234   -1.756892    6.522703
  H     -1.366128   -0.313220    5.402350
  C     -5.006678    3.473235    5.282168
  O     -3.904577    3.294647    6.106569
  H     -3.139534    2.854562    5.646487
  H     -5.948990    3.414311    5.817788
  H     -4.871574    4.409236    4.792176
  H     -5.065093    2.613388    4.563416

 Multiplicity           Mult            ....    1
 Number of Electrons    NEL             ....   18
 Basis Dimension        Dim             ....  172

ORBITAL ENERGIES
----------------

  NO   OCC          E(Eh)            E(eV)
   0   2.0000     -19.227444      -523.2054
   1   2.0000     -10.309695      -280.5411
   2   2.0000      -1.133858       -30.8539
   3   2.0000      -0.792631       -21.5686
   4   2.0000      -0.607136       -16.5210
   5   2.0000      -0.556002       -15.1296
   6   2.0000      -0.529615       -14.4116
   7   2.0000      -0.416907       -11.3446
   8   2.0000      -0.370677       -10.0866
   9   0.0000       0.078568         2.1380
  10   0.0000       0.117790         3.2052
  11   0.0000       0.153315         4.1719
  12   0.0000       0.181886         4.9494
  13   0.0000       0.196810         5.3555

MULLIKEN ATOMIC CHARGES
-----------------------
   0 C :    0.000595
   1 O :    0.000608
   2 H :   -0.005614
   3 H :   -0.000035
   4 H :    0.000004
   5 H :   -0.000253
   6 C :   -0.145963
   7 O :   -0.489793
   8 H :    0.326405
   9 H :    0.115760
  10 H :    0.105734
  11 H :    0.092552
Sum of atomic charges:    0.0000000

LOEWDIN ATOMIC CHARGES
----------------------
   0 C :   -0.000135
   1 O :   -0.000242
   2 H :   -0.003979
   3 H :   -0.000001
   4 H :   -0.000002
   5 H :   -0.000097
   6 C :   -0.400349
   7 O :   -0.080587
   8 H :    0.190745
   9 H :    0.104305
  10 H :    0.090769
  11 H :    0.099573

  Mayer bond orders larger than 0.1
B(  6-C ,  7-O ) :   0.9958 B(  6-C ,  9-H ) :   0.9677 B(  6-C , 10-H ) :   0.9820
B(  6-C , 11-H ) :   0.9875 B(  7-O ,  8-H ) :   0.8832

Dispersion correction           -0.000230563
FINAL SINGLE POINT ENERGY      -115.730775832226

DIPOLE MOMENT
-------------
                                X             Y             Z
Electronic contribution:      1.27604      -0.05821       1.17425
Nuclear contribution   :     -1.23603      -0.15966      -1.79175
                        -----------------------------------------
Total Dipole Moment    :      0.04001      -0.21787      -0.61750
                        -----------------------------------------
Magnitude (a.u.)       :      0.65603
Magnitude (Debye)      :      1.66750

Rotational constants in cm-1:     4.270333     0.851932     0.827406
Rotational constants in MHz : 128021.369852 25540.270240 24805.020322

                             ****ORCA TERMINATED NORMALLY****
TOTAL RUN TIME: 0 days 0 hours 6 minutes 15 seconds 808 msec
