                         Program Version 4.1.2  - RELEASE  -
|  1> #Run DFT-D3 single point of the dimer
|  2> ! wB97X-D3 def2-TZVP TIGHTSCF CHELPG PMODEL PAL8
|  3>
|  4> %base "19-45_DFT_AB"
|  5>
|  6> %scf
|  7> MaxIter 1000
|  8> end
|  9>
| 10> * xyz 0 1
| 11>   C                      -5.106868            5.364977             4.076705
| 12>   O                      -4.860362            6.614453             3.509791
| 13>   H                      -4.817998            6.497377             2.536860
| 14>   H                      -6.164157            5.347365             4.411321
| 15>   H                      -4.952286            4.468046             3.431176
| 16>   H                      -4.499261            5.272901             4.938925
| 17>   C                      -2.826672            3.168697             7.311766
| 18>   O                      -2.985900            2.187477             8.339613
| 19>   H                      -2.080365            1.979500             8.637292
| 20>   H                      -2.631409            4.182728             7.755383
| 21>   H                      -1.965593            2.904438             6.677685
| 22>   H                      -3.653128            3.269334             6.564215
| 23> *
| 24>
| 25> #Run DFT-D3 single point of the molecule with dimer basis set
| 26> $new_job
| 27> %base "19-45_DFT_A"
| 28> ! wB97X-D3 def2-TZVP TIGHTSCF CHELPG PMODEL
| 29>
| 30> %scf
| 31> MaxIter 1000
| 32> end
| 33>
| 34> * xyz 0 1
| 35>   C                      -5.106868            5.364977             4.076705
| 36>   O                      -4.860362            6.614453             3.509791
| 37>   H                      -4.817998            6.497377             2.536860
| 38>   H                      -6.164157            5.347365             4.411321
| 39>   H                      -4.952286            4.468046             3.431176
| 40>   H                      -4.499261            5.272901             4.938925
| 41>   C                    : -2.826672            3.168697             7.311766
| 42>   O                    : -2.985900            2.187477             8.339613
| 43>   H                    : -2.080365            1.979500             8.637292
| 44>   H                    : -2.631409            4.182728             7.755383
| 45>   H                    : -1.965593            2.904438             6.677685
| 46>   H                    : -3.653128            3.269334             6.564215
| 47> *
| 48>
| 49> #Run DFT-D3 single point of the particle with dimer basis set
| 50> $new_job
| 51> %base "19-45_DFT_B"
| 52> ! wB97X-D3 def2-TZVP TIGHTSCF CHELPG PMODEL
| 53>
| 54> %scf
| 55> MaxIter 1000
| 56> end
| 57>
| 58> * xyz 0 1
| 59>   C                    : -5.106868            5.364977             4.076705
| 60>   O                    : -4.860362            6.614453             3.509791
| 61>   H                    : -4.817998            6.497377             2.536860
| 62>   H                    : -6.164157            5.347365             4.411321
| 63>   H                    : -4.952286            4.468046             3.431176
| 64>   H                    : -4.499261            5.272901             4.938925
| 65>   C                      -2.826672            3.168697             7.311766
| 66>   O                      -2.985900            2.187477             8.339613
| 67>   H                      -2.080365            1.979500             8.637292
| 68>   H                      -2.631409            4.182728             7.755383
| 69>   H                      -1.965593            2.904438             6.677685
| 70>   H                      -3.653128            3.269334             6.564215
| 71> *
| 72>
| 73>                          ****END OF INPUT****
 Total Charge           Charge          ....    0
 Multiplicity           Mult            ....    1
 Number of Electrons    NEL             ....   36
Dispersion correction           -0.001050487
FINAL SINGLE POINT ENERGY      -231.465459013421
Dispersion correction           -0.000245977
FINAL SINGLE POINT ENERGY      -115.733092238118

CARTESIAN COORDINATES (ANGSTROEM)
---------------------------------
  C     -5.106868    5.364977    4.076705
  O     -4.860362    6.614453    3.509791
  H     -4.817998    6.497377    2.536860
  H     -6.164157    5.347365    4.411321
  H     -4.952286    4.468046    3.431176
  H     -4.499261    5.272901    4.938925
  C     -2.826672    3.168697    7.311766
  O     -2.985900    2.187477    8.339613
  H     -2.080365    1.979500    8.637292
  H     -2.631409    4.182728    7.755383
  H     -1.965593    2.904438    6.677685
  H     -3.653128    3.269334    6.564215

 Multiplicity           Mult            ....    1
 Number of Electrons    NEL             ....   18
 Basis Dimension        Dim             ....  172

ORBITAL ENERGIES
----------------

  NO   OCC          E(Eh)            E(eV)
   0   2.0000     -19.234350      -523.3933
   1   2.0000     -10.321644      -280.8662
   2   2.0000      -1.131382       -30.7865
   3   2.0000      -0.789870       -21.4934
   4   2.0000      -0.604855       -16.4589
   5   2.0000      -0.538377       -14.6500
   6   2.0000      -0.526480       -14.3262
   7   2.0000      -0.431010       -11.7284
   8   2.0000      -0.374683       -10.1956
   9   0.0000       0.083570         2.2740
  10   0.0000       0.112340         3.0569
  11   0.0000       0.140593         3.8257
  12   0.0000       0.173039         4.7086
  13   0.0000       0.192451         5.2369

MULLIKEN ATOMIC CHARGES
-----------------------
   0 C :   -0.000463
   1 O :    0.000000
   2 H :   -0.000000
   3 H :   -0.000018
   4 H :   -0.000092
   5 H :    0.000636
   6 C :   -0.184566
   7 O :   -0.467293
   8 H :    0.319719
   9 H :    0.102856
  10 H :    0.105779
  11 H :    0.123443
Sum of atomic charges:    0.0000000

LOEWDIN ATOMIC CHARGES
----------------------
   0 C :   -0.001116
   1 O :   -0.000008
   2 H :   -0.000002
   3 H :   -0.000020
   4 H :   -0.000078
   5 H :   -0.001440
   6 C :   -0.389636
   7 O :   -0.096324
   8 H :    0.180612
   9 H :    0.099821
  10 H :    0.096501
  11 H :    0.111689

  Mayer bond orders larger than 0.1
B(  6-C ,  7-O ) :   1.0033 B(  6-C ,  9-H ) :   0.9732 B(  6-C , 10-H ) :   0.9822
B(  6-C , 11-H ) :   0.9692 B(  7-O ,  8-H ) :   0.8955

Dispersion correction           -0.000254286
FINAL SINGLE POINT ENERGY      -115.731920362340

DIPOLE MOMENT
-------------
                                X             Y             Z
Electronic contribution:     -0.46006      -1.31368       1.35662
Nuclear contribution   :      1.09732       1.55363      -1.60072
                        -----------------------------------------
Total Dipole Moment    :      0.63726       0.23995      -0.24410
                        -----------------------------------------
Magnitude (a.u.)       :      0.72337
Magnitude (Debye)      :      1.83865

Rotational constants in cm-1:     4.214055     0.804433     0.780528
Rotational constants in MHz : 126334.205206 24116.302621 23399.642203

                             ****ORCA TERMINATED NORMALLY****
TOTAL RUN TIME: 0 days 0 hours 0 minutes 40 seconds 267 msec
