                         Program Version 4.1.2  - RELEASE  -
|  1> #Run DFT-D3 single point of the dimer
|  2> ! wB97X-D3 def2-TZVP TIGHTSCF CHELPG PMODEL PAL8
|  3>
|  4> %base "17-162_DFT_AB"
|  5>
|  6> %scf
|  7> MaxIter 1000
|  8> end
|  9>
| 10> * xyz 0 1
| 11>   C                      -3.400542            9.064006             2.907560
| 12>   O                      -2.364288            8.356197             2.386535
| 13>   H                      -2.203702            7.511474             2.883112
| 14>   H                      -3.460149            10.035669            2.373809
| 15>   H                      -4.379780            8.611277             2.906538
| 16>   H                      -3.126849            9.402309             3.916430
| 17>   C                      -0.445932            5.554974             3.372551
| 18>   O                      -0.663592            6.769137             4.080344
| 19>   H                      0.032541             7.339053             3.796839
| 20>   H                      -0.915059            5.486285             2.342016
| 21>   H                      0.646634             5.279527             3.239497
| 22>   H                      -0.797470            4.678995             3.995883
| 23> *
| 24>
| 25> #Run DFT-D3 single point of the molecule with dimer basis set
| 26> $new_job
| 27> %base "17-162_DFT_A"
| 28> ! wB97X-D3 def2-TZVP TIGHTSCF CHELPG PMODEL
| 29>
| 30> %scf
| 31> MaxIter 1000
| 32> end
| 33>
| 34> * xyz 0 1
| 35>   C                      -3.400542            9.064006             2.907560
| 36>   O                      -2.364288            8.356197             2.386535
| 37>   H                      -2.203702            7.511474             2.883112
| 38>   H                      -3.460149            10.035669            2.373809
| 39>   H                      -4.379780            8.611277             2.906538
| 40>   H                      -3.126849            9.402309             3.916430
| 41>   C                    : -0.445932            5.554974             3.372551
| 42>   O                    : -0.663592            6.769137             4.080344
| 43>   H                    : 0.032541             7.339053             3.796839
| 44>   H                    : -0.915059            5.486285             2.342016
| 45>   H                    : 0.646634             5.279527             3.239497
| 46>   H                    : -0.797470            4.678995             3.995883
| 47> *
| 48>
| 49> #Run DFT-D3 single point of the particle with dimer basis set
| 50> $new_job
| 51> %base "17-162_DFT_B"
| 52> ! wB97X-D3 def2-TZVP TIGHTSCF CHELPG PMODEL
| 53>
| 54> %scf
| 55> MaxIter 1000
| 56> end
| 57>
| 58> * xyz 0 1
| 59>   C                    : -3.400542            9.064006             2.907560
| 60>   O                    : -2.364288            8.356197             2.386535
| 61>   H                    : -2.203702            7.511474             2.883112
| 62>   H                    : -3.460149            10.035669            2.373809
| 63>   H                    : -4.379780            8.611277             2.906538
| 64>   H                    : -3.126849            9.402309             3.916430
| 65>   C                      -0.445932            5.554974             3.372551
| 66>   O                      -0.663592            6.769137             4.080344
| 67>   H                      0.032541             7.339053             3.796839
| 68>   H                      -0.915059            5.486285             2.342016
| 69>   H                      0.646634             5.279527             3.239497
| 70>   H                      -0.797470            4.678995             3.995883
| 71> *
| 72>
| 73>                          ****END OF INPUT****
 Total Charge           Charge          ....    0
 Multiplicity           Mult            ....    1
 Number of Electrons    NEL             ....   36
Dispersion correction           -0.001707812
FINAL SINGLE POINT ENERGY      -231.470137221979
Dispersion correction           -0.000236727
FINAL SINGLE POINT ENERGY      -115.732171964427

CARTESIAN COORDINATES (ANGSTROEM)
---------------------------------
  C     -3.400542    9.064006    2.907560
  O     -2.364288    8.356197    2.386535
  H     -2.203702    7.511474    2.883112
  H     -3.460149   10.035669    2.373809
  H     -4.379780    8.611277    2.906538
  H     -3.126849    9.402309    3.916430
  C     -0.445932    5.554974    3.372551
  O     -0.663592    6.769137    4.080344
  H      0.032541    7.339053    3.796839
  H     -0.915059    5.486285    2.342016
  H      0.646634    5.279527    3.239497
  H     -0.797470    4.678995    3.995883

 Multiplicity           Mult            ....    1
 Number of Electrons    NEL             ....   18
 Basis Dimension        Dim             ....  172

ORBITAL ENERGIES
----------------

  NO   OCC          E(Eh)            E(eV)
   0   2.0000     -19.237102      -523.4682
   1   2.0000     -10.326883      -281.0088
   2   2.0000      -1.143364       -31.1125
   3   2.0000      -0.789293       -21.4778
   4   2.0000      -0.613211       -16.6863
   5   2.0000      -0.537335       -14.6216
   6   2.0000      -0.521061       -14.1788
   7   2.0000      -0.433492       -11.7959
   8   2.0000      -0.379911       -10.3379
   9   0.0000       0.095700         2.6041
  10   0.0000       0.122552         3.3348
  11   0.0000       0.146532         3.9873
  12   0.0000       0.181148         4.9293
  13   0.0000       0.194192         5.2842

MULLIKEN ATOMIC CHARGES
-----------------------
   0 C :   -0.002020
   1 O :   -0.002499
   2 H :   -0.001059
   3 H :    0.000033
   4 H :   -0.000051
   5 H :   -0.000937
   6 C :   -0.188947
   7 O :   -0.455129
   8 H :    0.316625
   9 H :    0.106498
  10 H :    0.107050
  11 H :    0.120434
Sum of atomic charges:    0.0000000

LOEWDIN ATOMIC CHARGES
----------------------
   0 C :   -0.002330
   1 O :   -0.007794
   2 H :   -0.028044
   3 H :   -0.000032
   4 H :   -0.000034
   5 H :   -0.000524
   6 C :   -0.400086
   7 O :   -0.040566
   8 H :    0.162358
   9 H :    0.102081
  10 H :    0.101665
  11 H :    0.113307

  Mayer bond orders larger than 0.1
B(  6-C ,  7-O ) :   1.0029 B(  6-C ,  9-H ) :   0.9666 B(  6-C , 10-H ) :   0.9761
B(  6-C , 11-H ) :   0.9731 B(  7-O ,  8-H ) :   0.9019

Dispersion correction           -0.000275556
FINAL SINGLE POINT ENERGY      -115.731921325407

DIPOLE MOMENT
-------------
                                X             Y             Z
Electronic contribution:     -0.46545       1.68930       0.99070
Nuclear contribution   :      1.02128      -1.80382      -1.41606
                        -----------------------------------------
Total Dipole Moment    :      0.55583      -0.11452      -0.42536
                        -----------------------------------------
Magnitude (a.u.)       :      0.70922
Magnitude (Debye)      :      1.80270

Rotational constants in cm-1:     4.177191     0.805148     0.784119
Rotational constants in MHz : 125229.028220 24137.739046 23507.288183

                             ****ORCA TERMINATED NORMALLY****
TOTAL RUN TIME: 0 days 0 hours 1 minutes 14 seconds 291 msec
