                         Program Version 4.1.2  - RELEASE  -
|  1> #Run DFT-D3 single point of the dimer
|  2> ! wB97X-D3 def2-TZVP TIGHTSCF CHELPG PMODEL PAL8
|  3>
|  4> %base "12-136_DFT_AB"
|  5>
|  6> %scf
|  7> MaxIter 1000
|  8> end
|  9>
| 10> * xyz 0 1
| 11>   C                      3.937609             6.089715             5.121929
| 12>   O                      4.894966             6.938586             4.500561
| 13>   H                      5.624434             6.969971             5.126123
| 14>   H                      3.038266             5.905496             4.475867
| 15>   H                      4.311928             5.107801             5.271609
| 16>   H                      3.625862             6.468092             6.095905
| 17>   C                      4.501213             9.694876             2.436544
| 18>   O                      3.663614             8.551303             2.178854
| 19>   H                      3.863532             7.881030             2.839845
| 20>   H                      5.518683             9.629017             1.891389
| 21>   H                      4.050312             10.602869            2.109450
| 22>   H                      4.865483             9.896784             3.449164
| 23> *
| 24>
| 25> #Run DFT-D3 single point of the molecule with dimer basis set
| 26> $new_job
| 27> %base "12-136_DFT_A"
| 28> ! wB97X-D3 def2-TZVP TIGHTSCF CHELPG PMODEL
| 29>
| 30> %scf
| 31> MaxIter 1000
| 32> end
| 33>
| 34> * xyz 0 1
| 35>   C                      3.937609             6.089715             5.121929
| 36>   O                      4.894966             6.938586             4.500561
| 37>   H                      5.624434             6.969971             5.126123
| 38>   H                      3.038266             5.905496             4.475867
| 39>   H                      4.311928             5.107801             5.271609
| 40>   H                      3.625862             6.468092             6.095905
| 41>   C                    : 4.501213             9.694876             2.436544
| 42>   O                    : 3.663614             8.551303             2.178854
| 43>   H                    : 3.863532             7.881030             2.839845
| 44>   H                    : 5.518683             9.629017             1.891389
| 45>   H                    : 4.050312             10.602869            2.109450
| 46>   H                    : 4.865483             9.896784             3.449164
| 47> *
| 48>
| 49> #Run DFT-D3 single point of the particle with dimer basis set
| 50> $new_job
| 51> %base "12-136_DFT_B"
| 52> ! wB97X-D3 def2-TZVP TIGHTSCF CHELPG PMODEL
| 53>
| 54> %scf
| 55> MaxIter 1000
| 56> end
| 57>
| 58> * xyz 0 1
| 59>   C                    : 3.937609             6.089715             5.121929
| 60>   O                    : 4.894966             6.938586             4.500561
| 61>   H                    : 5.624434             6.969971             5.126123
| 62>   H                    : 3.038266             5.905496             4.475867
| 63>   H                    : 4.311928             5.107801             5.271609
| 64>   H                    : 3.625862             6.468092             6.095905
| 65>   C                      4.501213             9.694876             2.436544
| 66>   O                      3.663614             8.551303             2.178854
| 67>   H                      3.863532             7.881030             2.839845
| 68>   H                      5.518683             9.629017             1.891389
| 69>   H                      4.050312             10.602869            2.109450
| 70>   H                      4.865483             9.896784             3.449164
| 71> *
| 72>
| 73>                          ****END OF INPUT****
 Total Charge           Charge          ....    0
 Multiplicity           Mult            ....    1
 Number of Electrons    NEL             ....   36
Dispersion correction           -0.001785409
FINAL SINGLE POINT ENERGY      -231.470700146944
Dispersion correction           -0.000234757
FINAL SINGLE POINT ENERGY      -115.734270777738

CARTESIAN COORDINATES (ANGSTROEM)
---------------------------------
  C      3.937609    6.089715    5.121929
  O      4.894966    6.938586    4.500561
  H      5.624434    6.969971    5.126123
  H      3.038266    5.905496    4.475867
  H      4.311928    5.107801    5.271609
  H      3.625862    6.468092    6.095905
  C      4.501213    9.694876    2.436544
  O      3.663614    8.551303    2.178854
  H      3.863532    7.881030    2.839845
  H      5.518683    9.629017    1.891389
  H      4.050312   10.602869    2.109450
  H      4.865483    9.896784    3.449164

 Multiplicity           Mult            ....    1
 Number of Electrons    NEL             ....   18
 Basis Dimension        Dim             ....  172

ORBITAL ENERGIES
----------------

  NO   OCC          E(Eh)            E(eV)
   0   2.0000     -19.237882      -523.4894
   1   2.0000     -10.319452      -280.8066
   2   2.0000      -1.131047       -30.7774
   3   2.0000      -0.798289       -21.7226
   4   2.0000      -0.613484       -16.6938
   5   2.0000      -0.531770       -14.4702
   6   2.0000      -0.516682       -14.0596
   7   2.0000      -0.443856       -12.0779
   8   2.0000      -0.374073       -10.1790
   9   0.0000       0.068291         1.8583
  10   0.0000       0.130084         3.5398
  11   0.0000       0.142924         3.8892
  12   0.0000       0.165088         4.4923
  13   0.0000       0.191507         5.2112

MULLIKEN ATOMIC CHARGES
-----------------------
   0 C :   -0.003347
   1 O :   -0.001970
   2 H :   -0.000045
   3 H :   -0.000040
   4 H :    0.000039
   5 H :    0.000252
   6 C :   -0.179713
   7 O :   -0.466690
   8 H :    0.317084
   9 H :    0.095931
  10 H :    0.127609
  11 H :    0.110889
Sum of atomic charges:    0.0000000

LOEWDIN ATOMIC CHARGES
----------------------
   0 C :   -0.004054
   1 O :   -0.010764
   2 H :   -0.000451
   3 H :   -0.000815
   4 H :   -0.000074
   5 H :   -0.000050
   6 C :   -0.378167
   7 O :   -0.081134
   8 H :    0.174111
   9 H :    0.105320
  10 H :    0.099507
  11 H :    0.096572

  Mayer bond orders larger than 0.1
B(  6-C ,  7-O ) :   1.0000 B(  6-C ,  9-H ) :   0.9756 B(  6-C , 10-H ) :   0.9758
B(  6-C , 11-H ) :   0.9679 B(  7-O ,  8-H ) :   0.9066

Dispersion correction           -0.000292033
FINAL SINGLE POINT ENERGY      -115.729750866397

DIPOLE MOMENT
-------------
                                X             Y             Z
Electronic contribution:     -1.35825      -1.45812      -0.37818
Nuclear contribution   :      1.80356       1.50336       0.92657
                        -----------------------------------------
Total Dipole Moment    :      0.44531       0.04524       0.54839
                        -----------------------------------------
Magnitude (a.u.)       :      0.70788
Magnitude (Debye)      :      1.79928

Rotational constants in cm-1:     4.422492     0.786949     0.761267
Rotational constants in MHz : 132582.978105 23592.150225 22822.196406

                             ****ORCA TERMINATED NORMALLY****
TOTAL RUN TIME: 0 days 0 hours 1 minutes 9 seconds 237 msec
