                         Program Version 4.1.2  - RELEASE  -
|  1> #Run DFT-D3 single point of the dimer
|  2> ! wB97X-D3 def2-TZVP TIGHTSCF CHELPG PMODEL PAL8
|  3>
|  4> %base "16-166_DFT_AB"
|  5>
|  6> %scf
|  7> MaxIter 1000
|  8> end
|  9>
| 10> * xyz 0 1
| 11>   C                      -8.741000            -10.050704           -8.832468
| 12>   O                      -8.872883            -8.770483            -8.257972
| 13>   H                      -9.614841            -8.956050            -7.652595
| 14>   H                      -8.284211            -10.802288           -8.129658
| 15>   H                      -9.689343            -10.387381           -9.111734
| 16>   H                      -8.183061            -9.995485            -9.692613
| 17>   C                      -5.590370            -7.869805            -9.159098
| 18>   O                      -6.107930            -8.282535            -7.889996
| 19>   H                      -7.005371            -8.557653            -7.957416
| 20>   H                      -6.105004            -6.922504            -9.527348
| 21>   H                      -4.508572            -7.705444            -9.112053
| 22>   H                      -5.763735            -8.656621            -9.890694
| 23> *
| 24>
| 25> #Run DFT-D3 single point of the molecule with dimer basis set
| 26> $new_job
| 27> %base "16-166_DFT_A"
| 28> ! wB97X-D3 def2-TZVP TIGHTSCF CHELPG PMODEL
| 29>
| 30> %scf
| 31> MaxIter 1000
| 32> end
| 33>
| 34> * xyz 0 1
| 35>   C                      -8.741000            -10.050704           -8.832468
| 36>   O                      -8.872883            -8.770483            -8.257972
| 37>   H                      -9.614841            -8.956050            -7.652595
| 38>   H                      -8.284211            -10.802288           -8.129658
| 39>   H                      -9.689343            -10.387381           -9.111734
| 40>   H                      -8.183061            -9.995485            -9.692613
| 41>   C                    : -5.590370            -7.869805            -9.159098
| 42>   O                    : -6.107930            -8.282535            -7.889996
| 43>   H                    : -7.005371            -8.557653            -7.957416
| 44>   H                    : -6.105004            -6.922504            -9.527348
| 45>   H                    : -4.508572            -7.705444            -9.112053
| 46>   H                    : -5.763735            -8.656621            -9.890694
| 47> *
| 48>
| 49> #Run DFT-D3 single point of the particle with dimer basis set
| 50> $new_job
| 51> %base "16-166_DFT_B"
| 52> ! wB97X-D3 def2-TZVP TIGHTSCF CHELPG PMODEL
| 53>
| 54> %scf
| 55> MaxIter 1000
| 56> end
| 57>
| 58> * xyz 0 1
| 59>   C                    : -8.741000            -10.050704           -8.832468
| 60>   O                    : -8.872883            -8.770483            -8.257972
| 61>   H                    : -9.614841            -8.956050            -7.652595
| 62>   H                    : -8.284211            -10.802288           -8.129658
| 63>   H                    : -9.689343            -10.387381           -9.111734
| 64>   H                    : -8.183061            -9.995485            -9.692613
| 65>   C                      -5.590370            -7.869805            -9.159098
| 66>   O                      -6.107930            -8.282535            -7.889996
| 67>   H                      -7.005371            -8.557653            -7.957416
| 68>   H                      -6.105004            -6.922504            -9.527348
| 69>   H                      -4.508572            -7.705444            -9.112053
| 70>   H                      -5.763735            -8.656621            -9.890694
| 71> *
| 72>
| 73>                          ****END OF INPUT****
 Total Charge           Charge          ....    0
 Multiplicity           Mult            ....    1
 Number of Electrons    NEL             ....   36
Dispersion correction           -0.002049010
FINAL SINGLE POINT ENERGY      -231.470497707514
Dispersion correction           -0.000203195
FINAL SINGLE POINT ENERGY      -115.729010900615

CARTESIAN COORDINATES (ANGSTROEM)
---------------------------------
  C     -8.741000  -10.050704   -8.832468
  O     -8.872883   -8.770483   -8.257972
  H     -9.614841   -8.956050   -7.652595
  H     -8.284211  -10.802288   -8.129658
  H     -9.689343  -10.387381   -9.111734
  H     -8.183061   -9.995485   -9.692613
  C     -5.590370   -7.869805   -9.159098
  O     -6.107930   -8.282535   -7.889996
  H     -7.005371   -8.557653   -7.957416
  H     -6.105004   -6.922504   -9.527348
  H     -4.508572   -7.705444   -9.112053
  H     -5.763735   -8.656621   -9.890694

 Multiplicity           Mult            ....    1
 Number of Electrons    NEL             ....   18
 Basis Dimension        Dim             ....  172

ORBITAL ENERGIES
----------------

  NO   OCC          E(Eh)            E(eV)
   0   2.0000     -19.228178      -523.2253
   1   2.0000     -10.320185      -280.8265
   2   2.0000      -1.133107       -30.8334
   3   2.0000      -0.796832       -21.6829
   4   2.0000      -0.609434       -16.5835
   5   2.0000      -0.536471       -14.5981
   6   2.0000      -0.529939       -14.4204
   7   2.0000      -0.431392       -11.7388
   8   2.0000      -0.373948       -10.1756
   9   0.0000       0.071093         1.9345
  10   0.0000       0.137182         3.7329
  11   0.0000       0.150571         4.0973
  12   0.0000       0.165798         4.5116
  13   0.0000       0.193988         5.2787

MULLIKEN ATOMIC CHARGES
-----------------------
   0 C :   -0.010187
   1 O :   -0.004826
   2 H :   -0.000552
   3 H :    0.000655
   4 H :   -0.000598
   5 H :    0.001418
   6 C :   -0.165974
   7 O :   -0.472586
   8 H :    0.315623
   9 H :    0.099003
  10 H :    0.128054
  11 H :    0.109969
Sum of atomic charges:   -0.0000000

LOEWDIN ATOMIC CHARGES
----------------------
   0 C :   -0.013154
   1 O :   -0.020069
   2 H :   -0.000979
   3 H :   -0.001242
   4 H :   -0.000276
   5 H :   -0.001685
   6 C :   -0.369616
   7 O :   -0.064273
   8 H :    0.164444
   9 H :    0.102928
  10 H :    0.109419
  11 H :    0.094503

  Mayer bond orders larger than 0.1
B(  6-C ,  7-O ) :   0.9855 B(  6-C ,  9-H ) :   0.9749 B(  6-C , 10-H ) :   0.9721
B(  6-C , 11-H ) :   0.9755 B(  7-O ,  8-H ) :   0.9100

Dispersion correction           -0.000255146
FINAL SINGLE POINT ENERGY      -115.735374848315

DIPOLE MOMENT
-------------
                                X             Y             Z
Electronic contribution:     -0.46827      -0.49631       1.67924
Nuclear contribution   :      0.12892       0.47277      -2.24658
                        -----------------------------------------
Total Dipole Moment    :     -0.33934      -0.02354      -0.56735
                        -----------------------------------------
Magnitude (a.u.)       :      0.66150
Magnitude (Debye)      :      1.68141

Rotational constants in cm-1:     4.268383     0.807963     0.783625
Rotational constants in MHz : 127962.894339 24222.110909 23492.490575

                             ****ORCA TERMINATED NORMALLY****
TOTAL RUN TIME: 0 days 0 hours 1 minutes 6 seconds 204 msec
