                         Program Version 4.1.2  - RELEASE  -
|  1> #Run DFT-D3 single point of the dimer
|  2> ! wB97X-D3 def2-TZVP TIGHTSCF CHELPG PMODEL PAL8
|  3>
|  4> %base "16-163_DFT_AB"
|  5>
|  6> %scf
|  7> MaxIter 1000
|  8> end
|  9>
| 10> * xyz 0 1
| 11>   C                      -4.622937            6.512677             6.094771
| 12>   O                      -5.730739            5.646685             5.979663
| 13>   H                      -5.703783            5.372196             5.033767
| 14>   H                      -4.238808            6.649470             7.055892
| 15>   H                      -3.794243            6.162017             5.517498
| 16>   H                      -4.796104            7.446366             5.644331
| 17>   C                      -6.288564            7.321391             9.342525
| 18>   O                      -6.551368            6.072985             8.771686
| 19>   H                      -6.181356            6.100309             7.882743
| 20>   H                      -5.244810            7.621234             9.418924
| 21>   H                      -6.769384            8.110163             8.728446
| 22>   H                      -6.762811            7.352081             10.372824
| 23> *
| 24>
| 25> #Run DFT-D3 single point of the molecule with dimer basis set
| 26> $new_job
| 27> %base "16-163_DFT_A"
| 28> ! wB97X-D3 def2-TZVP TIGHTSCF CHELPG PMODEL
| 29>
| 30> %scf
| 31> MaxIter 1000
| 32> end
| 33>
| 34> * xyz 0 1
| 35>   C                      -4.622937            6.512677             6.094771
| 36>   O                      -5.730739            5.646685             5.979663
| 37>   H                      -5.703783            5.372196             5.033767
| 38>   H                      -4.238808            6.649470             7.055892
| 39>   H                      -3.794243            6.162017             5.517498
| 40>   H                      -4.796104            7.446366             5.644331
| 41>   C                    : -6.288564            7.321391             9.342525
| 42>   O                    : -6.551368            6.072985             8.771686
| 43>   H                    : -6.181356            6.100309             7.882743
| 44>   H                    : -5.244810            7.621234             9.418924
| 45>   H                    : -6.769384            8.110163             8.728446
| 46>   H                    : -6.762811            7.352081             10.372824
| 47> *
| 48>
| 49> #Run DFT-D3 single point of the particle with dimer basis set
| 50> $new_job
| 51> %base "16-163_DFT_B"
| 52> ! wB97X-D3 def2-TZVP TIGHTSCF CHELPG PMODEL
| 53>
| 54> %scf
| 55> MaxIter 1000
| 56> end
| 57>
| 58> * xyz 0 1
| 59>   C                    : -4.622937            6.512677             6.094771
| 60>   O                    : -5.730739            5.646685             5.979663
| 61>   H                    : -5.703783            5.372196             5.033767
| 62>   H                    : -4.238808            6.649470             7.055892
| 63>   H                    : -3.794243            6.162017             5.517498
| 64>   H                    : -4.796104            7.446366             5.644331
| 65>   C                      -6.288564            7.321391             9.342525
| 66>   O                      -6.551368            6.072985             8.771686
| 67>   H                      -6.181356            6.100309             7.882743
| 68>   H                      -5.244810            7.621234             9.418924
| 69>   H                      -6.769384            8.110163             8.728446
| 70>   H                      -6.762811            7.352081             10.372824
| 71> *
| 72>
| 73>                          ****END OF INPUT****
 Total Charge           Charge          ....    0
 Multiplicity           Mult            ....    1
 Number of Electrons    NEL             ....   36
Dispersion correction           -0.001966039
FINAL SINGLE POINT ENERGY      -231.467268022973
Dispersion correction           -0.000216317
FINAL SINGLE POINT ENERGY      -115.728734562955

CARTESIAN COORDINATES (ANGSTROEM)
---------------------------------
  C     -4.622937    6.512677    6.094771
  O     -5.730739    5.646685    5.979663
  H     -5.703783    5.372196    5.033767
  H     -4.238808    6.649470    7.055892
  H     -3.794243    6.162017    5.517498
  H     -4.796104    7.446366    5.644331
  C     -6.288564    7.321391    9.342525
  O     -6.551368    6.072985    8.771686
  H     -6.181356    6.100309    7.882743
  H     -5.244810    7.621234    9.418924
  H     -6.769384    8.110163    8.728446
  H     -6.762811    7.352081   10.372824

 Multiplicity           Mult            ....    1
 Number of Electrons    NEL             ....   18
 Basis Dimension        Dim             ....  172

ORBITAL ENERGIES
----------------

  NO   OCC          E(Eh)            E(eV)
   0   2.0000     -19.233774      -523.3776
   1   2.0000     -10.316696      -280.7316
   2   2.0000      -1.143690       -31.1214
   3   2.0000      -0.790139       -21.5008
   4   2.0000      -0.617150       -16.7935
   5   2.0000      -0.539641       -14.6844
   6   2.0000      -0.524771       -14.2798
   7   2.0000      -0.436175       -11.8689
   8   2.0000      -0.372914       -10.1475
   9   0.0000       0.068954         1.8763
  10   0.0000       0.135153         3.6777
  11   0.0000       0.151057         4.1105
  12   0.0000       0.168617         4.5883
  13   0.0000       0.185483         5.0473

MULLIKEN ATOMIC CHARGES
-----------------------
   0 C :   -0.004041
   1 O :   -0.000264
   2 H :   -0.000020
   3 H :   -0.002140
   4 H :   -0.000360
   5 H :    0.000295
   6 C :   -0.170438
   7 O :   -0.458487
   8 H :    0.312259
   9 H :    0.103044
  10 H :    0.098435
  11 H :    0.121717
Sum of atomic charges:   -0.0000000

LOEWDIN ATOMIC CHARGES
----------------------
   0 C :   -0.013429
   1 O :   -0.014572
   2 H :   -0.000514
   3 H :   -0.003740
   4 H :   -0.000200
   5 H :   -0.000268
   6 C :   -0.405783
   7 O :   -0.050250
   8 H :    0.184177
   9 H :    0.090829
  10 H :    0.095914
  11 H :    0.117837

  Mayer bond orders larger than 0.1
B(  6-C ,  7-O ) :   0.9942 B(  6-C ,  9-H ) :   0.9662 B(  6-C , 10-H ) :   0.9831
B(  6-C , 11-H ) :   0.9739 B(  7-O ,  8-H ) :   0.9093

Dispersion correction           -0.000236248
FINAL SINGLE POINT ENERGY      -115.735085083056

DIPOLE MOMENT
-------------
                                X             Y             Z
Electronic contribution:     -0.32058      -1.75919      -0.61410
Nuclear contribution   :      0.65106       2.24657       0.27266
                        -----------------------------------------
Total Dipole Moment    :      0.33047       0.48737      -0.34144
                        -----------------------------------------
Magnitude (a.u.)       :      0.68068
Magnitude (Debye)      :      1.73016

Rotational constants in cm-1:     4.202343     0.847225     0.808469
Rotational constants in MHz : 125983.061796 25399.169006 24237.297237

                             ****ORCA TERMINATED NORMALLY****
TOTAL RUN TIME: 0 days 0 hours 1 minutes 6 seconds 61 msec
