                         Program Version 4.1.2  - RELEASE  -
|  1> #Run DFT-D3 single point of the dimer
|  2> ! wB97X-D3 def2-TZVP TIGHTSCF CHELPG PMODEL PAL8
|  3>
|  4> %base "21-168_DFT_AB"
|  5>
|  6> %scf
|  7> MaxIter 1000
|  8> end
|  9>
| 10> * xyz 0 1
| 11>   C                      0.532629             8.603630             -10.535834
| 12>   O                      -0.494195            8.133551             -9.745553
| 13>   H                      -0.850439            7.321259             -10.181752
| 14>   H                      1.165827             9.326268             -9.997597
| 15>   H                      1.089022             7.697224             -10.843455
| 16>   H                      0.160255             9.153806             -11.436289
| 17>   C                      -0.411546            4.687511             -8.903536
| 18>   O                      -0.678299            5.400739             -10.086564
| 19>   H                      -0.546198            4.894099             -10.882617
| 20>   H                      -0.136972            5.398320             -8.128632
| 21>   H                      -1.162960            4.005270             -8.509791
| 22>   H                      0.489109             4.041766             -8.921315
| 23> *
| 24>
| 25> #Run DFT-D3 single point of the molecule with dimer basis set
| 26> $new_job
| 27> %base "21-168_DFT_A"
| 28> ! wB97X-D3 def2-TZVP TIGHTSCF CHELPG PMODEL
| 29>
| 30> %scf
| 31> MaxIter 1000
| 32> end
| 33>
| 34> * xyz 0 1
| 35>   C                      0.532629             8.603630             -10.535834
| 36>   O                      -0.494195            8.133551             -9.745553
| 37>   H                      -0.850439            7.321259             -10.181752
| 38>   H                      1.165827             9.326268             -9.997597
| 39>   H                      1.089022             7.697224             -10.843455
| 40>   H                      0.160255             9.153806             -11.436289
| 41>   C                    : -0.411546            4.687511             -8.903536
| 42>   O                    : -0.678299            5.400739             -10.086564
| 43>   H                    : -0.546198            4.894099             -10.882617
| 44>   H                    : -0.136972            5.398320             -8.128632
| 45>   H                    : -1.162960            4.005270             -8.509791
| 46>   H                    : 0.489109             4.041766             -8.921315
| 47> *
| 48>
| 49> #Run DFT-D3 single point of the particle with dimer basis set
| 50> $new_job
| 51> %base "21-168_DFT_B"
| 52> ! wB97X-D3 def2-TZVP TIGHTSCF CHELPG PMODEL
| 53>
| 54> %scf
| 55> MaxIter 1000
| 56> end
| 57>
| 58> * xyz 0 1
| 59>   C                    : 0.532629             8.603630             -10.535834
| 60>   O                    : -0.494195            8.133551             -9.745553
| 61>   H                    : -0.850439            7.321259             -10.181752
| 62>   H                    : 1.165827             9.326268             -9.997597
| 63>   H                    : 1.089022             7.697224             -10.843455
| 64>   H                    : 0.160255             9.153806             -11.436289
| 65>   C                      -0.411546            4.687511             -8.903536
| 66>   O                      -0.678299            5.400739             -10.086564
| 67>   H                      -0.546198            4.894099             -10.882617
| 68>   H                      -0.136972            5.398320             -8.128632
| 69>   H                      -1.162960            4.005270             -8.509791
| 70>   H                      0.489109             4.041766             -8.921315
| 71> *
| 72>
| 73>                          ****END OF INPUT****
 Total Charge           Charge          ....    0
 Multiplicity           Mult            ....    1
 Number of Electrons    NEL             ....   36
Dispersion correction           -0.001895335
FINAL SINGLE POINT ENERGY      -231.472586720165
Dispersion correction           -0.000220759
FINAL SINGLE POINT ENERGY      -115.732542248163

CARTESIAN COORDINATES (ANGSTROEM)
---------------------------------
  C      0.532629    8.603630  -10.535834
  O     -0.494195    8.133551   -9.745553
  H     -0.850439    7.321259  -10.181752
  H      1.165827    9.326268   -9.997597
  H      1.089022    7.697224  -10.843455
  H      0.160255    9.153806  -11.436289
  C     -0.411546    4.687511   -8.903536
  O     -0.678299    5.400739  -10.086564
  H     -0.546198    4.894099  -10.882617
  H     -0.136972    5.398320   -8.128632
  H     -1.162960    4.005270   -8.509791
  H      0.489109    4.041766   -8.921315

 Multiplicity           Mult            ....    1
 Number of Electrons    NEL             ....   18
 Basis Dimension        Dim             ....  172

ORBITAL ENERGIES
----------------

  NO   OCC          E(Eh)            E(eV)
   0   2.0000     -19.233980      -523.3832
   1   2.0000     -10.313493      -280.6444
   2   2.0000      -1.138683       -30.9851
   3   2.0000      -0.802177       -21.8283
   4   2.0000      -0.622215       -16.9313
   5   2.0000      -0.538831       -14.6623
   6   2.0000      -0.523759       -14.2522
   7   2.0000      -0.427986       -11.6461
   8   2.0000      -0.377478       -10.2717
   9   0.0000       0.099324         2.7027
  10   0.0000       0.128312         3.4915
  11   0.0000       0.147998         4.0272
  12   0.0000       0.184793         5.0285
  13   0.0000       0.204311         5.5596

MULLIKEN ATOMIC CHARGES
-----------------------
   0 C :    0.003811
   1 O :    0.000950
   2 H :   -0.007580
   3 H :   -0.000248
   4 H :   -0.007087
   5 H :   -0.000460
   6 C :   -0.162756
   7 O :   -0.473547
   8 H :    0.317221
   9 H :    0.124939
  10 H :    0.106302
  11 H :    0.098455
Sum of atomic charges:    0.0000000

LOEWDIN ATOMIC CHARGES
----------------------
   0 C :   -0.004649
   1 O :   -0.007197
   2 H :   -0.040982
   3 H :   -0.000047
   4 H :   -0.003862
   5 H :   -0.000051
   6 C :   -0.393814
   7 O :   -0.015478
   8 H :    0.164568
   9 H :    0.109560
  10 H :    0.094057
  11 H :    0.097895

  Mayer bond orders larger than 0.1
B(  6-C ,  7-O ) :   0.9977 B(  6-C ,  9-H ) :   0.9781 B(  6-C , 10-H ) :   0.9657
B(  6-C , 11-H ) :   0.9745 B(  7-O ,  8-H ) :   0.8938

Dispersion correction           -0.000279661
FINAL SINGLE POINT ENERGY      -115.733030743737

DIPOLE MOMENT
-------------
                                X             Y             Z
Electronic contribution:     -0.51961       1.04100      -1.57372
Nuclear contribution   :      0.73487      -1.66769       1.52912
                        -----------------------------------------
Total Dipole Moment    :      0.21527      -0.62669      -0.04460
                        -----------------------------------------
Magnitude (a.u.)       :      0.66413
Magnitude (Debye)      :      1.68809

Rotational constants in cm-1:     4.581382     0.814967     0.790479
Rotational constants in MHz : 137346.386372 24432.102232 23697.951168

                             ****ORCA TERMINATED NORMALLY****
TOTAL RUN TIME: 0 days 0 hours 1 minutes 8 seconds 856 msec
