                         Program Version 4.1.2  - RELEASE  -
|  1> #Run DFT-D3 single point of the dimer
|  2> ! wB97X-D3 def2-TZVP TIGHTSCF CHELPG PMODEL PAL8
|  3>
|  4> %base "8-211_DFT_AB"
|  5>
|  6> %scf
|  7> MaxIter 1000
|  8> end
|  9>
| 10> * xyz 0 1
| 11>   C                      -8.857847            6.244264             -1.636799
| 12>   O                      -8.977274            7.455130             -0.955601
| 13>   H                      -8.043500            7.683408             -0.815293
| 14>   H                      -9.747294            6.078535             -2.222804
| 15>   H                      -7.913861            6.266944             -2.240316
| 16>   H                      -8.755962            5.427798             -0.893530
| 17>   C                      -9.992860            11.319517            -1.256673
| 18>   O                      -8.804317            10.596147            -1.126954
| 19>   H                      -8.956005            9.706453             -1.386222
| 20>   H                      -9.820074            12.393363            -1.054387
| 21>   H                      -10.336691           11.194362            -2.310646
| 22>   H                      -10.781875           10.982181            -0.539118
| 23> *
| 24>
| 25> #Run DFT-D3 single point of the molecule with dimer basis set
| 26> $new_job
| 27> %base "8-211_DFT_A"
| 28> ! wB97X-D3 def2-TZVP TIGHTSCF CHELPG PMODEL
| 29>
| 30> %scf
| 31> MaxIter 1000
| 32> end
| 33>
| 34> * xyz 0 1
| 35>   C                      -8.857847            6.244264             -1.636799
| 36>   O                      -8.977274            7.455130             -0.955601
| 37>   H                      -8.043500            7.683408             -0.815293
| 38>   H                      -9.747294            6.078535             -2.222804
| 39>   H                      -7.913861            6.266944             -2.240316
| 40>   H                      -8.755962            5.427798             -0.893530
| 41>   C                    : -9.992860            11.319517            -1.256673
| 42>   O                    : -8.804317            10.596147            -1.126954
| 43>   H                    : -8.956005            9.706453             -1.386222
| 44>   H                    : -9.820074            12.393363            -1.054387
| 45>   H                    : -10.336691           11.194362            -2.310646
| 46>   H                    : -10.781875           10.982181            -0.539118
| 47> *
| 48>
| 49> #Run DFT-D3 single point of the particle with dimer basis set
| 50> $new_job
| 51> %base "8-211_DFT_B"
| 52> ! wB97X-D3 def2-TZVP TIGHTSCF CHELPG PMODEL
| 53>
| 54> %scf
| 55> MaxIter 1000
| 56> end
| 57>
| 58> * xyz 0 1
| 59>   C                    : -8.857847            6.244264             -1.636799
| 60>   O                    : -8.977274            7.455130             -0.955601
| 61>   H                    : -8.043500            7.683408             -0.815293
| 62>   H                    : -9.747294            6.078535             -2.222804
| 63>   H                    : -7.913861            6.266944             -2.240316
| 64>   H                    : -8.755962            5.427798             -0.893530
| 65>   C                      -9.992860            11.319517            -1.256673
| 66>   O                      -8.804317            10.596147            -1.126954
| 67>   H                      -8.956005            9.706453             -1.386222
| 68>   H                      -9.820074            12.393363            -1.054387
| 69>   H                      -10.336691           11.194362            -2.310646
| 70>   H                      -10.781875           10.982181            -0.539118
| 71> *
| 72>
| 73>                          ****END OF INPUT****
 Total Charge           Charge          ....    0
 Multiplicity           Mult            ....    1
 Number of Electrons    NEL             ....   36
Dispersion correction           -0.001305656
FINAL SINGLE POINT ENERGY      -231.473493408446
Dispersion correction           -0.000207186
FINAL SINGLE POINT ENERGY      -115.732675028656

CARTESIAN COORDINATES (ANGSTROEM)
---------------------------------
  C     -8.857847    6.244264   -1.636799
  O     -8.977274    7.455130   -0.955601
  H     -8.043500    7.683408   -0.815293
  H     -9.747294    6.078535   -2.222804
  H     -7.913861    6.266944   -2.240316
  H     -8.755962    5.427798   -0.893530
  C     -9.992860   11.319517   -1.256673
  O     -8.804317   10.596147   -1.126954
  H     -8.956005    9.706453   -1.386222
  H     -9.820074   12.393363   -1.054387
  H    -10.336691   11.194362   -2.310646
  H    -10.781875   10.982181   -0.539118

 Multiplicity           Mult            ....    1
 Number of Electrons    NEL             ....   18
 Basis Dimension        Dim             ....  172

ORBITAL ENERGIES
----------------

  NO   OCC          E(Eh)            E(eV)
   0   2.0000     -19.227516      -523.2073
   1   2.0000     -10.318555      -280.7822
   2   2.0000      -1.145333       -31.1661
   3   2.0000      -0.792622       -21.5683
   4   2.0000      -0.612819       -16.6756
   5   2.0000      -0.544978       -14.8296
   6   2.0000      -0.530723       -14.4417
   7   2.0000      -0.429111       -11.6767
   8   2.0000      -0.372429       -10.1343
   9   0.0000       0.075590         2.0569
  10   0.0000       0.124603         3.3906
  11   0.0000       0.151486         4.1221
  12   0.0000       0.180971         4.9245
  13   0.0000       0.189992         5.1699

MULLIKEN ATOMIC CHARGES
-----------------------
   0 C :   -0.001232
   1 O :   -0.001454
   2 H :   -0.001001
   3 H :    0.000005
   4 H :    0.000078
   5 H :    0.000024
   6 C :   -0.165408
   7 O :   -0.465506
   8 H :    0.312571
   9 H :    0.121420
  10 H :    0.101621
  11 H :    0.098882
Sum of atomic charges:   -0.0000000

LOEWDIN ATOMIC CHARGES
----------------------
   0 C :   -0.000839
   1 O :   -0.008056
   2 H :   -0.002798
   3 H :   -0.000027
   4 H :   -0.000022
   5 H :   -0.000024
   6 C :   -0.400484
   7 O :   -0.052312
   8 H :    0.158258
   9 H :    0.110712
  10 H :    0.098747
  11 H :    0.096845

  Mayer bond orders larger than 0.1
B(  6-C ,  7-O ) :   0.9962 B(  6-C ,  9-H ) :   0.9710 B(  6-C , 10-H ) :   0.9862
B(  6-C , 11-H ) :   0.9681 B(  7-O ,  8-H ) :   0.9031

Dispersion correction           -0.000232751
FINAL SINGLE POINT ENERGY      -115.735426880224

DIPOLE MOMENT
-------------
                                X             Y             Z
Electronic contribution:      1.60911      -0.80207       0.24284
Nuclear contribution   :     -2.15532       0.52902      -0.45823
                        -----------------------------------------
Total Dipole Moment    :     -0.54620      -0.27305      -0.21539
                        -----------------------------------------
Magnitude (a.u.)       :      0.64752
Magnitude (Debye)      :      1.64588

Rotational constants in cm-1:     4.194778     0.844300     0.818199
Rotational constants in MHz : 125756.275762 25311.472561 24528.995713

                             ****ORCA TERMINATED NORMALLY****
TOTAL RUN TIME: 0 days 0 hours 0 minutes 43 seconds 772 msec
