                         Program Version 4.1.2  - RELEASE  -
|  1> #Run DFT-D3 single point of the dimer
|  2> ! wB97X-D3 def2-TZVP TIGHTSCF CHELPG PMODEL PAL8
|  3>
|  4> %base "6-144_DFT_AB"
|  5>
|  6> %scf
|  7> MaxIter 1000
|  8> end
|  9>
| 10> * xyz 0 1
| 11>   C                      -4.761511            4.033597             0.644561
| 12>   O                      -5.840978            3.433233             0.049642
| 13>   H                      -5.492849            2.523633             0.104784
| 14>   H                      -3.783085            3.629081             0.423102
| 15>   H                      -4.640133            5.102742             0.387107
| 16>   H                      -4.887416            4.115966             1.738798
| 17>   C                      -7.280844            6.258362             -1.869373
| 18>   O                      -6.851826            4.897914             -1.855006
| 19>   H                      -6.765872            4.622303             -0.926568
| 20>   H                      -6.437297            6.972732             -1.824910
| 21>   H                      -7.547841            6.518450             -2.920986
| 22>   H                      -8.073158            6.482182             -1.205432
| 23> *
| 24>
| 25> #Run DFT-D3 single point of the molecule with dimer basis set
| 26> $new_job
| 27> %base "6-144_DFT_A"
| 28> ! wB97X-D3 def2-TZVP TIGHTSCF CHELPG PMODEL
| 29>
| 30> %scf
| 31> MaxIter 1000
| 32> end
| 33>
| 34> * xyz 0 1
| 35>   C                      -4.761511            4.033597             0.644561
| 36>   O                      -5.840978            3.433233             0.049642
| 37>   H                      -5.492849            2.523633             0.104784
| 38>   H                      -3.783085            3.629081             0.423102
| 39>   H                      -4.640133            5.102742             0.387107
| 40>   H                      -4.887416            4.115966             1.738798
| 41>   C                    : -7.280844            6.258362             -1.869373
| 42>   O                    : -6.851826            4.897914             -1.855006
| 43>   H                    : -6.765872            4.622303             -0.926568
| 44>   H                    : -6.437297            6.972732             -1.824910
| 45>   H                    : -7.547841            6.518450             -2.920986
| 46>   H                    : -8.073158            6.482182             -1.205432
| 47> *
| 48>
| 49> #Run DFT-D3 single point of the particle with dimer basis set
| 50> $new_job
| 51> %base "6-144_DFT_B"
| 52> ! wB97X-D3 def2-TZVP TIGHTSCF CHELPG PMODEL
| 53>
| 54> %scf
| 55> MaxIter 1000
| 56> end
| 57>
| 58> * xyz 0 1
| 59>   C                    : -4.761511            4.033597             0.644561
| 60>   O                    : -5.840978            3.433233             0.049642
| 61>   H                    : -5.492849            2.523633             0.104784
| 62>   H                    : -3.783085            3.629081             0.423102
| 63>   H                    : -4.640133            5.102742             0.387107
| 64>   H                    : -4.887416            4.115966             1.738798
| 65>   C                      -7.280844            6.258362             -1.869373
| 66>   O                      -6.851826            4.897914             -1.855006
| 67>   H                      -6.765872            4.622303             -0.926568
| 68>   H                      -6.437297            6.972732             -1.824910
| 69>   H                      -7.547841            6.518450             -2.920986
| 70>   H                      -8.073158            6.482182             -1.205432
| 71> *
| 72>
| 73>                          ****END OF INPUT****
 Total Charge           Charge          ....    0
 Multiplicity           Mult            ....    1
 Number of Electrons    NEL             ....   36
Dispersion correction           -0.001735939
FINAL SINGLE POINT ENERGY      -231.459809927939
Dispersion correction           -0.000218104
FINAL SINGLE POINT ENERGY      -115.727042333214

CARTESIAN COORDINATES (ANGSTROEM)
---------------------------------
  C     -4.761511    4.033597    0.644561
  O     -5.840978    3.433233    0.049642
  H     -5.492849    2.523633    0.104784
  H     -3.783085    3.629081    0.423102
  H     -4.640133    5.102742    0.387107
  H     -4.887416    4.115966    1.738798
  C     -7.280844    6.258362   -1.869373
  O     -6.851826    4.897914   -1.855006
  H     -6.765872    4.622303   -0.926568
  H     -6.437297    6.972732   -1.824910
  H     -7.547841    6.518450   -2.920986
  H     -8.073158    6.482182   -1.205432

 Multiplicity           Mult            ....    1
 Number of Electrons    NEL             ....   18
 Basis Dimension        Dim             ....  172

ORBITAL ENERGIES
----------------

  NO   OCC          E(Eh)            E(eV)
   0   2.0000     -19.234355      -523.3934
   1   2.0000     -10.313937      -280.6565
   2   2.0000      -1.131294       -30.7841
   3   2.0000      -0.797733       -21.7074
   4   2.0000      -0.609067       -16.5736
   5   2.0000      -0.550380       -14.9766
   6   2.0000      -0.515814       -14.0360
   7   2.0000      -0.434611       -11.8264
   8   2.0000      -0.373392       -10.1605
   9   0.0000       0.075749         2.0612
  10   0.0000       0.133829         3.6417
  11   0.0000       0.148667         4.0454
  12   0.0000       0.173279         4.7152
  13   0.0000       0.190711         5.1895

MULLIKEN ATOMIC CHARGES
-----------------------
   0 C :   -0.005999
   1 O :   -0.001422
   2 H :   -0.000153
   3 H :    0.000163
   4 H :   -0.001239
   5 H :    0.000133
   6 C :   -0.169029
   7 O :   -0.461450
   8 H :    0.310733
   9 H :    0.099355
  10 H :    0.112794
  11 H :    0.116115
Sum of atomic charges:    0.0000000

LOEWDIN ATOMIC CHARGES
----------------------
   0 C :   -0.010369
   1 O :   -0.030846
   2 H :   -0.001121
   3 H :   -0.000189
   4 H :   -0.002013
   5 H :   -0.000164
   6 C :   -0.383099
   7 O :   -0.067247
   8 H :    0.192030
   9 H :    0.099025
  10 H :    0.115112
  11 H :    0.088881

  Mayer bond orders larger than 0.1
B(  6-C ,  7-O ) :   1.0111 B(  6-C ,  9-H ) :   0.9729 B(  6-C , 10-H ) :   0.9770
B(  6-C , 11-H ) :   0.9754 B(  7-O ,  8-H ) :   0.9007

Dispersion correction           -0.000259847
FINAL SINGLE POINT ENERGY      -115.731009931144

DIPOLE MOMENT
-------------
                                X             Y             Z
Electronic contribution:      0.42456      -1.79569       0.08202
Nuclear contribution   :     -0.55546       2.18027       0.46465
                        -----------------------------------------
Total Dipole Moment    :     -0.13090       0.38458       0.54667
                        -----------------------------------------
Magnitude (a.u.)       :      0.68109
Magnitude (Debye)      :      1.73120

Rotational constants in cm-1:     4.346536     0.816757     0.783153
Rotational constants in MHz : 130305.874376 24485.754483 23478.330152

                             ****ORCA TERMINATED NORMALLY****
TOTAL RUN TIME: 0 days 0 hours 1 minutes 4 seconds 68 msec
