                         Program Version 4.1.2  - RELEASE  -
|  1> #Run DFT-D3 single point of the dimer
|  2> ! wB97X-D3 def2-TZVP TIGHTSCF CHELPG PMODEL PAL8
|  3>
|  4> %base "3-41_DFT_AB"
|  5>
|  6> %scf
|  7> MaxIter 1000
|  8> end
|  9>
| 10> * xyz 0 1
| 11>   C                      -3.289817            3.839313             -6.482746
| 12>   O                      -4.185576            4.250906             -7.462851
| 13>   H                      -4.707539            3.455339             -7.545012
| 14>   H                      -3.645948            3.191517             -5.758856
| 15>   H                      -2.405513            3.242529             -6.901142
| 16>   H                      -2.662676            4.632680             -6.020365
| 17>   C                      -7.928530            3.771707             -6.464146
| 18>   O                      -7.849009            4.322399             -5.205604
| 19>   H                      -7.952925            3.642590             -4.493695
| 20>   H                      -7.525502            2.716763             -6.413435
| 21>   H                      -8.987006            3.641655             -6.788111
| 22>   H                      -7.464347            4.472502             -7.174355
| 23> *
| 24>
| 25> #Run DFT-D3 single point of the molecule with dimer basis set
| 26> $new_job
| 27> %base "3-41_DFT_A"
| 28> ! wB97X-D3 def2-TZVP TIGHTSCF CHELPG PMODEL
| 29>
| 30> %scf
| 31> MaxIter 1000
| 32> end
| 33>
| 34> * xyz 0 1
| 35>   C                      -3.289817            3.839313             -6.482746
| 36>   O                      -4.185576            4.250906             -7.462851
| 37>   H                      -4.707539            3.455339             -7.545012
| 38>   H                      -3.645948            3.191517             -5.758856
| 39>   H                      -2.405513            3.242529             -6.901142
| 40>   H                      -2.662676            4.632680             -6.020365
| 41>   C                    : -7.928530            3.771707             -6.464146
| 42>   O                    : -7.849009            4.322399             -5.205604
| 43>   H                    : -7.952925            3.642590             -4.493695
| 44>   H                    : -7.525502            2.716763             -6.413435
| 45>   H                    : -8.987006            3.641655             -6.788111
| 46>   H                    : -7.464347            4.472502             -7.174355
| 47> *
| 48>
| 49> #Run DFT-D3 single point of the particle with dimer basis set
| 50> $new_job
| 51> %base "3-41_DFT_B"
| 52> ! wB97X-D3 def2-TZVP TIGHTSCF CHELPG PMODEL
| 53>
| 54> %scf
| 55> MaxIter 1000
| 56> end
| 57>
| 58> * xyz 0 1
| 59>   C                    : -3.289817            3.839313             -6.482746
| 60>   O                    : -4.185576            4.250906             -7.462851
| 61>   H                    : -4.707539            3.455339             -7.545012
| 62>   H                    : -3.645948            3.191517             -5.758856
| 63>   H                    : -2.405513            3.242529             -6.901142
| 64>   H                    : -2.662676            4.632680             -6.020365
| 65>   C                      -7.928530            3.771707             -6.464146
| 66>   O                      -7.849009            4.322399             -5.205604
| 67>   H                      -7.952925            3.642590             -4.493695
| 68>   H                      -7.525502            2.716763             -6.413435
| 69>   H                      -8.987006            3.641655             -6.788111
| 70>   H                      -7.464347            4.472502             -7.174355
| 71> *
| 72>
| 73>                          ****END OF INPUT****
 Total Charge           Charge          ....    0
 Multiplicity           Mult            ....    1
 Number of Electrons    NEL             ....   36
Dispersion correction           -0.001317354
FINAL SINGLE POINT ENERGY      -231.455347938928
Dispersion correction           -0.000235394
FINAL SINGLE POINT ENERGY      -115.724052656844

CARTESIAN COORDINATES (ANGSTROEM)
---------------------------------
  C     -3.289817    3.839313   -6.482746
  O     -4.185576    4.250906   -7.462851
  H     -4.707539    3.455339   -7.545012
  H     -3.645948    3.191517   -5.758856
  H     -2.405513    3.242529   -6.901142
  H     -2.662676    4.632680   -6.020365
  C     -7.928530    3.771707   -6.464146
  O     -7.849009    4.322399   -5.205604
  H     -7.952925    3.642590   -4.493695
  H     -7.525502    2.716763   -6.413435
  H     -8.987006    3.641655   -6.788111
  H     -7.464347    4.472502   -7.174355

 Multiplicity           Mult            ....    1
 Number of Electrons    NEL             ....   18
 Basis Dimension        Dim             ....  172

ORBITAL ENERGIES
----------------

  NO   OCC          E(Eh)            E(eV)
   0   2.0000     -19.229462      -523.2603
   1   2.0000     -10.316727      -280.7324
   2   2.0000      -1.140779       -31.0422
   3   2.0000      -0.787242       -21.4219
   4   2.0000      -0.614939       -16.7333
   5   2.0000      -0.539963       -14.6931
   6   2.0000      -0.531566       -14.4646
   7   2.0000      -0.428066       -11.6483
   8   2.0000      -0.363921        -9.9028
   9   0.0000       0.086949         2.3660
  10   0.0000       0.111559         3.0357
  11   0.0000       0.147408         4.0112
  12   0.0000       0.182254         4.9594
  13   0.0000       0.187598         5.1048

MULLIKEN ATOMIC CHARGES
-----------------------
   0 C :    0.000173
   1 O :    0.000308
   2 H :   -0.001602
   3 H :   -0.000121
   4 H :    0.000014
   5 H :    0.000010
   6 C :   -0.147765
   7 O :   -0.475264
   8 H :    0.320063
   9 H :    0.094254
  10 H :    0.090533
  11 H :    0.119397
Sum of atomic charges:    0.0000000

LOEWDIN ATOMIC CHARGES
----------------------
   0 C :   -0.000267
   1 O :   -0.000355
   2 H :   -0.001769
   3 H :   -0.000086
   4 H :   -0.000010
   5 H :   -0.000002
   6 C :   -0.420403
   7 O :   -0.067194
   8 H :    0.187625
   9 H :    0.100541
  10 H :    0.092452
  11 H :    0.109467

  Mayer bond orders larger than 0.1
B(  6-C ,  7-O ) :   1.0040 B(  6-C ,  9-H ) :   0.9864 B(  6-C , 10-H ) :   0.9695
B(  6-C , 11-H ) :   0.9708 B(  7-O ,  8-H ) :   0.8895

Dispersion correction           -0.000234358
FINAL SINGLE POINT ENERGY      -115.730821212363

DIPOLE MOMENT
-------------
                                X             Y             Z
Electronic contribution:      0.22846       0.89745       1.53618
Nuclear contribution   :     -0.32518      -1.53051      -1.53992
                        -----------------------------------------
Total Dipole Moment    :     -0.09672      -0.63305      -0.00374
                        -----------------------------------------
Magnitude (a.u.)       :      0.64041
Magnitude (Debye)      :      1.62779

Rotational constants in cm-1:     4.099556     0.873009     0.825408
Rotational constants in MHz : 122901.607459 26172.149555 24745.113112

                             ****ORCA TERMINATED NORMALLY****
TOTAL RUN TIME: 0 days 0 hours 6 minutes 23 seconds 400 msec
