                         Program Version 4.1.2  - RELEASE  -
|  1> #Run DFT-D3 single point of the dimer
|  2> ! wB97X-D3 def2-TZVP TIGHTSCF CHELPG PMODEL PAL8
|  3>
|  4> %base "1-139_DFT_AB"
|  5>
|  6> %scf
|  7> MaxIter 1000
|  8> end
|  9>
| 10> * xyz 0 1
| 11>   C                      9.665836             -0.217064            10.196093
| 12>   O                      9.826703             -1.470879            10.780633
| 13>   H                      10.759762            -1.664107            10.755609
| 14>   H                      8.702707             0.283325             10.335303
| 15>   H                      10.272908            0.494257             10.775739
| 16>   H                      9.978906             -0.181398            9.110003
| 17>   C                      11.050227            0.772796             5.539049
| 18>   O                      10.238112            -0.218126            6.029420
| 19>   H                      10.180049            -1.012104            5.519935
| 20>   H                      10.797115            1.745447             6.036916
| 21>   H                      12.106579            0.611588             5.751595
| 22>   H                      10.959615            0.982066             4.442212
| 23> *
| 24>
| 25> #Run DFT-D3 single point of the molecule with dimer basis set
| 26> $new_job
| 27> %base "1-139_DFT_A"
| 28> ! wB97X-D3 def2-TZVP TIGHTSCF CHELPG PMODEL
| 29>
| 30> %scf
| 31> MaxIter 1000
| 32> end
| 33>
| 34> * xyz 0 1
| 35>   C                      9.665836             -0.217064            10.196093
| 36>   O                      9.826703             -1.470879            10.780633
| 37>   H                      10.759762            -1.664107            10.755609
| 38>   H                      8.702707             0.283325             10.335303
| 39>   H                      10.272908            0.494257             10.775739
| 40>   H                      9.978906             -0.181398            9.110003
| 41>   C                    : 11.050227            0.772796             5.539049
| 42>   O                    : 10.238112            -0.218126            6.029420
| 43>   H                    : 10.180049            -1.012104            5.519935
| 44>   H                    : 10.797115            1.745447             6.036916
| 45>   H                    : 12.106579            0.611588             5.751595
| 46>   H                    : 10.959615            0.982066             4.442212
| 47> *
| 48>
| 49> #Run DFT-D3 single point of the particle with dimer basis set
| 50> $new_job
| 51> %base "1-139_DFT_B"
| 52> ! wB97X-D3 def2-TZVP TIGHTSCF CHELPG PMODEL
| 53>
| 54> %scf
| 55> MaxIter 1000
| 56> end
| 57>
| 58> * xyz 0 1
| 59>   C                    : 9.665836             -0.217064            10.196093
| 60>   O                    : 9.826703             -1.470879            10.780633
| 61>   H                    : 10.759762            -1.664107            10.755609
| 62>   H                    : 8.702707             0.283325             10.335303
| 63>   H                    : 10.272908            0.494257             10.775739
| 64>   H                    : 9.978906             -0.181398            9.110003
| 65>   C                      11.050227            0.772796             5.539049
| 66>   O                      10.238112            -0.218126            6.029420
| 67>   H                      10.180049            -1.012104            5.519935
| 68>   H                      10.797115            1.745447             6.036916
| 69>   H                      12.106579            0.611588             5.751595
| 70>   H                      10.959615            0.982066             4.442212
| 71> *
| 72>
| 73>                          ****END OF INPUT****
 Total Charge           Charge          ....    0
 Multiplicity           Mult            ....    1
 Number of Electrons    NEL             ....   36
Dispersion correction           -0.001032399
FINAL SINGLE POINT ENERGY      -231.464988424232
Dispersion correction           -0.000234701
FINAL SINGLE POINT ENERGY      -115.729928379955

CARTESIAN COORDINATES (ANGSTROEM)
---------------------------------
  C      9.665836   -0.217064   10.196093
  O      9.826703   -1.470879   10.780633
  H     10.759762   -1.664107   10.755609
  H      8.702707    0.283325   10.335303
  H     10.272908    0.494257   10.775739
  H      9.978906   -0.181398    9.110003
  C     11.050227    0.772796    5.539049
  O     10.238112   -0.218126    6.029420
  H     10.180049   -1.012104    5.519935
  H     10.797115    1.745447    6.036916
  H     12.106579    0.611588    5.751595
  H     10.959615    0.982066    4.442212

 Multiplicity           Mult            ....    1
 Number of Electrons    NEL             ....   18
 Basis Dimension        Dim             ....  172

ORBITAL ENERGIES
----------------

  NO   OCC          E(Eh)            E(eV)
   0   2.0000     -19.229102      -523.2505
   1   2.0000     -10.315412      -280.6966
   2   2.0000      -1.148355       -31.2483
   3   2.0000      -0.798177       -21.7195
   4   2.0000      -0.624121       -16.9832
   5   2.0000      -0.542448       -14.7608
   6   2.0000      -0.530346       -14.4314
   7   2.0000      -0.419796       -11.4232
   8   2.0000      -0.372983       -10.1494
   9   0.0000       0.096500         2.6259
  10   0.0000       0.120502         3.2790
  11   0.0000       0.151013         4.1093
  12   0.0000       0.172469         4.6931
  13   0.0000       0.193804         5.2737

MULLIKEN ATOMIC CHARGES
-----------------------
   0 C :    0.000837
   1 O :    0.000028
   2 H :   -0.000008
   3 H :   -0.000036
   4 H :   -0.000050
   5 H :   -0.004356
   6 C :   -0.146347
   7 O :   -0.476922
   8 H :    0.317883
   9 H :    0.113492
  10 H :    0.098666
  11 H :    0.096814
Sum of atomic charges:    0.0000000

LOEWDIN ATOMIC CHARGES
----------------------
   0 C :   -0.000862
   1 O :   -0.000014
   2 H :   -0.000002
   3 H :   -0.000009
   4 H :   -0.000005
   5 H :   -0.003962
   6 C :   -0.422826
   7 O :   -0.034736
   8 H :    0.161016
   9 H :    0.113757
  10 H :    0.090500
  11 H :    0.097145

  Mayer bond orders larger than 0.1
B(  6-C ,  7-O ) :   1.0006 B(  6-C ,  9-H ) :   0.9739 B(  6-C , 10-H ) :   0.9757
B(  6-C , 11-H ) :   0.9706 B(  7-O ,  8-H ) :   0.8920

Dispersion correction           -0.000263267
FINAL SINGLE POINT ENERGY      -115.733817760394

DIPOLE MOMENT
-------------
                                X             Y             Z
Electronic contribution:     -1.12378      -1.37201       0.71162
Nuclear contribution   :      1.38657       1.22306      -1.24762
                        -----------------------------------------
Total Dipole Moment    :      0.26279      -0.14895      -0.53600
                        -----------------------------------------
Magnitude (a.u.)       :      0.61526
Magnitude (Debye)      :      1.56385

Rotational constants in cm-1:     4.436856     0.849465     0.822955
Rotational constants in MHz : 133013.584080 25466.328426 24671.555712

                             ****ORCA TERMINATED NORMALLY****
TOTAL RUN TIME: 0 days 0 hours 5 minutes 38 seconds 413 msec
