                         Program Version 4.1.2  - RELEASE  -
|  1> #Run DFT-D3 single point of the dimer
|  2> ! wB97X-D3 def2-TZVP TIGHTSCF CHELPG PMODEL PAL8
|  3>
|  4> %base "14-199_DFT_AB"
|  5>
|  6> %scf
|  7> MaxIter 1000
|  8> end
|  9>
| 10> * xyz 0 1
| 11>   C                      -4.147170            7.823411             6.874374
| 12>   O                      -4.410788            9.215313             6.804372
| 13>   H                      -4.681902            9.463682             7.702422
| 14>   H                      -5.066764            7.234937             7.221026
| 15>   H                      -4.034257            7.479906             5.912013
| 16>   H                      -3.313547            7.589338             7.539297
| 17>   C                      -3.680242            8.806137             10.599047
| 18>   O                      -4.600693            9.066485             9.608935
| 19>   H                      -5.473170            8.996398             10.012302
| 20>   H                      -2.726101            8.570485             10.232073
| 21>   H                      -3.536562            9.749122             11.213602
| 22>   H                      -4.068055            8.049899             11.231237
| 23> *
| 24>
| 25> #Run DFT-D3 single point of the molecule with dimer basis set
| 26> $new_job
| 27> %base "14-199_DFT_A"
| 28> ! wB97X-D3 def2-TZVP TIGHTSCF CHELPG PMODEL
| 29>
| 30> %scf
| 31> MaxIter 1000
| 32> end
| 33>
| 34> * xyz 0 1
| 35>   C                      -4.147170            7.823411             6.874374
| 36>   O                      -4.410788            9.215313             6.804372
| 37>   H                      -4.681902            9.463682             7.702422
| 38>   H                      -5.066764            7.234937             7.221026
| 39>   H                      -4.034257            7.479906             5.912013
| 40>   H                      -3.313547            7.589338             7.539297
| 41>   C                    : -3.680242            8.806137             10.599047
| 42>   O                    : -4.600693            9.066485             9.608935
| 43>   H                    : -5.473170            8.996398             10.012302
| 44>   H                    : -2.726101            8.570485             10.232073
| 45>   H                    : -3.536562            9.749122             11.213602
| 46>   H                    : -4.068055            8.049899             11.231237
| 47> *
| 48>
| 49> #Run DFT-D3 single point of the particle with dimer basis set
| 50> $new_job
| 51> %base "14-199_DFT_B"
| 52> ! wB97X-D3 def2-TZVP TIGHTSCF CHELPG PMODEL
| 53>
| 54> %scf
| 55> MaxIter 1000
| 56> end
| 57>
| 58> * xyz 0 1
| 59>   C                    : -4.147170            7.823411             6.874374
| 60>   O                    : -4.410788            9.215313             6.804372
| 61>   H                    : -4.681902            9.463682             7.702422
| 62>   H                    : -5.066764            7.234937             7.221026
| 63>   H                    : -4.034257            7.479906             5.912013
| 64>   H                    : -3.313547            7.589338             7.539297
| 65>   C                      -3.680242            8.806137             10.599047
| 66>   O                      -4.600693            9.066485             9.608935
| 67>   H                      -5.473170            8.996398             10.012302
| 68>   H                      -2.726101            8.570485             10.232073
| 69>   H                      -3.536562            9.749122             11.213602
| 70>   H                      -4.068055            8.049899             11.231237
| 71> *
| 72>
| 73>                          ****END OF INPUT****
 Total Charge           Charge          ....    0
 Multiplicity           Mult            ....    1
 Number of Electrons    NEL             ....   36
Dispersion correction           -0.002084290
FINAL SINGLE POINT ENERGY      -231.470332359830
Dispersion correction           -0.000234910
FINAL SINGLE POINT ENERGY      -115.732056263583

CARTESIAN COORDINATES (ANGSTROEM)
---------------------------------
  C     -4.147170    7.823411    6.874374
  O     -4.410788    9.215313    6.804372
  H     -4.681902    9.463682    7.702422
  H     -5.066764    7.234937    7.221026
  H     -4.034257    7.479906    5.912013
  H     -3.313547    7.589338    7.539297
  C     -3.680242    8.806137   10.599047
  O     -4.600693    9.066485    9.608935
  H     -5.473170    8.996398   10.012302
  H     -2.726101    8.570485   10.232073
  H     -3.536562    9.749122   11.213602
  H     -4.068055    8.049899   11.231237

 Multiplicity           Mult            ....    1
 Number of Electrons    NEL             ....   18
 Basis Dimension        Dim             ....  172

ORBITAL ENERGIES
----------------

  NO   OCC          E(Eh)            E(eV)
   0   2.0000     -19.229388      -523.2582
   1   2.0000     -10.305829      -280.4359
   2   2.0000      -1.148879       -31.2626
   3   2.0000      -0.796193       -21.6655
   4   2.0000      -0.618966       -16.8429
   5   2.0000      -0.546718       -14.8770
   6   2.0000      -0.539899       -14.6914
   7   2.0000      -0.435488       -11.8502
   8   2.0000      -0.367101        -9.9893
   9   0.0000       0.098708         2.6860
  10   0.0000       0.129855         3.5335
  11   0.0000       0.156037         4.2460
  12   0.0000       0.192588         5.2406
  13   0.0000       0.199222         5.4211

MULLIKEN ATOMIC CHARGES
-----------------------
   0 C :    0.011657
   1 O :    0.000221
   2 H :   -0.011360
   3 H :   -0.007287
   4 H :   -0.000727
   5 H :   -0.004162
   6 C :   -0.153489
   7 O :   -0.461790
   8 H :    0.316751
   9 H :    0.119266
  10 H :    0.088079
  11 H :    0.102840
Sum of atomic charges:    0.0000000

LOEWDIN ATOMIC CHARGES
----------------------
   0 C :   -0.016621
   1 O :   -0.005885
   2 H :   -0.039398
   3 H :   -0.003028
   4 H :   -0.000247
   5 H :   -0.002419
   6 C :   -0.400644
   7 O :    0.002271
   8 H :    0.177556
   9 H :    0.096806
  10 H :    0.101241
  11 H :    0.090369

  Mayer bond orders larger than 0.1
B(  6-C ,  7-O ) :   0.9904 B(  6-C ,  9-H ) :   0.9775 B(  6-C , 10-H ) :   0.9768
B(  6-C , 11-H ) :   0.9843 B(  7-O ,  8-H ) :   0.8949

Dispersion correction           -0.000208042
FINAL SINGLE POINT ENERGY      -115.731546112333

DIPOLE MOMENT
-------------
                                X             Y             Z
Electronic contribution:     -1.02977       0.19817      -1.46078
Nuclear contribution   :      0.83028      -0.37004       2.08810
                        -----------------------------------------
Total Dipole Moment    :     -0.19949      -0.17188       0.62732
                        -----------------------------------------
Magnitude (a.u.)       :      0.68035
Magnitude (Debye)      :      1.72930

Rotational constants in cm-1:     4.336967     0.875743     0.843949
Rotational constants in MHz : 130018.999204 26254.109680 25300.948010

                             ****ORCA TERMINATED NORMALLY****
TOTAL RUN TIME: 0 days 0 hours 1 minutes 8 seconds 293 msec
