                         Program Version 4.1.2  - RELEASE  -
|  1> #Run DFT-D3 single point of the dimer
|  2> ! wB97X-D3 def2-TZVP TIGHTSCF CHELPG PMODEL PAL8
|  3>
|  4> %base "8-16_DFT_AB"
|  5>
|  6> %scf
|  7> MaxIter 1000
|  8> end
|  9>
| 10> * xyz 0 1
| 11>   C                      0.003535             -5.877715            10.140912
| 12>   O                      0.318346             -4.605744            10.783172
| 13>   H                      1.007645             -4.757691            11.420423
| 14>   H                      -0.478516            -5.721957            9.157673
| 15>   H                      0.881340             -6.498868            10.075310
| 16>   H                      -0.767575            -6.350094            10.780891
| 17>   C                      -0.275978            -1.399052            9.199394
| 18>   O                      -0.958128            -2.355190            10.019750
| 19>   H                      -0.339695            -3.022243            10.280683
| 20>   H                      -0.951116            -1.011180            8.357782
| 21>   H                      0.011920             -0.481083            9.730996
| 22>   H                      0.554783             -1.852173            8.677638
| 23> *
| 24>
| 25> #Run DFT-D3 single point of the molecule with dimer basis set
| 26> $new_job
| 27> %base "8-16_DFT_A"
| 28> ! wB97X-D3 def2-TZVP TIGHTSCF CHELPG PMODEL
| 29>
| 30> %scf
| 31> MaxIter 1000
| 32> end
| 33>
| 34> * xyz 0 1
| 35>   C                      0.003535             -5.877715            10.140912
| 36>   O                      0.318346             -4.605744            10.783172
| 37>   H                      1.007645             -4.757691            11.420423
| 38>   H                      -0.478516            -5.721957            9.157673
| 39>   H                      0.881340             -6.498868            10.075310
| 40>   H                      -0.767575            -6.350094            10.780891
| 41>   C                    : -0.275978            -1.399052            9.199394
| 42>   O                    : -0.958128            -2.355190            10.019750
| 43>   H                    : -0.339695            -3.022243            10.280683
| 44>   H                    : -0.951116            -1.011180            8.357782
| 45>   H                    : 0.011920             -0.481083            9.730996
| 46>   H                    : 0.554783             -1.852173            8.677638
| 47> *
| 48>
| 49> #Run DFT-D3 single point of the particle with dimer basis set
| 50> $new_job
| 51> %base "8-16_DFT_B"
| 52> ! wB97X-D3 def2-TZVP TIGHTSCF CHELPG PMODEL
| 53>
| 54> %scf
| 55> MaxIter 1000
| 56> end
| 57>
| 58> * xyz 0 1
| 59>   C                    : 0.003535             -5.877715            10.140912
| 60>   O                    : 0.318346             -4.605744            10.783172
| 61>   H                    : 1.007645             -4.757691            11.420423
| 62>   H                    : -0.478516            -5.721957            9.157673
| 63>   H                    : 0.881340             -6.498868            10.075310
| 64>   H                    : -0.767575            -6.350094            10.780891
| 65>   C                      -0.275978            -1.399052            9.199394
| 66>   O                      -0.958128            -2.355190            10.019750
| 67>   H                      -0.339695            -3.022243            10.280683
| 68>   H                      -0.951116            -1.011180            8.357782
| 69>   H                      0.011920             -0.481083            9.730996
| 70>   H                      0.554783             -1.852173            8.677638
| 71> *
| 72>
| 73>                          ****END OF INPUT****
 Total Charge           Charge          ....    0
 Multiplicity           Mult            ....    1
 Number of Electrons    NEL             ....   36
Dispersion correction           -0.001658438
FINAL SINGLE POINT ENERGY      -231.474926142109
Dispersion correction           -0.000249233
FINAL SINGLE POINT ENERGY      -115.733861643630

CARTESIAN COORDINATES (ANGSTROEM)
---------------------------------
  C      0.003535   -5.877715   10.140912
  O      0.318346   -4.605744   10.783172
  H      1.007645   -4.757691   11.420423
  H     -0.478516   -5.721957    9.157673
  H      0.881340   -6.498868   10.075310
  H     -0.767575   -6.350094   10.780891
  C     -0.275978   -1.399052    9.199394
  O     -0.958128   -2.355190   10.019750
  H     -0.339695   -3.022243   10.280683
  H     -0.951116   -1.011180    8.357782
  H      0.011920   -0.481083    9.730996
  H      0.554783   -1.852173    8.677638

 Multiplicity           Mult            ....    1
 Number of Electrons    NEL             ....   18
 Basis Dimension        Dim             ....  172

ORBITAL ENERGIES
----------------

  NO   OCC          E(Eh)            E(eV)
   0   2.0000     -19.231639      -523.3195
   1   2.0000     -10.319850      -280.8174
   2   2.0000      -1.134418       -30.8691
   3   2.0000      -0.795478       -21.6461
   4   2.0000      -0.611191       -16.6314
   5   2.0000      -0.541755       -14.7419
   6   2.0000      -0.520760       -14.1706
   7   2.0000      -0.432513       -11.7693
   8   2.0000      -0.376190       -10.2366
   9   0.0000       0.072506         1.9730
  10   0.0000       0.132180         3.5968
  11   0.0000       0.148662         4.0453
  12   0.0000       0.167575         4.5599
  13   0.0000       0.191181         5.2023

MULLIKEN ATOMIC CHARGES
-----------------------
   0 C :   -0.001667
   1 O :   -0.003401
   2 H :   -0.000157
   3 H :   -0.001658
   4 H :    0.000014
   5 H :    0.000153
   6 C :   -0.171672
   7 O :   -0.464028
   8 H :    0.310930
   9 H :    0.111875
  10 H :    0.110463
  11 H :    0.109147
Sum of atomic charges:    0.0000000

LOEWDIN ATOMIC CHARGES
----------------------
   0 C :   -0.004658
   1 O :   -0.028940
   2 H :   -0.001584
   3 H :   -0.001132
   4 H :   -0.000077
   5 H :   -0.000099
   6 C :   -0.377589
   7 O :   -0.065381
   8 H :    0.173184
   9 H :    0.114361
  10 H :    0.097457
  11 H :    0.094459

  Mayer bond orders larger than 0.1
B(  6-C ,  7-O ) :   1.0023 B(  6-C ,  9-H ) :   0.9733 B(  6-C , 10-H ) :   0.9734
B(  6-C , 11-H ) :   0.9788 B(  7-O ,  8-H ) :   0.9060

Dispersion correction           -0.000267022
FINAL SINGLE POINT ENERGY      -115.733247115315

DIPOLE MOMENT
-------------
                                X             Y             Z
Electronic contribution:     -0.90180      -1.19789       1.14111
Nuclear contribution   :      1.58445       1.15299      -1.32657
                        -----------------------------------------
Total Dipole Moment    :      0.68265      -0.04490      -0.18545
                        -----------------------------------------
Magnitude (a.u.)       :      0.70882
Magnitude (Debye)      :      1.80168

Rotational constants in cm-1:     4.312756     0.803122     0.777682
Rotational constants in MHz : 129293.159840 24076.982983 23314.329378

                             ****ORCA TERMINATED NORMALLY****
TOTAL RUN TIME: 0 days 0 hours 0 minutes 46 seconds 962 msec
