                         Program Version 4.1.2  - RELEASE  -
|  1> #Run DFT-D3 single point of the dimer
|  2> ! wB97X-D3 def2-TZVP TIGHTSCF CHELPG PMODEL PAL8
|  3>
|  4> %base "14-32_DFT_AB"
|  5>
|  6> %scf
|  7> MaxIter 1000
|  8> end
|  9>
| 10> * xyz 0 1
| 11>   C                      -0.612086            2.931693             -2.166030
| 12>   O                      -1.917891            3.394526             -2.096503
| 13>   H                      -2.283379            3.362468             -1.200627
| 14>   H                      -0.456620            1.838111             -2.061463
| 15>   H                      -0.083063            3.269453             -3.069938
| 16>   H                      -0.006313            3.238354             -1.311755
| 17>   C                      -2.993871            4.808309             1.070892
| 18>   O                      -3.326245            3.552007             0.491658
| 19>   H                      -4.295734            3.647251             0.335591
| 20>   H                      -3.327835            5.618493             0.369833
| 21>   H                      -3.499959            4.935140             1.987450
| 22>   H                      -1.906721            4.852058             1.179640
| 23> *
| 24>
| 25> #Run DFT-D3 single point of the molecule with dimer basis set
| 26> $new_job
| 27> %base "14-32_DFT_A"
| 28> ! wB97X-D3 def2-TZVP TIGHTSCF CHELPG PMODEL
| 29>
| 30> %scf
| 31> MaxIter 1000
| 32> end
| 33>
| 34> * xyz 0 1
| 35>   C                      -0.612086            2.931693             -2.166030
| 36>   O                      -1.917891            3.394526             -2.096503
| 37>   H                      -2.283379            3.362468             -1.200627
| 38>   H                      -0.456620            1.838111             -2.061463
| 39>   H                      -0.083063            3.269453             -3.069938
| 40>   H                      -0.006313            3.238354             -1.311755
| 41>   C                    : -2.993871            4.808309             1.070892
| 42>   O                    : -3.326245            3.552007             0.491658
| 43>   H                    : -4.295734            3.647251             0.335591
| 44>   H                    : -3.327835            5.618493             0.369833
| 45>   H                    : -3.499959            4.935140             1.987450
| 46>   H                    : -1.906721            4.852058             1.179640
| 47> *
| 48>
| 49> #Run DFT-D3 single point of the particle with dimer basis set
| 50> $new_job
| 51> %base "14-32_DFT_B"
| 52> ! wB97X-D3 def2-TZVP TIGHTSCF CHELPG PMODEL
| 53>
| 54> %scf
| 55> MaxIter 1000
| 56> end
| 57>
| 58> * xyz 0 1
| 59>   C                    : -0.612086            2.931693             -2.166030
| 60>   O                    : -1.917891            3.394526             -2.096503
| 61>   H                    : -2.283379            3.362468             -1.200627
| 62>   H                    : -0.456620            1.838111             -2.061463
| 63>   H                    : -0.083063            3.269453             -3.069938
| 64>   H                    : -0.006313            3.238354             -1.311755
| 65>   C                      -2.993871            4.808309             1.070892
| 66>   O                      -3.326245            3.552007             0.491658
| 67>   H                      -4.295734            3.647251             0.335591
| 68>   H                      -3.327835            5.618493             0.369833
| 69>   H                      -3.499959            4.935140             1.987450
| 70>   H                      -1.906721            4.852058             1.179640
| 71> *
| 72>
| 73>                          ****END OF INPUT****
 Total Charge           Charge          ....    0
 Multiplicity           Mult            ....    1
 Number of Electrons    NEL             ....   36
Dispersion correction           -0.001698360
FINAL SINGLE POINT ENERGY      -231.475837101331
Dispersion correction           -0.000258881
FINAL SINGLE POINT ENERGY      -115.732524985444

CARTESIAN COORDINATES (ANGSTROEM)
---------------------------------
  C     -0.612086    2.931693   -2.166030
  O     -1.917891    3.394526   -2.096503
  H     -2.283379    3.362468   -1.200627
  H     -0.456620    1.838111   -2.061463
  H     -0.083063    3.269453   -3.069938
  H     -0.006313    3.238354   -1.311755
  C     -2.993871    4.808309    1.070892
  O     -3.326245    3.552007    0.491658
  H     -4.295734    3.647251    0.335591
  H     -3.327835    5.618493    0.369833
  H     -3.499959    4.935140    1.987450
  H     -1.906721    4.852058    1.179640

 Multiplicity           Mult            ....    1
 Number of Electrons    NEL             ....   18
 Basis Dimension        Dim             ....  172

ORBITAL ENERGIES
----------------

  NO   OCC          E(Eh)            E(eV)
   0   2.0000     -19.232224      -523.3354
   1   2.0000     -10.312036      -280.6048
   2   2.0000      -1.132274       -30.8107
   3   2.0000      -0.790605       -21.5135
   4   2.0000      -0.606937       -16.5156
   5   2.0000      -0.544891       -14.8272
   6   2.0000      -0.523034       -14.2325
   7   2.0000      -0.441256       -12.0072
   8   2.0000      -0.372227       -10.1288
   9   0.0000       0.094642         2.5753
  10   0.0000       0.117746         3.2040
  11   0.0000       0.155778         4.2389
  12   0.0000       0.185315         5.0427
  13   0.0000       0.195408         5.3173

MULLIKEN ATOMIC CHARGES
-----------------------
   0 C :    0.000466
   1 O :   -0.003269
   2 H :   -0.005127
   3 H :   -0.000121
   4 H :   -0.000041
   5 H :   -0.000472
   6 C :   -0.169977
   7 O :   -0.469940
   8 H :    0.312977
   9 H :    0.101671
  10 H :    0.110732
  11 H :    0.123102
Sum of atomic charges:    0.0000000

LOEWDIN ATOMIC CHARGES
----------------------
   0 C :   -0.000961
   1 O :   -0.005083
   2 H :   -0.039627
   3 H :   -0.000029
   4 H :   -0.000017
   5 H :   -0.000101
   6 C :   -0.377481
   7 O :   -0.060473
   8 H :    0.185651
   9 H :    0.100902
  10 H :    0.087271
  11 H :    0.109947

  Mayer bond orders larger than 0.1
B(  6-C ,  7-O ) :   0.9758 B(  6-C ,  9-H ) :   0.9833 B(  6-C , 10-H ) :   0.9694
B(  6-C , 11-H ) :   0.9760 B(  7-O ,  8-H ) :   0.8992

Dispersion correction           -0.000211750
FINAL SINGLE POINT ENERGY      -115.733914881661

DIPOLE MOMENT
-------------
                                X             Y             Z
Electronic contribution:     -0.21291      -1.64588      -0.58929
Nuclear contribution   :     -0.24421       2.19695       0.74414
                        -----------------------------------------
Total Dipole Moment    :     -0.45712       0.55106       0.15486
                        -----------------------------------------
Magnitude (a.u.)       :      0.73254
Magnitude (Debye)      :      1.86197

Rotational constants in cm-1:     4.127631     0.840920     0.803055
Rotational constants in MHz : 123743.264455 25210.133311 24074.977955

                             ****ORCA TERMINATED NORMALLY****
TOTAL RUN TIME: 0 days 0 hours 1 minutes 10 seconds 739 msec
