                         Program Version 4.1.2  - RELEASE  -
|  1> #Run DFT-D3 single point of the dimer
|  2> ! wB97X-D3 def2-TZVP TIGHTSCF CHELPG PMODEL PAL8
|  3>
|  4> %base "13-4_DFT_AB"
|  5>
|  6> %scf
|  7> MaxIter 1000
|  8> end
|  9>
| 10> * xyz 0 1
| 11>   C                      -2.257604            -6.993449            -0.918277
| 12>   O                      -2.080523            -8.395982            -0.827367
| 13>   H                      -2.059170            -8.743386            0.111713
| 14>   H                      -1.423130            -6.407729            -0.539471
| 15>   H                      -2.370768            -6.724110            -2.003700
| 16>   H                      -3.147931            -6.621619            -0.383193
| 17>   C                      0.843463             -7.556602            -5.269930
| 18>   O                      -0.109867            -6.530455            -4.969174
| 19>   H                      -0.426746            -6.366069            -5.815214
| 20>   H                      1.214126             -7.455543            -6.328356
| 21>   H                      1.683593             -7.813830            -4.603900
| 22>   H                      0.279311             -8.509770            -5.307224
| 23> *
| 24>
| 25> #Run DFT-D3 single point of the molecule with dimer basis set
| 26> $new_job
| 27> %base "13-4_DFT_A"
| 28> ! wB97X-D3 def2-TZVP TIGHTSCF CHELPG PMODEL
| 29>
| 30> %scf
| 31> MaxIter 1000
| 32> end
| 33>
| 34> * xyz 0 1
| 35>   C                      -2.257604            -6.993449            -0.918277
| 36>   O                      -2.080523            -8.395982            -0.827367
| 37>   H                      -2.059170            -8.743386            0.111713
| 38>   H                      -1.423130            -6.407729            -0.539471
| 39>   H                      -2.370768            -6.724110            -2.003700
| 40>   H                      -3.147931            -6.621619            -0.383193
| 41>   C                    : 0.843463             -7.556602            -5.269930
| 42>   O                    : -0.109867            -6.530455            -4.969174
| 43>   H                    : -0.426746            -6.366069            -5.815214
| 44>   H                    : 1.214126             -7.455543            -6.328356
| 45>   H                    : 1.683593             -7.813830            -4.603900
| 46>   H                    : 0.279311             -8.509770            -5.307224
| 47> *
| 48>
| 49> #Run DFT-D3 single point of the particle with dimer basis set
| 50> $new_job
| 51> %base "13-4_DFT_B"
| 52> ! wB97X-D3 def2-TZVP TIGHTSCF CHELPG PMODEL
| 53>
| 54> %scf
| 55> MaxIter 1000
| 56> end
| 57>
| 58> * xyz 0 1
| 59>   C                    : -2.257604            -6.993449            -0.918277
| 60>   O                    : -2.080523            -8.395982            -0.827367
| 61>   H                    : -2.059170            -8.743386            0.111713
| 62>   H                    : -1.423130            -6.407729            -0.539471
| 63>   H                    : -2.370768            -6.724110            -2.003700
| 64>   H                    : -3.147931            -6.621619            -0.383193
| 65>   C                      0.843463             -7.556602            -5.269930
| 66>   O                      -0.109867            -6.530455            -4.969174
| 67>   H                      -0.426746            -6.366069            -5.815214
| 68>   H                      1.214126             -7.455543            -6.328356
| 69>   H                      1.683593             -7.813830            -4.603900
| 70>   H                      0.279311             -8.509770            -5.307224
| 71> *
| 72>
| 73>                          ****END OF INPUT****
 Total Charge           Charge          ....    0
 Multiplicity           Mult            ....    1
 Number of Electrons    NEL             ....   36
Dispersion correction           -0.000812949
FINAL SINGLE POINT ENERGY      -231.457481537107
Dispersion correction           -0.000274567
FINAL SINGLE POINT ENERGY      -115.733715288655

CARTESIAN COORDINATES (ANGSTROEM)
---------------------------------
  C     -2.257604   -6.993449   -0.918277
  O     -2.080523   -8.395982   -0.827367
  H     -2.059170   -8.743386    0.111713
  H     -1.423130   -6.407729   -0.539471
  H     -2.370768   -6.724110   -2.003700
  H     -3.147931   -6.621619   -0.383193
  C      0.843463   -7.556602   -5.269930
  O     -0.109867   -6.530455   -4.969174
  H     -0.426746   -6.366069   -5.815214
  H      1.214126   -7.455543   -6.328356
  H      1.683593   -7.813830   -4.603900
  H      0.279311   -8.509770   -5.307224

 Multiplicity           Mult            ....    1
 Number of Electrons    NEL             ....   18
 Basis Dimension        Dim             ....  172

ORBITAL ENERGIES
----------------

  NO   OCC          E(Eh)            E(eV)
   0   2.0000     -19.232119      -523.3326
   1   2.0000     -10.322465      -280.8885
   2   2.0000      -1.148240       -31.2452
   3   2.0000      -0.794340       -21.6151
   4   2.0000      -0.612715       -16.6728
   5   2.0000      -0.537563       -14.6278
   6   2.0000      -0.529555       -14.4099
   7   2.0000      -0.444907       -12.1065
   8   2.0000      -0.371890       -10.1196
   9   0.0000       0.094320         2.5666
  10   0.0000       0.114610         3.1187
  11   0.0000       0.149486         4.0677
  12   0.0000       0.172703         4.6995
  13   0.0000       0.190089         5.1726

MULLIKEN ATOMIC CHARGES
-----------------------
   0 C :    0.000599
   1 O :    0.000033
   2 H :    0.000002
   3 H :   -0.000007
   4 H :   -0.002409
   5 H :   -0.000074
   6 C :   -0.201339
   7 O :   -0.445771
   8 H :    0.308858
   9 H :    0.103154
  10 H :    0.130036
  11 H :    0.106918
Sum of atomic charges:    0.0000000

LOEWDIN ATOMIC CHARGES
----------------------
   0 C :   -0.000345
   1 O :   -0.000009
   2 H :   -0.000000
   3 H :   -0.000012
   4 H :   -0.001012
   5 H :   -0.000006
   6 C :   -0.386815
   7 O :   -0.066986
   8 H :    0.146238
   9 H :    0.101899
  10 H :    0.108806
  11 H :    0.098242

  Mayer bond orders larger than 0.1
B(  6-C ,  7-O ) :   0.9892 B(  6-C ,  9-H ) :   0.9837 B(  6-C , 10-H ) :   0.9677
B(  6-C , 11-H ) :   0.9803 B(  7-O ,  8-H ) :   0.9104

Dispersion correction           -0.000238284
FINAL SINGLE POINT ENERGY      -115.723288170326

DIPOLE MOMENT
-------------
                                X             Y             Z
Electronic contribution:     -1.09100       1.53507       0.70406
Nuclear contribution   :      1.26816      -1.84862      -1.36047
                        -----------------------------------------
Total Dipole Moment    :      0.17715      -0.31354      -0.65641
                        -----------------------------------------
Magnitude (a.u.)       :      0.74871
Magnitude (Debye)      :      1.90307

Rotational constants in cm-1:     4.359261     0.814757     0.778483
Rotational constants in MHz : 130687.350646 24425.796687 23338.329845

                             ****ORCA TERMINATED NORMALLY****
TOTAL RUN TIME: 0 days 0 hours 1 minutes 9 seconds 198 msec
