                         Program Version 4.1.2  - RELEASE  -
|  1> #Run DFT-D3 single point of the dimer
|  2> ! wB97X-D3 def2-TZVP TIGHTSCF CHELPG PMODEL PAL8
|  3>
|  4> %base "12-171_DFT_AB"
|  5>
|  6> %scf
|  7> MaxIter 1000
|  8> end
|  9>
| 10> * xyz 0 1
| 11>   C                      -9.196187            -3.082035            -0.591072
| 12>   O                      -8.343621            -4.299736            -0.657139
| 13>   H                      -8.896011            -5.028144            -1.048682
| 14>   H                      -9.822898            -3.090126            -1.493331
| 15>   H                      -9.718043            -2.902600            0.356550
| 16>   H                      -8.586075            -2.208660            -0.610090
| 17>   C                      -5.552528            -5.978143            -1.411383
| 18>   O                      -5.555377            -5.386850            -0.164199
| 19>   H                      -6.448163            -4.934759            0.027422
| 20>   H                      -6.388776            -6.694075            -1.548613
| 21>   H                      -5.631789            -5.249552            -2.203677
| 22>   H                      -4.609903            -6.444111            -1.591280
| 23> *
| 24>
| 25> #Run DFT-D3 single point of the molecule with dimer basis set
| 26> $new_job
| 27> %base "12-171_DFT_A"
| 28> ! wB97X-D3 def2-TZVP TIGHTSCF CHELPG PMODEL
| 29>
| 30> %scf
| 31> MaxIter 1000
| 32> end
| 33>
| 34> * xyz 0 1
| 35>   C                      -9.196187            -3.082035            -0.591072
| 36>   O                      -8.343621            -4.299736            -0.657139
| 37>   H                      -8.896011            -5.028144            -1.048682
| 38>   H                      -9.822898            -3.090126            -1.493331
| 39>   H                      -9.718043            -2.902600            0.356550
| 40>   H                      -8.586075            -2.208660            -0.610090
| 41>   C                    : -5.552528            -5.978143            -1.411383
| 42>   O                    : -5.555377            -5.386850            -0.164199
| 43>   H                    : -6.448163            -4.934759            0.027422
| 44>   H                    : -6.388776            -6.694075            -1.548613
| 45>   H                    : -5.631789            -5.249552            -2.203677
| 46>   H                    : -4.609903            -6.444111            -1.591280
| 47> *
| 48>
| 49> #Run DFT-D3 single point of the particle with dimer basis set
| 50> $new_job
| 51> %base "12-171_DFT_B"
| 52> ! wB97X-D3 def2-TZVP TIGHTSCF CHELPG PMODEL
| 53>
| 54> %scf
| 55> MaxIter 1000
| 56> end
| 57>
| 58> * xyz 0 1
| 59>   C                    : -9.196187            -3.082035            -0.591072
| 60>   O                    : -8.343621            -4.299736            -0.657139
| 61>   H                    : -8.896011            -5.028144            -1.048682
| 62>   H                    : -9.822898            -3.090126            -1.493331
| 63>   H                    : -9.718043            -2.902600            0.356550
| 64>   H                    : -8.586075            -2.208660            -0.610090
| 65>   C                      -5.552528            -5.978143            -1.411383
| 66>   O                      -5.555377            -5.386850            -0.164199
| 67>   H                      -6.448163            -4.934759            0.027422
| 68>   H                      -6.388776            -6.694075            -1.548613
| 69>   H                      -5.631789            -5.249552            -2.203677
| 70>   H                      -4.609903            -6.444111            -1.591280
| 71> *
| 72>
| 73>                          ****END OF INPUT****
 Total Charge           Charge          ....    0
 Multiplicity           Mult            ....    1
 Number of Electrons    NEL             ....   36
Dispersion correction           -0.001749536
FINAL SINGLE POINT ENERGY      -231.468270765459
Dispersion correction           -0.000279452
FINAL SINGLE POINT ENERGY      -115.727706781700

CARTESIAN COORDINATES (ANGSTROEM)
---------------------------------
  C     -9.196187   -3.082035   -0.591072
  O     -8.343621   -4.299736   -0.657139
  H     -8.896011   -5.028144   -1.048682
  H     -9.822898   -3.090126   -1.493331
  H     -9.718043   -2.902600    0.356550
  H     -8.586075   -2.208660   -0.610090
  C     -5.552528   -5.978143   -1.411383
  O     -5.555377   -5.386850   -0.164199
  H     -6.448163   -4.934759    0.027422
  H     -6.388776   -6.694075   -1.548613
  H     -5.631789   -5.249552   -2.203677
  H     -4.609903   -6.444111   -1.591280

 Multiplicity           Mult            ....    1
 Number of Electrons    NEL             ....   18
 Basis Dimension        Dim             ....  172

ORBITAL ENERGIES
----------------

  NO   OCC          E(Eh)            E(eV)
   0   2.0000     -19.234149      -523.3878
   1   2.0000     -10.306694      -280.4594
   2   2.0000      -1.135094       -30.8875
   3   2.0000      -0.792879       -21.5753
   4   2.0000      -0.611432       -16.6379
   5   2.0000      -0.543983       -14.8025
   6   2.0000      -0.532457       -14.4889
   7   2.0000      -0.427769       -11.6402
   8   2.0000      -0.368991       -10.0407
   9   0.0000       0.067260         1.8302
  10   0.0000       0.123390         3.3576
  11   0.0000       0.147422         4.0116
  12   0.0000       0.169822         4.6211
  13   0.0000       0.191483         5.2105

MULLIKEN ATOMIC CHARGES
-----------------------
   0 C :   -0.001555
   1 O :   -0.003589
   2 H :   -0.000100
   3 H :    0.000021
   4 H :    0.000075
   5 H :   -0.000005
   6 C :   -0.146049
   7 O :   -0.480706
   8 H :    0.322397
   9 H :    0.094112
  10 H :    0.093019
  11 H :    0.122381
Sum of atomic charges:    0.0000000

LOEWDIN ATOMIC CHARGES
----------------------
   0 C :   -0.001327
   1 O :   -0.014455
   2 H :   -0.001249
   3 H :   -0.000033
   4 H :   -0.000028
   5 H :   -0.000093
   6 C :   -0.411878
   7 O :   -0.070324
   8 H :    0.209470
   9 H :    0.096141
  10 H :    0.089541
  11 H :    0.104234

  Mayer bond orders larger than 0.1
B(  6-C ,  7-O ) :   0.9977 B(  6-C ,  9-H ) :   0.9802 B(  6-C , 10-H ) :   0.9798
B(  6-C , 11-H ) :   0.9719 B(  7-O ,  8-H ) :   0.8899

Dispersion correction           -0.000237190
FINAL SINGLE POINT ENERGY      -115.732257274801

DIPOLE MOMENT
-------------
                                X             Y             Z
Electronic contribution:      0.17654       0.68338       1.69740
Nuclear contribution   :     -0.70657      -0.61991      -2.05773
                        -----------------------------------------
Total Dipole Moment    :     -0.53003       0.06347      -0.36033
                        -----------------------------------------
Magnitude (a.u.)       :      0.64405
Magnitude (Debye)      :      1.63704

Rotational constants in cm-1:     4.319985     0.858450     0.823134
Rotational constants in MHz : 129509.889934 25735.679247 24676.937699

                             ****ORCA TERMINATED NORMALLY****
TOTAL RUN TIME: 0 days 0 hours 1 minutes 11 seconds 684 msec
