                         Program Version 4.1.2  - RELEASE  -
|  1> #Run DFT-D3 single point of the dimer
|  2> ! wB97X-D3 def2-TZVP TIGHTSCF CHELPG PMODEL PAL8
|  3>
|  4> %base "9-101_DFT_AB"
|  5>
|  6> %scf
|  7> MaxIter 1000
|  8> end
|  9>
| 10> * xyz 0 1
| 11>   C                      6.482871             0.175619             -3.124092
| 12>   O                      5.876064             1.479061             -3.086430
| 13>   H                      5.127288             1.460981             -2.485195
| 14>   H                      6.305677             -0.243266            -2.102666
| 15>   H                      5.921835             -0.472918            -3.836024
| 16>   H                      7.590044             0.153542             -3.268757
| 17>   C                      3.223272             -2.438549            -3.423664
| 18>   O                      3.022313             -1.536234            -2.328984
| 19>   H                      3.613779             -1.773464            -1.680100
| 20>   H                      4.288692             -2.640440            -3.533088
| 21>   H                      2.703304             -3.430729            -3.213615
| 22>   H                      2.902876             -2.032643            -4.407125
| 23> *
| 24>
| 25> #Run DFT-D3 single point of the molecule with dimer basis set
| 26> $new_job
| 27> %base "9-101_DFT_A"
| 28> ! wB97X-D3 def2-TZVP TIGHTSCF CHELPG PMODEL
| 29>
| 30> %scf
| 31> MaxIter 1000
| 32> end
| 33>
| 34> * xyz 0 1
| 35>   C                      6.482871             0.175619             -3.124092
| 36>   O                      5.876064             1.479061             -3.086430
| 37>   H                      5.127288             1.460981             -2.485195
| 38>   H                      6.305677             -0.243266            -2.102666
| 39>   H                      5.921835             -0.472918            -3.836024
| 40>   H                      7.590044             0.153542             -3.268757
| 41>   C                    : 3.223272             -2.438549            -3.423664
| 42>   O                    : 3.022313             -1.536234            -2.328984
| 43>   H                    : 3.613779             -1.773464            -1.680100
| 44>   H                    : 4.288692             -2.640440            -3.533088
| 45>   H                    : 2.703304             -3.430729            -3.213615
| 46>   H                    : 2.902876             -2.032643            -4.407125
| 47> *
| 48>
| 49> #Run DFT-D3 single point of the particle with dimer basis set
| 50> $new_job
| 51> %base "9-101_DFT_B"
| 52> ! wB97X-D3 def2-TZVP TIGHTSCF CHELPG PMODEL
| 53>
| 54> %scf
| 55> MaxIter 1000
| 56> end
| 57>
| 58> * xyz 0 1
| 59>   C                    : 6.482871             0.175619             -3.124092
| 60>   O                    : 5.876064             1.479061             -3.086430
| 61>   H                    : 5.127288             1.460981             -2.485195
| 62>   H                    : 6.305677             -0.243266            -2.102666
| 63>   H                    : 5.921835             -0.472918            -3.836024
| 64>   H                    : 7.590044             0.153542             -3.268757
| 65>   C                      3.223272             -2.438549            -3.423664
| 66>   O                      3.022313             -1.536234            -2.328984
| 67>   H                      3.613779             -1.773464            -1.680100
| 68>   H                      4.288692             -2.640440            -3.533088
| 69>   H                      2.703304             -3.430729            -3.213615
| 70>   H                      2.902876             -2.032643            -4.407125
| 71> *
| 72>
| 73>                          ****END OF INPUT****
 Total Charge           Charge          ....    0
 Multiplicity           Mult            ....    1
 Number of Electrons    NEL             ....   36
Dispersion correction           -0.001696107
FINAL SINGLE POINT ENERGY      -231.463669948879
Dispersion correction           -0.000249290
FINAL SINGLE POINT ENERGY      -115.730366468368

CARTESIAN COORDINATES (ANGSTROEM)
---------------------------------
  C      6.482871    0.175619   -3.124092
  O      5.876064    1.479061   -3.086430
  H      5.127288    1.460981   -2.485195
  H      6.305677   -0.243266   -2.102666
  H      5.921835   -0.472918   -3.836024
  H      7.590044    0.153542   -3.268757
  C      3.223272   -2.438549   -3.423664
  O      3.022313   -1.536234   -2.328984
  H      3.613779   -1.773464   -1.680100
  H      4.288692   -2.640440   -3.533088
  H      2.703304   -3.430729   -3.213615
  H      2.902876   -2.032643   -4.407125

 Multiplicity           Mult            ....    1
 Number of Electrons    NEL             ....   18
 Basis Dimension        Dim             ....  172

ORBITAL ENERGIES
----------------

  NO   OCC          E(Eh)            E(eV)
   0   2.0000     -19.226884      -523.1901
   1   2.0000     -10.322527      -280.8902
   2   2.0000      -1.143262       -31.1097
   3   2.0000      -0.796317       -21.6689
   4   2.0000      -0.613228       -16.6868
   5   2.0000      -0.538367       -14.6497
   6   2.0000      -0.527636       -14.3577
   7   2.0000      -0.435751       -11.8574
   8   2.0000      -0.375973       -10.2307
   9   0.0000       0.083138         2.2623
  10   0.0000       0.131937         3.5902
  11   0.0000       0.146776         3.9940
  12   0.0000       0.168501         4.5851
  13   0.0000       0.194090         5.2814

MULLIKEN ATOMIC CHARGES
-----------------------
   0 C :   -0.003084
   1 O :    0.000646
   2 H :   -0.001212
   3 H :   -0.001741
   4 H :    0.001599
   5 H :   -0.000160
   6 C :   -0.175822
   7 O :   -0.461190
   8 H :    0.304321
   9 H :    0.108474
  10 H :    0.107628
  11 H :    0.120540
Sum of atomic charges:   -0.0000000

LOEWDIN ATOMIC CHARGES
----------------------
   0 C :   -0.002923
   1 O :   -0.000089
   2 H :   -0.001121
   3 H :   -0.000978
   4 H :   -0.001389
   5 H :   -0.000066
   6 C :   -0.373221
   7 O :   -0.062767
   8 H :    0.133528
   9 H :    0.094531
  10 H :    0.103915
  11 H :    0.110581

  Mayer bond orders larger than 0.1
B(  6-C ,  7-O ) :   0.9897 B(  6-C ,  9-H ) :   0.9818 B(  6-C , 10-H ) :   0.9730
B(  6-C , 11-H ) :   0.9722 B(  7-O ,  8-H ) :   0.9135

Dispersion correction           -0.000247424
FINAL SINGLE POINT ENERGY      -115.731492376196

DIPOLE MOMENT
-------------
                                X             Y             Z
Electronic contribution:     -0.39137       1.26970       1.30499
Nuclear contribution   :      0.87961      -1.78494      -1.33758
                        -----------------------------------------
Total Dipole Moment    :      0.48824      -0.51524      -0.03259
                        -----------------------------------------
Magnitude (a.u.)       :      0.71057
Magnitude (Debye)      :      1.80612

Rotational constants in cm-1:     4.263072     0.808405     0.787162
Rotational constants in MHz : 127803.679176 24235.376692 23598.532294

                             ****ORCA TERMINATED NORMALLY****
TOTAL RUN TIME: 0 days 0 hours 0 minutes 40 seconds 93 msec
