                         Program Version 4.1.2  - RELEASE  -
|  1> #Run DFT-D3 single point of the dimer
|  2> ! wB97X-D3 def2-TZVP TIGHTSCF CHELPG PMODEL PAL8
|  3>
|  4> %base "9-136_DFT_AB"
|  5>
|  6> %scf
|  7> MaxIter 1000
|  8> end
|  9>
| 10> * xyz 0 1
| 11>   C                      -4.397125            -7.593060            -10.839823
| 12>   O                      -4.202316            -8.964188            -11.107021
| 13>   H                      -5.042504            -9.349486            -11.080620
| 14>   H                      -5.053239            -7.373010            -10.011849
| 15>   H                      -3.476378            -7.130394            -10.584298
| 16>   H                      -4.792753            -7.068452            -11.742962
| 17>   C                      -8.680433            -5.354804            -10.329270
| 18>   O                      -7.416622            -5.653271            -10.916277
| 19>   H                      -7.543973            -5.688612            -11.859325
| 20>   H                      -8.566519            -4.921845            -9.377423
| 21>   H                      -9.152901            -4.663491            -10.964700
| 22>   H                      -9.293668            -6.336135            -10.267188
| 23> *
| 24>
| 25> #Run DFT-D3 single point of the molecule with dimer basis set
| 26> $new_job
| 27> %base "9-136_DFT_A"
| 28> ! wB97X-D3 def2-TZVP TIGHTSCF CHELPG PMODEL
| 29>
| 30> %scf
| 31> MaxIter 1000
| 32> end
| 33>
| 34> * xyz 0 1
| 35>   C                      -4.397125            -7.593060            -10.839823
| 36>   O                      -4.202316            -8.964188            -11.107021
| 37>   H                      -5.042504            -9.349486            -11.080620
| 38>   H                      -5.053239            -7.373010            -10.011849
| 39>   H                      -3.476378            -7.130394            -10.584298
| 40>   H                      -4.792753            -7.068452            -11.742962
| 41>   C                    : -8.680433            -5.354804            -10.329270
| 42>   O                    : -7.416622            -5.653271            -10.916277
| 43>   H                    : -7.543973            -5.688612            -11.859325
| 44>   H                    : -8.566519            -4.921845            -9.377423
| 45>   H                    : -9.152901            -4.663491            -10.964700
| 46>   H                    : -9.293668            -6.336135            -10.267188
| 47> *
| 48>
| 49> #Run DFT-D3 single point of the particle with dimer basis set
| 50> $new_job
| 51> %base "9-136_DFT_B"
| 52> ! wB97X-D3 def2-TZVP TIGHTSCF CHELPG PMODEL
| 53>
| 54> %scf
| 55> MaxIter 1000
| 56> end
| 57>
| 58> * xyz 0 1
| 59>   C                    : -4.397125            -7.593060            -10.839823
| 60>   O                    : -4.202316            -8.964188            -11.107021
| 61>   H                    : -5.042504            -9.349486            -11.080620
| 62>   H                    : -5.053239            -7.373010            -10.011849
| 63>   H                    : -3.476378            -7.130394            -10.584298
| 64>   H                    : -4.792753            -7.068452            -11.742962
| 65>   C                      -8.680433            -5.354804            -10.329270
| 66>   O                      -7.416622            -5.653271            -10.916277
| 67>   H                      -7.543973            -5.688612            -11.859325
| 68>   H                      -8.566519            -4.921845            -9.377423
| 69>   H                      -9.152901            -4.663491            -10.964700
| 70>   H                      -9.293668            -6.336135            -10.267188
| 71> *
| 72>
| 73>                          ****END OF INPUT****
 Total Charge           Charge          ....    0
 Multiplicity           Mult            ....    1
 Number of Electrons    NEL             ....   36
Dispersion correction           -0.001281472
FINAL SINGLE POINT ENERGY      -231.467095954088
Dispersion correction           -0.000235239
FINAL SINGLE POINT ENERGY      -115.734342581611

CARTESIAN COORDINATES (ANGSTROEM)
---------------------------------
  C     -4.397125   -7.593060  -10.839823
  O     -4.202316   -8.964188  -11.107021
  H     -5.042504   -9.349486  -11.080620
  H     -5.053239   -7.373010  -10.011849
  H     -3.476378   -7.130394  -10.584298
  H     -4.792753   -7.068452  -11.742962
  C     -8.680433   -5.354804  -10.329270
  O     -7.416622   -5.653271  -10.916277
  H     -7.543973   -5.688612  -11.859325
  H     -8.566519   -4.921845   -9.377423
  H     -9.152901   -4.663491  -10.964700
  H     -9.293668   -6.336135  -10.267188

 Multiplicity           Mult            ....    1
 Number of Electrons    NEL             ....   18
 Basis Dimension        Dim             ....  172

ORBITAL ENERGIES
----------------

  NO   OCC          E(Eh)            E(eV)
   0   2.0000     -19.226223      -523.1721
   1   2.0000     -10.312155      -280.6080
   2   2.0000      -1.134052       -30.8591
   3   2.0000      -0.797728       -21.7073
   4   2.0000      -0.609039       -16.5728
   5   2.0000      -0.539721       -14.6865
   6   2.0000      -0.534719       -14.5504
   7   2.0000      -0.435127       -11.8404
   8   2.0000      -0.370976       -10.0948
   9   0.0000       0.095439         2.5970
  10   0.0000       0.122402         3.3307
  11   0.0000       0.156173         4.2497
  12   0.0000       0.177999         4.8436
  13   0.0000       0.195169         5.3108

MULLIKEN ATOMIC CHARGES
-----------------------
   0 C :    0.003231
   1 O :    0.000080
   2 H :   -0.000151
   3 H :   -0.004741
   4 H :   -0.000636
   5 H :   -0.003128
   6 C :   -0.163725
   7 O :   -0.470939
   8 H :    0.312171
   9 H :    0.124813
  10 H :    0.107543
  11 H :    0.095482
Sum of atomic charges:    0.0000000

LOEWDIN ATOMIC CHARGES
----------------------
   0 C :   -0.005854
   1 O :   -0.000032
   2 H :   -0.000039
   3 H :   -0.003462
   4 H :   -0.000072
   5 H :   -0.001995
   6 C :   -0.365479
   7 O :   -0.077978
   8 H :    0.162801
   9 H :    0.097307
  10 H :    0.087853
  11 H :    0.106951

  Mayer bond orders larger than 0.1
B(  6-C ,  7-O ) :   0.9922 B(  6-C ,  9-H ) :   0.9732 B(  6-C , 10-H ) :   0.9833
B(  6-C , 11-H ) :   0.9754 B(  7-O ,  8-H ) :   0.9021

Dispersion correction           -0.000226560
FINAL SINGLE POINT ENERGY      -115.731241462828

DIPOLE MOMENT
-------------
                                X             Y             Z
Electronic contribution:      1.62999      -0.24561      -0.51600
Nuclear contribution   :     -2.22377       0.40061       0.15169
                        -----------------------------------------
Total Dipole Moment    :     -0.59378       0.15499      -0.36431
                        -----------------------------------------
Magnitude (a.u.)       :      0.71366
Magnitude (Debye)      :      1.81398

Rotational constants in cm-1:     4.252186     0.826654     0.806190
Rotational constants in MHz : 127477.336419 24782.467956 24168.970763

                             ****ORCA TERMINATED NORMALLY****
TOTAL RUN TIME: 0 days 0 hours 0 minutes 41 seconds 938 msec
