                         Program Version 4.1.2  - RELEASE  -
|  1> #Run DFT-D3 single point of the dimer
|  2> ! wB97X-D3 def2-TZVP TIGHTSCF CHELPG PMODEL PAL8
|  3>
|  4> %base "20-165_DFT_AB"
|  5>
|  6> %scf
|  7> MaxIter 1000
|  8> end
|  9>
| 10> * xyz 0 1
| 11>   C                      -4.577794            -8.204555            0.758113
| 12>   O                      -3.963812            -6.878370            0.949898
| 13>   H                      -4.601478            -6.202893            0.636504
| 14>   H                      -4.823748            -8.459030            -0.313163
| 15>   H                      -3.861738            -8.947558            1.107325
| 16>   H                      -5.539757            -8.212242            1.264604
| 17>   C                      -6.826879            -4.018739            -0.087130
| 18>   O                      -6.198278            -4.970854            0.736320
| 19>   H                      -5.765624            -4.521094            1.457970
| 20>   H                      -6.457345            -3.047457            0.212081
| 21>   H                      -6.720322            -4.081196            -1.169037
| 22>   H                      -7.908160            -4.056641            0.147023
| 23> *
| 24>
| 25> #Run DFT-D3 single point of the molecule with dimer basis set
| 26> $new_job
| 27> %base "20-165_DFT_A"
| 28> ! wB97X-D3 def2-TZVP TIGHTSCF CHELPG PMODEL
| 29>
| 30> %scf
| 31> MaxIter 1000
| 32> end
| 33>
| 34> * xyz 0 1
| 35>   C                      -4.577794            -8.204555            0.758113
| 36>   O                      -3.963812            -6.878370            0.949898
| 37>   H                      -4.601478            -6.202893            0.636504
| 38>   H                      -4.823748            -8.459030            -0.313163
| 39>   H                      -3.861738            -8.947558            1.107325
| 40>   H                      -5.539757            -8.212242            1.264604
| 41>   C                    : -6.826879            -4.018739            -0.087130
| 42>   O                    : -6.198278            -4.970854            0.736320
| 43>   H                    : -5.765624            -4.521094            1.457970
| 44>   H                    : -6.457345            -3.047457            0.212081
| 45>   H                    : -6.720322            -4.081196            -1.169037
| 46>   H                    : -7.908160            -4.056641            0.147023
| 47> *
| 48>
| 49> #Run DFT-D3 single point of the particle with dimer basis set
| 50> $new_job
| 51> %base "20-165_DFT_B"
| 52> ! wB97X-D3 def2-TZVP TIGHTSCF CHELPG PMODEL
| 53>
| 54> %scf
| 55> MaxIter 1000
| 56> end
| 57>
| 58> * xyz 0 1
| 59>   C                    : -4.577794            -8.204555            0.758113
| 60>   O                    : -3.963812            -6.878370            0.949898
| 61>   H                    : -4.601478            -6.202893            0.636504
| 62>   H                    : -4.823748            -8.459030            -0.313163
| 63>   H                    : -3.861738            -8.947558            1.107325
| 64>   H                    : -5.539757            -8.212242            1.264604
| 65>   C                      -6.826879            -4.018739            -0.087130
| 66>   O                      -6.198278            -4.970854            0.736320
| 67>   H                      -5.765624            -4.521094            1.457970
| 68>   H                      -6.457345            -3.047457            0.212081
| 69>   H                      -6.720322            -4.081196            -1.169037
| 70>   H                      -7.908160            -4.056641            0.147023
| 71> *
| 72>
| 73>                          ****END OF INPUT****
 Total Charge           Charge          ....    0
 Multiplicity           Mult            ....    1
 Number of Electrons    NEL             ....   36
Dispersion correction           -0.001560056
FINAL SINGLE POINT ENERGY      -231.472331232262
Dispersion correction           -0.000269330
FINAL SINGLE POINT ENERGY      -115.733062577648

CARTESIAN COORDINATES (ANGSTROEM)
---------------------------------
  C     -4.577794   -8.204555    0.758113
  O     -3.963812   -6.878370    0.949898
  H     -4.601478   -6.202893    0.636504
  H     -4.823748   -8.459030   -0.313163
  H     -3.861738   -8.947558    1.107325
  H     -5.539757   -8.212242    1.264604
  C     -6.826879   -4.018739   -0.087130
  O     -6.198278   -4.970854    0.736320
  H     -5.765624   -4.521094    1.457970
  H     -6.457345   -3.047457    0.212081
  H     -6.720322   -4.081196   -1.169037
  H     -7.908160   -4.056641    0.147023

 Multiplicity           Mult            ....    1
 Number of Electrons    NEL             ....   18
 Basis Dimension        Dim             ....  172

ORBITAL ENERGIES
----------------

  NO   OCC          E(Eh)            E(eV)
   0   2.0000     -19.229337      -523.2569
   1   2.0000     -10.313420      -280.6424
   2   2.0000      -1.139988       -31.0206
   3   2.0000      -0.796740       -21.6804
   4   2.0000      -0.615444       -16.7471
   5   2.0000      -0.541801       -14.7432
   6   2.0000      -0.535744       -14.5783
   7   2.0000      -0.428307       -11.6548
   8   2.0000      -0.372522       -10.1368
   9   0.0000       0.098854         2.6900
  10   0.0000       0.121341         3.3019
  11   0.0000       0.153633         4.1806
  12   0.0000       0.191379         5.2077
  13   0.0000       0.199526         5.4294

MULLIKEN ATOMIC CHARGES
-----------------------
   0 C :    0.004847
   1 O :    0.002351
   2 H :   -0.021457
   3 H :   -0.000728
   4 H :   -0.000130
   5 H :   -0.002822
   6 C :   -0.164531
   7 O :   -0.460884
   8 H :    0.320259
   9 H :    0.096366
  10 H :    0.120895
  11 H :    0.105835
Sum of atomic charges:    0.0000000

LOEWDIN ATOMIC CHARGES
----------------------
   0 C :   -0.003184
   1 O :   -0.004300
   2 H :   -0.038210
   3 H :   -0.000124
   4 H :   -0.000041
   5 H :   -0.001212
   6 C :   -0.385724
   7 O :   -0.035875
   8 H :    0.170722
   9 H :    0.094100
  10 H :    0.101630
  11 H :    0.102218

  Mayer bond orders larger than 0.1
B(  6-C ,  7-O ) :   0.9987 B(  6-C ,  9-H ) :   0.9916 B(  6-C , 10-H ) :   0.9694
B(  6-C , 11-H ) :   0.9769 B(  7-O ,  8-H ) :   0.8956

Dispersion correction           -0.000238136
FINAL SINGLE POINT ENERGY      -115.731506359677

DIPOLE MOMENT
-------------
                                X             Y             Z
Electronic contribution:      0.83422      -1.37739       0.86573
Nuclear contribution   :     -0.79939       2.07910      -0.72003
                        -----------------------------------------
Total Dipole Moment    :      0.03483       0.70171       0.14570
                        -----------------------------------------
Magnitude (a.u.)       :      0.71752
Magnitude (Debye)      :      1.82379

Rotational constants in cm-1:     4.390821     0.834444     0.807399
Rotational constants in MHz : 131633.514998 25016.012572 24205.199163

                             ****ORCA TERMINATED NORMALLY****
TOTAL RUN TIME: 0 days 0 hours 1 minutes 1 seconds 144 msec
