                         Program Version 4.1.2  - RELEASE  -
|  1> #Run DFT-D3 single point of the dimer
|  2> ! wB97X-D3 def2-TZVP TIGHTSCF CHELPG PMODEL PAL8
|  3>
|  4> %base "18-107_DFT_AB"
|  5>
|  6> %scf
|  7> MaxIter 1000
|  8> end
|  9>
| 10> * xyz 0 1
| 11>   C                      -6.192142            3.316149             -6.809267
| 12>   O                      -7.336972            3.537002             -7.548146
| 13>   H                      -7.789556            2.702504             -7.730848
| 14>   H                      -5.550803            2.508840             -7.203394
| 15>   H                      -5.617500            4.249866             -6.681300
| 16>   H                      -6.487296            3.059654             -5.826811
| 17>   C                      -7.665083            6.775921             -4.890714
| 18>   O                      -6.306933            7.193656             -4.919434
| 19>   H                      -5.876818            6.386052             -5.075891
| 20>   H                      -7.679441            5.712841             -4.702631
| 21>   H                      -8.222908            7.329902             -4.165676
| 22>   H                      -8.192005            6.987732             -5.810565
| 23> *
| 24>
| 25> #Run DFT-D3 single point of the molecule with dimer basis set
| 26> $new_job
| 27> %base "18-107_DFT_A"
| 28> ! wB97X-D3 def2-TZVP TIGHTSCF CHELPG PMODEL
| 29>
| 30> %scf
| 31> MaxIter 1000
| 32> end
| 33>
| 34> * xyz 0 1
| 35>   C                      -6.192142            3.316149             -6.809267
| 36>   O                      -7.336972            3.537002             -7.548146
| 37>   H                      -7.789556            2.702504             -7.730848
| 38>   H                      -5.550803            2.508840             -7.203394
| 39>   H                      -5.617500            4.249866             -6.681300
| 40>   H                      -6.487296            3.059654             -5.826811
| 41>   C                    : -7.665083            6.775921             -4.890714
| 42>   O                    : -6.306933            7.193656             -4.919434
| 43>   H                    : -5.876818            6.386052             -5.075891
| 44>   H                    : -7.679441            5.712841             -4.702631
| 45>   H                    : -8.222908            7.329902             -4.165676
| 46>   H                    : -8.192005            6.987732             -5.810565
| 47> *
| 48>
| 49> #Run DFT-D3 single point of the particle with dimer basis set
| 50> $new_job
| 51> %base "18-107_DFT_B"
| 52> ! wB97X-D3 def2-TZVP TIGHTSCF CHELPG PMODEL
| 53>
| 54> %scf
| 55> MaxIter 1000
| 56> end
| 57>
| 58> * xyz 0 1
| 59>   C                    : -6.192142            3.316149             -6.809267
| 60>   O                    : -7.336972            3.537002             -7.548146
| 61>   H                    : -7.789556            2.702504             -7.730848
| 62>   H                    : -5.550803            2.508840             -7.203394
| 63>   H                    : -5.617500            4.249866             -6.681300
| 64>   H                    : -6.487296            3.059654             -5.826811
| 65>   C                      -7.665083            6.775921             -4.890714
| 66>   O                      -6.306933            7.193656             -4.919434
| 67>   H                      -5.876818            6.386052             -5.075891
| 68>   H                      -7.679441            5.712841             -4.702631
| 69>   H                      -8.222908            7.329902             -4.165676
| 70>   H                      -8.192005            6.987732             -5.810565
| 71> *
| 72>
| 73>                          ****END OF INPUT****
 Total Charge           Charge          ....    0
 Multiplicity           Mult            ....    1
 Number of Electrons    NEL             ....   36
Dispersion correction           -0.001547253
FINAL SINGLE POINT ENERGY      -231.466304484177
Dispersion correction           -0.000224915
FINAL SINGLE POINT ENERGY      -115.733752932622

CARTESIAN COORDINATES (ANGSTROEM)
---------------------------------
  C     -6.192142    3.316149   -6.809267
  O     -7.336972    3.537002   -7.548146
  H     -7.789556    2.702504   -7.730848
  H     -5.550803    2.508840   -7.203394
  H     -5.617500    4.249866   -6.681300
  H     -6.487296    3.059654   -5.826811
  C     -7.665083    6.775921   -4.890714
  O     -6.306933    7.193656   -4.919434
  H     -5.876818    6.386052   -5.075891
  H     -7.679441    5.712841   -4.702631
  H     -8.222908    7.329902   -4.165676
  H     -8.192005    6.987732   -5.810565

 Multiplicity           Mult            ....    1
 Number of Electrons    NEL             ....   18
 Basis Dimension        Dim             ....  172

ORBITAL ENERGIES
----------------

  NO   OCC          E(Eh)            E(eV)
   0   2.0000     -19.227593      -523.2094
   1   2.0000     -10.308921      -280.5200
   2   2.0000      -1.145278       -31.1646
   3   2.0000      -0.799530       -21.7563
   4   2.0000      -0.614732       -16.7277
   5   2.0000      -0.542021       -14.7491
   6   2.0000      -0.532641       -14.4939
   7   2.0000      -0.445068       -12.1109
   8   2.0000      -0.373621       -10.1668
   9   0.0000       0.070856         1.9281
  10   0.0000       0.124272         3.3816
  11   0.0000       0.150624         4.0987
  12   0.0000       0.173491         4.7209
  13   0.0000       0.180461         4.9106

MULLIKEN ATOMIC CHARGES
-----------------------
   0 C :    0.001969
   1 O :   -0.000066
   2 H :   -0.000018
   3 H :   -0.000075
   4 H :   -0.003106
   5 H :   -0.000530
   6 C :   -0.172071
   7 O :   -0.455565
   8 H :    0.307151
   9 H :    0.102352
  10 H :    0.116833
  11 H :    0.103127
Sum of atomic charges:   -0.0000000

LOEWDIN ATOMIC CHARGES
----------------------
   0 C :   -0.001468
   1 O :   -0.000119
   2 H :   -0.000010
   3 H :   -0.000012
   4 H :   -0.001709
   5 H :   -0.000432
   6 C :   -0.371003
   7 O :   -0.064584
   8 H :    0.149529
   9 H :    0.095714
  10 H :    0.099330
  11 H :    0.094763

  Mayer bond orders larger than 0.1
B(  6-C ,  7-O ) :   1.0046 B(  6-C ,  9-H ) :   0.9923 B(  6-C , 10-H ) :   0.9801
B(  6-C , 11-H ) :   0.9725 B(  7-O ,  8-H ) :   0.9153

Dispersion correction           -0.000222070
FINAL SINGLE POINT ENERGY      -115.731588075087

DIPOLE MOMENT
-------------
                                X             Y             Z
Electronic contribution:      1.69805       0.66873       0.02571
Nuclear contribution   :     -1.96994      -1.34288      -0.10370
                        -----------------------------------------
Total Dipole Moment    :     -0.27189      -0.67415      -0.07799
                        -----------------------------------------
Magnitude (a.u.)       :      0.73108
Magnitude (Debye)      :      1.85826

Rotational constants in cm-1:     4.403272     0.842486     0.803613
Rotational constants in MHz : 132006.778332 25257.104998 24091.720663

                             ****ORCA TERMINATED NORMALLY****
TOTAL RUN TIME: 0 days 0 hours 1 minutes 5 seconds 857 msec
