                         Program Version 4.1.2  - RELEASE  -
|  1> #Run DFT-D3 single point of the dimer
|  2> ! wB97X-D3 def2-TZVP TIGHTSCF CHELPG PMODEL PAL8
|  3>
|  4> %base "16-16_DFT_AB"
|  5>
|  6> %scf
|  7> MaxIter 1000
|  8> end
|  9>
| 10> * xyz 0 1
| 11>   C                      4.271779             4.712240             5.343485
| 12>   O                      4.861457             5.690898             4.454410
| 13>   H                      4.587557             5.662843             3.570705
| 14>   H                      4.713760             3.664029             5.121006
| 15>   H                      4.705710             4.923602             6.335144
| 16>   H                      3.190266             4.808637             5.377588
| 17>   C                      3.966741             6.720232             0.746698
| 18>   O                      3.416166             6.261532             2.001378
| 19>   H                      3.399390             5.330941             2.007699
| 20>   H                      4.958919             6.341420             0.529668
| 21>   H                      3.288763             6.520529             -0.083598
| 22>   H                      4.116659             7.806077             0.736759
| 23> *
| 24>
| 25> #Run DFT-D3 single point of the molecule with dimer basis set
| 26> $new_job
| 27> %base "16-16_DFT_A"
| 28> ! wB97X-D3 def2-TZVP TIGHTSCF CHELPG PMODEL
| 29>
| 30> %scf
| 31> MaxIter 1000
| 32> end
| 33>
| 34> * xyz 0 1
| 35>   C                      4.271779             4.712240             5.343485
| 36>   O                      4.861457             5.690898             4.454410
| 37>   H                      4.587557             5.662843             3.570705
| 38>   H                      4.713760             3.664029             5.121006
| 39>   H                      4.705710             4.923602             6.335144
| 40>   H                      3.190266             4.808637             5.377588
| 41>   C                    : 3.966741             6.720232             0.746698
| 42>   O                    : 3.416166             6.261532             2.001378
| 43>   H                    : 3.399390             5.330941             2.007699
| 44>   H                    : 4.958919             6.341420             0.529668
| 45>   H                    : 3.288763             6.520529             -0.083598
| 46>   H                    : 4.116659             7.806077             0.736759
| 47> *
| 48>
| 49> #Run DFT-D3 single point of the particle with dimer basis set
| 50> $new_job
| 51> %base "16-16_DFT_B"
| 52> ! wB97X-D3 def2-TZVP TIGHTSCF CHELPG PMODEL
| 53>
| 54> %scf
| 55> MaxIter 1000
| 56> end
| 57>
| 58> * xyz 0 1
| 59>   C                    : 4.271779             4.712240             5.343485
| 60>   O                    : 4.861457             5.690898             4.454410
| 61>   H                    : 4.587557             5.662843             3.570705
| 62>   H                    : 4.713760             3.664029             5.121006
| 63>   H                    : 4.705710             4.923602             6.335144
| 64>   H                    : 3.190266             4.808637             5.377588
| 65>   C                      3.966741             6.720232             0.746698
| 66>   O                      3.416166             6.261532             2.001378
| 67>   H                      3.399390             5.330941             2.007699
| 68>   H                      4.958919             6.341420             0.529668
| 69>   H                      3.288763             6.520529             -0.083598
| 70>   H                      4.116659             7.806077             0.736759
| 71> *
| 72>
| 73>                          ****END OF INPUT****
 Total Charge           Charge          ....    0
 Multiplicity           Mult            ....    1
 Number of Electrons    NEL             ....   36
Dispersion correction           -0.001611294
FINAL SINGLE POINT ENERGY      -231.465687342966
Dispersion correction           -0.000280228
FINAL SINGLE POINT ENERGY      -115.729553274436

CARTESIAN COORDINATES (ANGSTROEM)
---------------------------------
  C      4.271779    4.712240    5.343485
  O      4.861457    5.690898    4.454410
  H      4.587557    5.662843    3.570705
  H      4.713760    3.664029    5.121006
  H      4.705710    4.923602    6.335144
  H      3.190266    4.808637    5.377588
  C      3.966741    6.720232    0.746698
  O      3.416166    6.261532    2.001378
  H      3.399390    5.330941    2.007699
  H      4.958919    6.341420    0.529668
  H      3.288763    6.520529   -0.083598
  H      4.116659    7.806077    0.736759

 Multiplicity           Mult            ....    1
 Number of Electrons    NEL             ....   18
 Basis Dimension        Dim             ....  172

ORBITAL ENERGIES
----------------

  NO   OCC          E(Eh)            E(eV)
   0   2.0000     -19.230559      -523.2901
   1   2.0000     -10.315589      -280.7015
   2   2.0000      -1.133564       -30.8458
   3   2.0000      -0.803090       -21.8532
   4   2.0000      -0.609661       -16.5897
   5   2.0000      -0.543484       -14.7889
   6   2.0000      -0.524421       -14.2702
   7   2.0000      -0.433145       -11.7865
   8   2.0000      -0.379642       -10.3306
   9   0.0000       0.090505         2.4628
  10   0.0000       0.128950         3.5089
  11   0.0000       0.150824         4.1041
  12   0.0000       0.188508         5.1296
  13   0.0000       0.197270         5.3680

MULLIKEN ATOMIC CHARGES
-----------------------
   0 C :    0.002233
   1 O :    0.009979
   2 H :   -0.035438
   3 H :   -0.000131
   4 H :   -0.000129
   5 H :   -0.000386
   6 C :   -0.172948
   7 O :   -0.458206
   8 H :    0.313103
   9 H :    0.107636
  10 H :    0.111731
  11 H :    0.122555
Sum of atomic charges:   -0.0000000

LOEWDIN ATOMIC CHARGES
----------------------
   0 C :   -0.001446
   1 O :   -0.006305
   2 H :   -0.036000
   3 H :   -0.000035
   4 H :   -0.000029
   5 H :   -0.000211
   6 C :   -0.361735
   7 O :   -0.047192
   8 H :    0.150611
   9 H :    0.094322
  10 H :    0.097325
  11 H :    0.110694

  Mayer bond orders larger than 0.1
B(  6-C ,  7-O ) :   0.9968 B(  6-C ,  9-H ) :   0.9739 B(  6-C , 10-H ) :   0.9747
B(  6-C , 11-H ) :   0.9751 B(  7-O ,  8-H ) :   0.9024

Dispersion correction           -0.000264223
FINAL SINGLE POINT ENERGY      -115.734682596319

DIPOLE MOMENT
-------------
                                X             Y             Z
Electronic contribution:     -0.72221      -0.51773       1.63149
Nuclear contribution   :      0.94296       0.13320      -2.17471
                        -----------------------------------------
Total Dipole Moment    :      0.22075      -0.38453      -0.54321
                        -----------------------------------------
Magnitude (a.u.)       :      0.70119
Magnitude (Debye)      :      1.78229

Rotational constants in cm-1:     4.479582     0.791621     0.772315
Rotational constants in MHz : 134294.496386 23732.191590 23153.418071

                             ****ORCA TERMINATED NORMALLY****
TOTAL RUN TIME: 0 days 0 hours 1 minutes 3 seconds 166 msec
