                         Program Version 4.1.2  - RELEASE  -
|  1> #Run DFT-D3 single point of the dimer
|  2> ! wB97X-D3 def2-TZVP TIGHTSCF CHELPG PMODEL PAL8
|  3>
|  4> %base "17-202_DFT_AB"
|  5>
|  6> %scf
|  7> MaxIter 1000
|  8> end
|  9>
| 10> * xyz 0 1
| 11>   C                      -8.934558            5.392683             6.376029
| 12>   O                      -7.925319            6.303547             6.716074
| 13>   H                      -7.029661            6.104231             6.322071
| 14>   H                      -9.282850            4.858832             7.225473
| 15>   H                      -9.797784            5.918443             5.908955
| 16>   H                      -8.740724            4.643743             5.591054
| 17>   C                      -3.878778            5.226953             5.247885
| 18>   O                      -5.224629            5.348015             5.544506
| 19>   H                      -5.445611            4.485523             5.841927
| 20>   H                      -3.546686            4.160902             5.104983
| 21>   H                      -3.680878            5.721709             4.364814
| 22>   H                      -3.217609            5.667860             6.069473
| 23> *
| 24>
| 25> #Run DFT-D3 single point of the molecule with dimer basis set
| 26> $new_job
| 27> %base "17-202_DFT_A"
| 28> ! wB97X-D3 def2-TZVP TIGHTSCF CHELPG PMODEL
| 29>
| 30> %scf
| 31> MaxIter 1000
| 32> end
| 33>
| 34> * xyz 0 1
| 35>   C                      -8.934558            5.392683             6.376029
| 36>   O                      -7.925319            6.303547             6.716074
| 37>   H                      -7.029661            6.104231             6.322071
| 38>   H                      -9.282850            4.858832             7.225473
| 39>   H                      -9.797784            5.918443             5.908955
| 40>   H                      -8.740724            4.643743             5.591054
| 41>   C                    : -3.878778            5.226953             5.247885
| 42>   O                    : -5.224629            5.348015             5.544506
| 43>   H                    : -5.445611            4.485523             5.841927
| 44>   H                    : -3.546686            4.160902             5.104983
| 45>   H                    : -3.680878            5.721709             4.364814
| 46>   H                    : -3.217609            5.667860             6.069473
| 47> *
| 48>
| 49> #Run DFT-D3 single point of the particle with dimer basis set
| 50> $new_job
| 51> %base "17-202_DFT_B"
| 52> ! wB97X-D3 def2-TZVP TIGHTSCF CHELPG PMODEL
| 53>
| 54> %scf
| 55> MaxIter 1000
| 56> end
| 57>
| 58> * xyz 0 1
| 59>   C                    : -8.934558            5.392683             6.376029
| 60>   O                    : -7.925319            6.303547             6.716074
| 61>   H                    : -7.029661            6.104231             6.322071
| 62>   H                    : -9.282850            4.858832             7.225473
| 63>   H                    : -9.797784            5.918443             5.908955
| 64>   H                    : -8.740724            4.643743             5.591054
| 65>   C                      -3.878778            5.226953             5.247885
| 66>   O                      -5.224629            5.348015             5.544506
| 67>   H                      -5.445611            4.485523             5.841927
| 68>   H                      -3.546686            4.160902             5.104983
| 69>   H                      -3.680878            5.721709             4.364814
| 70>   H                      -3.217609            5.667860             6.069473
| 71> *
| 72>
| 73>                          ****END OF INPUT****
 Total Charge           Charge          ....    0
 Multiplicity           Mult            ....    1
 Number of Electrons    NEL             ....   36
Dispersion correction           -0.001432589
FINAL SINGLE POINT ENERGY      -231.466035344880
Dispersion correction           -0.000279231
FINAL SINGLE POINT ENERGY      -115.730168149276

CARTESIAN COORDINATES (ANGSTROEM)
---------------------------------
  C     -8.934558    5.392683    6.376029
  O     -7.925319    6.303547    6.716074
  H     -7.029661    6.104231    6.322071
  H     -9.282850    4.858832    7.225473
  H     -9.797784    5.918443    5.908955
  H     -8.740724    4.643743    5.591054
  C     -3.878778    5.226953    5.247885
  O     -5.224629    5.348015    5.544506
  H     -5.445611    4.485523    5.841927
  H     -3.546686    4.160902    5.104983
  H     -3.680878    5.721709    4.364814
  H     -3.217609    5.667860    6.069473

 Multiplicity           Mult            ....    1
 Number of Electrons    NEL             ....   18
 Basis Dimension        Dim             ....  172

ORBITAL ENERGIES
----------------

  NO   OCC          E(Eh)            E(eV)
   0   2.0000     -19.231951      -523.3280
   1   2.0000     -10.312377      -280.6141
   2   2.0000      -1.156010       -31.4566
   3   2.0000      -0.794345       -21.6152
   4   2.0000      -0.619834       -16.8665
   5   2.0000      -0.546606       -14.8739
   6   2.0000      -0.530646       -14.4396
   7   2.0000      -0.439819       -11.9681
   8   2.0000      -0.373505       -10.1636
   9   0.0000       0.091505         2.4900
  10   0.0000       0.121535         3.3071
  11   0.0000       0.157783         4.2935
  12   0.0000       0.183099         4.9824
  13   0.0000       0.200497         5.4558

MULLIKEN ATOMIC CHARGES
-----------------------
   0 C :    0.000907
   1 O :    0.000731
   2 H :   -0.012355
   3 H :    0.000015
   4 H :   -0.000047
   5 H :   -0.001114
   6 C :   -0.173499
   7 O :   -0.440387
   8 H :    0.316874
   9 H :    0.094396
  10 H :    0.120264
  11 H :    0.094217
Sum of atomic charges:   -0.0000000

LOEWDIN ATOMIC CHARGES
----------------------
   0 C :   -0.001147
   1 O :   -0.002110
   2 H :   -0.028075
   3 H :   -0.000008
   4 H :   -0.000006
   5 H :   -0.000451
   6 C :   -0.407457
   7 O :   -0.018701
   8 H :    0.165571
   9 H :    0.101297
  10 H :    0.088157
  11 H :    0.102930

  Mayer bond orders larger than 0.1
B(  6-C ,  7-O ) :   1.0076 B(  6-C ,  9-H ) :   0.9814 B(  6-C , 10-H ) :   0.9798
B(  6-C , 11-H ) :   0.9735 B(  7-O ,  8-H ) :   0.9011

Dispersion correction           -0.000227034
FINAL SINGLE POINT ENERGY      -115.729856314762

DIPOLE MOMENT
-------------
                                X             Y             Z
Electronic contribution:     -1.85986       0.33198       0.27433
Nuclear contribution   :      2.20394      -0.94054      -0.23422
                        -----------------------------------------
Total Dipole Moment    :      0.34408      -0.60856       0.04011
                        -----------------------------------------
Magnitude (a.u.)       :      0.70025
Magnitude (Debye)      :      1.77989

Rotational constants in cm-1:     4.266843     0.864522     0.834111
Rotational constants in MHz : 127916.741658 25917.703566 25006.003774

                             ****ORCA TERMINATED NORMALLY****
TOTAL RUN TIME: 0 days 0 hours 1 minutes 8 seconds 128 msec
