                         Program Version 4.1.2  - RELEASE  -
|  1> #Run DFT-D3 single point of the dimer
|  2> ! wB97X-D3 def2-TZVP TIGHTSCF CHELPG PMODEL PAL8
|  3>
|  4> %base "5-45_DFT_AB"
|  5>
|  6> %scf
|  7> MaxIter 1000
|  8> end
|  9>
| 10> * xyz 0 1
| 11>   C                      -2.327879            -1.689422            -8.778547
| 12>   O                      -1.414397            -2.216028            -7.842568
| 13>   H                      -1.431879            -3.135477            -8.159358
| 14>   H                      -1.907718            -1.481460            -9.705796
| 15>   H                      -3.138934            -2.311804            -8.966968
| 16>   H                      -2.843604            -0.810400            -8.339234
| 17>   C                      1.660130             2.016156             -10.208712
| 18>   O                      2.793933             1.381402             -10.765261
| 19>   H                      3.107994             0.803919             -10.093521
| 20>   H                      1.177720             2.783274             -10.809407
| 21>   H                      0.857712             1.198008             -10.041690
| 22>   H                      1.920190             2.547271             -9.303357
| 23> *
| 24>
| 25> #Run DFT-D3 single point of the molecule with dimer basis set
| 26> $new_job
| 27> %base "5-45_DFT_A"
| 28> ! wB97X-D3 def2-TZVP TIGHTSCF CHELPG PMODEL
| 29>
| 30> %scf
| 31> MaxIter 1000
| 32> end
| 33>
| 34> * xyz 0 1
| 35>   C                      -2.327879            -1.689422            -8.778547
| 36>   O                      -1.414397            -2.216028            -7.842568
| 37>   H                      -1.431879            -3.135477            -8.159358
| 38>   H                      -1.907718            -1.481460            -9.705796
| 39>   H                      -3.138934            -2.311804            -8.966968
| 40>   H                      -2.843604            -0.810400            -8.339234
| 41>   C                    : 1.660130             2.016156             -10.208712
| 42>   O                    : 2.793933             1.381402             -10.765261
| 43>   H                    : 3.107994             0.803919             -10.093521
| 44>   H                    : 1.177720             2.783274             -10.809407
| 45>   H                    : 0.857712             1.198008             -10.041690
| 46>   H                    : 1.920190             2.547271             -9.303357
| 47> *
| 48>
| 49> #Run DFT-D3 single point of the particle with dimer basis set
| 50> $new_job
| 51> %base "5-45_DFT_B"
| 52> ! wB97X-D3 def2-TZVP TIGHTSCF CHELPG PMODEL
| 53>
| 54> %scf
| 55> MaxIter 1000
| 56> end
| 57>
| 58> * xyz 0 1
| 59>   C                    : -2.327879            -1.689422            -8.778547
| 60>   O                    : -1.414397            -2.216028            -7.842568
| 61>   H                    : -1.431879            -3.135477            -8.159358
| 62>   H                    : -1.907718            -1.481460            -9.705796
| 63>   H                    : -3.138934            -2.311804            -8.966968
| 64>   H                    : -2.843604            -0.810400            -8.339234
| 65>   C                      1.660130             2.016156             -10.208712
| 66>   O                      2.793933             1.381402             -10.765261
| 67>   H                      3.107994             0.803919             -10.093521
| 68>   H                      1.177720             2.783274             -10.809407
| 69>   H                      0.857712             1.198008             -10.041690
| 70>   H                      1.920190             2.547271             -9.303357
| 71> *
| 72>
| 73>                          ****END OF INPUT****
 Total Charge           Charge          ....    0
 Multiplicity           Mult            ....    1
 Number of Electrons    NEL             ....   36
Dispersion correction           -0.000623794
FINAL SINGLE POINT ENERGY      -231.457624745245
Dispersion correction           -0.000207047
FINAL SINGLE POINT ENERGY      -115.726529406241

CARTESIAN COORDINATES (ANGSTROEM)
---------------------------------
  C     -2.327879   -1.689422   -8.778547
  O     -1.414397   -2.216028   -7.842568
  H     -1.431879   -3.135477   -8.159358
  H     -1.907718   -1.481460   -9.705796
  H     -3.138934   -2.311804   -8.966968
  H     -2.843604   -0.810400   -8.339234
  C      1.660130    2.016156  -10.208712
  O      2.793933    1.381402  -10.765261
  H      3.107994    0.803919  -10.093521
  H      1.177720    2.783274  -10.809407
  H      0.857712    1.198008  -10.041690
  H      1.920190    2.547271   -9.303357

 Multiplicity           Mult            ....    1
 Number of Electrons    NEL             ....   18
 Basis Dimension        Dim             ....  172

ORBITAL ENERGIES
----------------

  NO   OCC          E(Eh)            E(eV)
   0   2.0000     -19.229241      -523.2543
   1   2.0000     -10.318546      -280.7819
   2   2.0000      -1.142660       -31.0934
   3   2.0000      -0.794243       -21.6125
   4   2.0000      -0.608553       -16.5596
   5   2.0000      -0.544329       -14.8119
   6   2.0000      -0.533102       -14.5064
   7   2.0000      -0.429376       -11.6839
   8   2.0000      -0.373806       -10.1718
   9   0.0000       0.082426         2.2429
  10   0.0000       0.117218         3.1897
  11   0.0000       0.150024         4.0824
  12   0.0000       0.167219         4.5503
  13   0.0000       0.179145         4.8748

MULLIKEN ATOMIC CHARGES
-----------------------
   0 C :   -0.000069
   1 O :    0.000009
   2 H :   -0.000001
   3 H :   -0.000106
   4 H :   -0.000012
   5 H :   -0.000001
   6 C :   -0.174359
   7 O :   -0.464636
   8 H :    0.314012
   9 H :    0.122695
  10 H :    0.096897
  11 H :    0.105571
Sum of atomic charges:   -0.0000000

LOEWDIN ATOMIC CHARGES
----------------------
   0 C :   -0.000170
   1 O :   -0.000002
   2 H :   -0.000001
   3 H :   -0.000119
   4 H :   -0.000003
   5 H :   -0.000008
   6 C :   -0.392125
   7 O :   -0.069470
   8 H :    0.158683
   9 H :    0.105591
  10 H :    0.105746
  11 H :    0.091878

  Mayer bond orders larger than 0.1
B(  6-C ,  7-O ) :   0.9947 B(  6-C ,  9-H ) :   0.9696 B(  6-C , 10-H ) :   0.9829
B(  6-C , 11-H ) :   0.9764 B(  7-O ,  8-H ) :   0.9034

Dispersion correction           -0.000234427
FINAL SINGLE POINT ENERGY      -115.730533226115

DIPOLE MOMENT
-------------
                                X             Y             Z
Electronic contribution:      1.53592      -0.66499      -0.88591
Nuclear contribution   :     -1.76930       0.58457       1.51976
                        -----------------------------------------
Total Dipole Moment    :     -0.23339      -0.08042       0.63385
                        -----------------------------------------
Magnitude (a.u.)       :      0.68022
Magnitude (Debye)      :      1.72899

Rotational constants in cm-1:     4.265420     0.822777     0.805801
Rotational constants in MHz : 127874.067882 24666.244645 24157.319251

                             ****ORCA TERMINATED NORMALLY****
TOTAL RUN TIME: 0 days 0 hours 0 minutes 53 seconds 250 msec
