                         Program Version 4.1.2  - RELEASE  -
|  1> #Run DFT-D3 single point of the dimer
|  2> ! wB97X-D3 def2-TZVP TIGHTSCF CHELPG PMODEL PAL8
|  3>
|  4> %base "12-120_DFT_AB"
|  5>
|  6> %scf
|  7> MaxIter 1000
|  8> end
|  9>
| 10> * xyz 0 1
| 11>   C                      0.458656             -0.930274            -4.011846
| 12>   O                      1.515919             -0.989407            -3.097757
| 13>   H                      2.343066             -1.128490            -3.561394
| 14>   H                      0.659038             -0.054227            -4.714166
| 15>   H                      0.496070             -1.799020            -4.676867
| 16>   H                      -0.554769            -0.926448            -3.628725
| 17>   C                      2.081507             2.833800             -5.791431
| 18>   O                      3.349953             3.010321             -5.209117
| 19>   H                      3.428262             3.942163             -5.033029
| 20>   H                      1.897315             3.364822             -6.734705
| 21>   H                      1.948587             1.815339             -5.918795
| 22>   H                      1.333457             3.113603             -5.042429
| 23> *
| 24>
| 25> #Run DFT-D3 single point of the molecule with dimer basis set
| 26> $new_job
| 27> %base "12-120_DFT_A"
| 28> ! wB97X-D3 def2-TZVP TIGHTSCF CHELPG PMODEL
| 29>
| 30> %scf
| 31> MaxIter 1000
| 32> end
| 33>
| 34> * xyz 0 1
| 35>   C                      0.458656             -0.930274            -4.011846
| 36>   O                      1.515919             -0.989407            -3.097757
| 37>   H                      2.343066             -1.128490            -3.561394
| 38>   H                      0.659038             -0.054227            -4.714166
| 39>   H                      0.496070             -1.799020            -4.676867
| 40>   H                      -0.554769            -0.926448            -3.628725
| 41>   C                    : 2.081507             2.833800             -5.791431
| 42>   O                    : 3.349953             3.010321             -5.209117
| 43>   H                    : 3.428262             3.942163             -5.033029
| 44>   H                    : 1.897315             3.364822             -6.734705
| 45>   H                    : 1.948587             1.815339             -5.918795
| 46>   H                    : 1.333457             3.113603             -5.042429
| 47> *
| 48>
| 49> #Run DFT-D3 single point of the particle with dimer basis set
| 50> $new_job
| 51> %base "12-120_DFT_B"
| 52> ! wB97X-D3 def2-TZVP TIGHTSCF CHELPG PMODEL
| 53>
| 54> %scf
| 55> MaxIter 1000
| 56> end
| 57>
| 58> * xyz 0 1
| 59>   C                    : 0.458656             -0.930274            -4.011846
| 60>   O                    : 1.515919             -0.989407            -3.097757
| 61>   H                    : 2.343066             -1.128490            -3.561394
| 62>   H                    : 0.659038             -0.054227            -4.714166
| 63>   H                    : 0.496070             -1.799020            -4.676867
| 64>   H                    : -0.554769            -0.926448            -3.628725
| 65>   C                      2.081507             2.833800             -5.791431
| 66>   O                      3.349953             3.010321             -5.209117
| 67>   H                      3.428262             3.942163             -5.033029
| 68>   H                      1.897315             3.364822             -6.734705
| 69>   H                      1.948587             1.815339             -5.918795
| 70>   H                      1.333457             3.113603             -5.042429
| 71> *
| 72>
| 73>                          ****END OF INPUT****
 Total Charge           Charge          ....    0
 Multiplicity           Mult            ....    1
 Number of Electrons    NEL             ....   36
Dispersion correction           -0.001154684
FINAL SINGLE POINT ENERGY      -231.464777202688
Dispersion correction           -0.000231921
FINAL SINGLE POINT ENERGY      -115.730505896800

CARTESIAN COORDINATES (ANGSTROEM)
---------------------------------
  C      0.458656   -0.930274   -4.011846
  O      1.515919   -0.989407   -3.097757
  H      2.343066   -1.128490   -3.561394
  H      0.659038   -0.054227   -4.714166
  H      0.496070   -1.799020   -4.676867
  H     -0.554769   -0.926448   -3.628725
  C      2.081507    2.833800   -5.791431
  O      3.349953    3.010321   -5.209117
  H      3.428262    3.942163   -5.033029
  H      1.897315    3.364822   -6.734705
  H      1.948587    1.815339   -5.918795
  H      1.333457    3.113603   -5.042429

 Multiplicity           Mult            ....    1
 Number of Electrons    NEL             ....   18
 Basis Dimension        Dim             ....  172

ORBITAL ENERGIES
----------------

  NO   OCC          E(Eh)            E(eV)
   0   2.0000     -19.228927      -523.2457
   1   2.0000     -10.305275      -280.4208
   2   2.0000      -1.141036       -31.0492
   3   2.0000      -0.799796       -21.7636
   4   2.0000      -0.611517       -16.6402
   5   2.0000      -0.544975       -14.8295
   6   2.0000      -0.531338       -14.4584
   7   2.0000      -0.437962       -11.9176
   8   2.0000      -0.373496       -10.1633
   9   0.0000       0.088646         2.4122
  10   0.0000       0.119232         3.2445
  11   0.0000       0.156564         4.2603
  12   0.0000       0.166736         4.5371
  13   0.0000       0.190960         5.1963

MULLIKEN ATOMIC CHARGES
-----------------------
   0 C :    0.000950
   1 O :    0.000001
   2 H :   -0.000035
   3 H :   -0.001941
   4 H :   -0.000060
   5 H :   -0.000048
   6 C :   -0.162375
   7 O :   -0.469048
   8 H :    0.310628
   9 H :    0.097379
  10 H :    0.125811
  11 H :    0.098738
Sum of atomic charges:   -0.0000000

LOEWDIN ATOMIC CHARGES
----------------------
   0 C :   -0.000585
   1 O :   -0.000008
   2 H :   -0.000037
   3 H :   -0.002408
   4 H :   -0.000006
   5 H :   -0.000003
   6 C :   -0.384122
   7 O :   -0.066013
   8 H :    0.163689
   9 H :    0.095432
  10 H :    0.096297
  11 H :    0.097764

  Mayer bond orders larger than 0.1
B(  6-C ,  7-O ) :   1.0043 B(  6-C ,  9-H ) :   0.9655 B(  6-C , 10-H ) :   0.9747
B(  6-C , 11-H ) :   0.9864 B(  7-O ,  8-H ) :   0.9050

Dispersion correction           -0.000223872
FINAL SINGLE POINT ENERGY      -115.733561270623

DIPOLE MOMENT
-------------
                                X             Y             Z
Electronic contribution:      1.68707       0.08474       0.61924
Nuclear contribution   :     -2.13658       0.40883      -0.72882
                        -----------------------------------------
Total Dipole Moment    :     -0.44951       0.49357      -0.10958
                        -----------------------------------------
Magnitude (a.u.)       :      0.67652
Magnitude (Debye)      :      1.71958

Rotational constants in cm-1:     4.390530     0.843781     0.819510
Rotational constants in MHz : 131624.781422 25295.908493 24568.301089

                             ****ORCA TERMINATED NORMALLY****
TOTAL RUN TIME: 0 days 0 hours 1 minutes 11 seconds 67 msec
