                         Program Version 4.1.2  - RELEASE  -
|  1> #Run DFT-D3 single point of the dimer
|  2> ! wB97X-D3 def2-TZVP TIGHTSCF CHELPG PMODEL PAL8
|  3>
|  4> %base "22-144_DFT_AB"
|  5>
|  6> %scf
|  7> MaxIter 1000
|  8> end
|  9>
| 10> * xyz 0 1
| 11>   C                      -7.213626            3.384994             10.819294
| 12>   O                      -6.871393            4.171338             11.892406
| 13>   H                      -6.898183            3.456101             12.542300
| 14>   H                      -6.335732            2.906768             10.264594
| 15>   H                      -7.908215            2.573688             11.116931
| 16>   H                      -7.828782            3.967057             10.125404
| 17>   C                      -10.468837           6.346205             10.977462
| 18>   O                      -9.551600            6.628705             11.997518
| 19>   H                      -8.708020            6.290959             11.733516
| 20>   H                      -10.455577           5.348826             10.448353
| 21>   H                      -11.518788           6.550476             11.259004
| 22>   H                      -10.309470           7.052969             10.146480
| 23> *
| 24>
| 25> #Run DFT-D3 single point of the molecule with dimer basis set
| 26> $new_job
| 27> %base "22-144_DFT_A"
| 28> ! wB97X-D3 def2-TZVP TIGHTSCF CHELPG PMODEL
| 29>
| 30> %scf
| 31> MaxIter 1000
| 32> end
| 33>
| 34> * xyz 0 1
| 35>   C                      -7.213626            3.384994             10.819294
| 36>   O                      -6.871393            4.171338             11.892406
| 37>   H                      -6.898183            3.456101             12.542300
| 38>   H                      -6.335732            2.906768             10.264594
| 39>   H                      -7.908215            2.573688             11.116931
| 40>   H                      -7.828782            3.967057             10.125404
| 41>   C                    : -10.468837           6.346205             10.977462
| 42>   O                    : -9.551600            6.628705             11.997518
| 43>   H                    : -8.708020            6.290959             11.733516
| 44>   H                    : -10.455577           5.348826             10.448353
| 45>   H                    : -11.518788           6.550476             11.259004
| 46>   H                    : -10.309470           7.052969             10.146480
| 47> *
| 48>
| 49> #Run DFT-D3 single point of the particle with dimer basis set
| 50> $new_job
| 51> %base "22-144_DFT_B"
| 52> ! wB97X-D3 def2-TZVP TIGHTSCF CHELPG PMODEL
| 53>
| 54> %scf
| 55> MaxIter 1000
| 56> end
| 57>
| 58> * xyz 0 1
| 59>   C                    : -7.213626            3.384994             10.819294
| 60>   O                    : -6.871393            4.171338             11.892406
| 61>   H                    : -6.898183            3.456101             12.542300
| 62>   H                    : -6.335732            2.906768             10.264594
| 63>   H                    : -7.908215            2.573688             11.116931
| 64>   H                    : -7.828782            3.967057             10.125404
| 65>   C                      -10.468837           6.346205             10.977462
| 66>   O                      -9.551600            6.628705             11.997518
| 67>   H                      -8.708020            6.290959             11.733516
| 68>   H                      -10.455577           5.348826             10.448353
| 69>   H                      -11.518788           6.550476             11.259004
| 70>   H                      -10.309470           7.052969             10.146480
| 71> *
| 72>
| 73>                          ****END OF INPUT****
 Total Charge           Charge          ....    0
 Multiplicity           Mult            ....    1
 Number of Electrons    NEL             ....   36
Dispersion correction           -0.001599441
FINAL SINGLE POINT ENERGY      -231.462393960426
Dispersion correction           -0.000215470
FINAL SINGLE POINT ENERGY      -115.727170005839

CARTESIAN COORDINATES (ANGSTROEM)
---------------------------------
  C     -7.213626    3.384994   10.819294
  O     -6.871393    4.171338   11.892406
  H     -6.898183    3.456101   12.542300
  H     -6.335732    2.906768   10.264594
  H     -7.908215    2.573688   11.116931
  H     -7.828782    3.967057   10.125404
  C    -10.468837    6.346205   10.977462
  O     -9.551600    6.628705   11.997518
  H     -8.708020    6.290959   11.733516
  H    -10.455577    5.348826   10.448353
  H    -11.518788    6.550476   11.259004
  H    -10.309470    7.052969   10.146480

 Multiplicity           Mult            ....    1
 Number of Electrons    NEL             ....   18
 Basis Dimension        Dim             ....  172

ORBITAL ENERGIES
----------------

  NO   OCC          E(Eh)            E(eV)
   0   2.0000     -19.235230      -523.4172
   1   2.0000     -10.318117      -280.7702
   2   2.0000      -1.146320       -31.1930
   3   2.0000      -0.795316       -21.6416
   4   2.0000      -0.619374       -16.8540
   5   2.0000      -0.532552       -14.4915
   6   2.0000      -0.530416       -14.4333
   7   2.0000      -0.437422       -11.9029
   8   2.0000      -0.371799       -10.1172
   9   0.0000       0.071693         1.9509
  10   0.0000       0.131288         3.5725
  11   0.0000       0.140951         3.8355
  12   0.0000       0.172775         4.7014
  13   0.0000       0.185973         5.0606

MULLIKEN ATOMIC CHARGES
-----------------------
   0 C :   -0.001853
   1 O :   -0.000002
   2 H :    0.000046
   3 H :   -0.000016
   4 H :    0.000035
   5 H :    0.000089
   6 C :   -0.182383
   7 O :   -0.460231
   8 H :    0.316741
   9 H :    0.102999
  10 H :    0.122589
  11 H :    0.101987
Sum of atomic charges:   -0.0000000

LOEWDIN ATOMIC CHARGES
----------------------
   0 C :   -0.001644
   1 O :   -0.001736
   2 H :   -0.000166
   3 H :   -0.000030
   4 H :   -0.000039
   5 H :   -0.000922
   6 C :   -0.411352
   7 O :   -0.052189
   8 H :    0.163168
   9 H :    0.099978
  10 H :    0.110362
  11 H :    0.094571

  Mayer bond orders larger than 0.1
B(  6-C ,  7-O ) :   1.0017 B(  6-C ,  9-H ) :   0.9641 B(  6-C , 10-H ) :   0.9733
B(  6-C , 11-H ) :   0.9837 B(  7-O ,  8-H ) :   0.9009

Dispersion correction           -0.000262179
FINAL SINGLE POINT ENERGY      -115.731635511853

DIPOLE MOMENT
-------------
                                X             Y             Z
Electronic contribution:      1.17543       0.33465       1.60957
Nuclear contribution   :     -0.98774      -0.64331      -2.16814
                        -----------------------------------------
Total Dipole Moment    :      0.18769      -0.30866      -0.55857
                        -----------------------------------------
Magnitude (a.u.)       :      0.66520
Magnitude (Debye)      :      1.69081

Rotational constants in cm-1:     4.402946     0.829129     0.794538
Rotational constants in MHz : 131996.999509 24856.664768 23819.646341

                             ****ORCA TERMINATED NORMALLY****
TOTAL RUN TIME: 0 days 0 hours 1 minutes 0 seconds 946 msec
