                         Program Version 4.1.2  - RELEASE  -
|  1> #Run DFT-D3 single point of the dimer
|  2> ! wB97X-D3 def2-TZVP TIGHTSCF CHELPG PMODEL PAL8
|  3>
|  4> %base "16-95_DFT_AB"
|  5>
|  6> %scf
|  7> MaxIter 1000
|  8> end
|  9>
| 10> * xyz 0 1
| 11>   C                      5.434958             2.875792             -9.733265
| 12>   O                      6.885886             2.877586             -9.509406
| 13>   H                      7.289825             2.013666             -9.590393
| 14>   H                      5.137906             3.799958             -10.234967
| 15>   H                      5.202899             1.890700             -10.161595
| 16>   H                      4.848795             2.960356             -8.769228
| 17>   C                      5.117424             -2.071399            -8.564140
| 18>   O                      4.599558             -0.856019            -8.973376
| 19>   H                      4.408494             -0.424561            -8.153434
| 20>   H                      6.191470             -2.058312            -8.424507
| 21>   H                      4.655384             -2.305596            -7.619523
| 22>   H                      4.799643             -2.869894            -9.222142
| 23> *
| 24>
| 25> #Run DFT-D3 single point of the molecule with dimer basis set
| 26> $new_job
| 27> %base "16-95_DFT_A"
| 28> ! wB97X-D3 def2-TZVP TIGHTSCF CHELPG PMODEL
| 29>
| 30> %scf
| 31> MaxIter 1000
| 32> end
| 33>
| 34> * xyz 0 1
| 35>   C                      5.434958             2.875792             -9.733265
| 36>   O                      6.885886             2.877586             -9.509406
| 37>   H                      7.289825             2.013666             -9.590393
| 38>   H                      5.137906             3.799958             -10.234967
| 39>   H                      5.202899             1.890700             -10.161595
| 40>   H                      4.848795             2.960356             -8.769228
| 41>   C                    : 5.117424             -2.071399            -8.564140
| 42>   O                    : 4.599558             -0.856019            -8.973376
| 43>   H                    : 4.408494             -0.424561            -8.153434
| 44>   H                    : 6.191470             -2.058312            -8.424507
| 45>   H                    : 4.655384             -2.305596            -7.619523
| 46>   H                    : 4.799643             -2.869894            -9.222142
| 47> *
| 48>
| 49> #Run DFT-D3 single point of the particle with dimer basis set
| 50> $new_job
| 51> %base "16-95_DFT_B"
| 52> ! wB97X-D3 def2-TZVP TIGHTSCF CHELPG PMODEL
| 53>
| 54> %scf
| 55> MaxIter 1000
| 56> end
| 57>
| 58> * xyz 0 1
| 59>   C                    : 5.434958             2.875792             -9.733265
| 60>   O                    : 6.885886             2.877586             -9.509406
| 61>   H                    : 7.289825             2.013666             -9.590393
| 62>   H                    : 5.137906             3.799958             -10.234967
| 63>   H                    : 5.202899             1.890700             -10.161595
| 64>   H                    : 4.848795             2.960356             -8.769228
| 65>   C                      5.117424             -2.071399            -8.564140
| 66>   O                      4.599558             -0.856019            -8.973376
| 67>   H                      4.408494             -0.424561            -8.153434
| 68>   H                      6.191470             -2.058312            -8.424507
| 69>   H                      4.655384             -2.305596            -7.619523
| 70>   H                      4.799643             -2.869894            -9.222142
| 71> *
| 72>
| 73>                          ****END OF INPUT****
 Total Charge           Charge          ....    0
 Multiplicity           Mult            ....    1
 Number of Electrons    NEL             ....   36
Dispersion correction           -0.001215725
FINAL SINGLE POINT ENERGY      -231.461869638104
Dispersion correction           -0.000273540
FINAL SINGLE POINT ENERGY      -115.727247281784

CARTESIAN COORDINATES (ANGSTROEM)
---------------------------------
  C      5.434958    2.875792   -9.733265
  O      6.885886    2.877586   -9.509406
  H      7.289825    2.013666   -9.590393
  H      5.137906    3.799958  -10.234967
  H      5.202899    1.890700  -10.161595
  H      4.848795    2.960356   -8.769228
  C      5.117424   -2.071399   -8.564140
  O      4.599558   -0.856019   -8.973376
  H      4.408494   -0.424561   -8.153434
  H      6.191470   -2.058312   -8.424507
  H      4.655384   -2.305596   -7.619523
  H      4.799643   -2.869894   -9.222142

 Multiplicity           Mult            ....    1
 Number of Electrons    NEL             ....   18
 Basis Dimension        Dim             ....  172

ORBITAL ENERGIES
----------------

  NO   OCC          E(Eh)            E(eV)
   0   2.0000     -19.229220      -523.2537
   1   2.0000     -10.306004      -280.4406
   2   2.0000      -1.153245       -31.3814
   3   2.0000      -0.795031       -21.6339
   4   2.0000      -0.619839       -16.8667
   5   2.0000      -0.553424       -15.0594
   6   2.0000      -0.532331       -14.4855
   7   2.0000      -0.432788       -11.7768
   8   2.0000      -0.375441       -10.2163
   9   0.0000       0.090166         2.4535
  10   0.0000       0.122144         3.3237
  11   0.0000       0.156278         4.2525
  12   0.0000       0.169377         4.6090
  13   0.0000       0.199144         5.4190

MULLIKEN ATOMIC CHARGES
-----------------------
   0 C :   -0.001466
   1 O :    0.000310
   2 H :   -0.000612
   3 H :   -0.000262
   4 H :   -0.002991
   5 H :   -0.000137
   6 C :   -0.161754
   7 O :   -0.453766
   8 H :    0.316409
   9 H :    0.098509
  10 H :    0.091196
  11 H :    0.114565
Sum of atomic charges:    0.0000000

LOEWDIN ATOMIC CHARGES
----------------------
   0 C :   -0.002510
   1 O :   -0.000028
   2 H :   -0.000319
   3 H :   -0.000043
   4 H :   -0.003848
   5 H :   -0.000187
   6 C :   -0.404548
   7 O :   -0.044328
   8 H :    0.167299
   9 H :    0.092143
  10 H :    0.092818
  11 H :    0.103552

  Mayer bond orders larger than 0.1
B(  6-C ,  7-O ) :   1.0092 B(  6-C ,  9-H ) :   0.9701 B(  6-C , 10-H ) :   0.9958
B(  6-C , 11-H ) :   0.9746 B(  7-O ,  8-H ) :   0.9025

Dispersion correction           -0.000206407
FINAL SINGLE POINT ENERGY      -115.732341365539

DIPOLE MOMENT
-------------
                                X             Y             Z
Electronic contribution:     -0.58587       1.55190      -0.75566
Nuclear contribution   :      0.62661      -1.75424       1.44980
                        -----------------------------------------
Total Dipole Moment    :      0.04074      -0.20233       0.69414
                        -----------------------------------------
Magnitude (a.u.)       :      0.72417
Magnitude (Debye)      :      1.84070

Rotational constants in cm-1:     4.344759     0.871754     0.844684
Rotational constants in MHz : 130252.587745 26134.534534 25323.002413

                             ****ORCA TERMINATED NORMALLY****
TOTAL RUN TIME: 0 days 0 hours 0 minutes 49 seconds 62 msec
