                         Program Version 4.1.2  - RELEASE  -
|  1> #Run DFT-D3 single point of the dimer
|  2> ! wB97X-D3 def2-TZVP TIGHTSCF CHELPG PMODEL PAL8
|  3>
|  4> %base "16-117_DFT_AB"
|  5>
|  6> %scf
|  7> MaxIter 1000
|  8> end
|  9>
| 10> * xyz 0 1
| 11>   C                      -8.906481            -10.604438           0.152524
| 12>   O                      -9.199290            -11.900716           0.430674
| 13>   H                      -8.941215            -12.120148           1.337078
| 14>   H                      -7.833461            -10.391350           0.287520
| 15>   H                      -9.113330            -10.162461           -0.831296
| 16>   H                      -9.423543            -9.981549            0.928955
| 17>   C                      -8.340799            -7.463451            -1.825485
| 18>   O                      -9.547389            -8.055020            -2.254441
| 19>   H                      -10.238468           -7.410873            -1.993551
| 20>   H                      -7.498366            -7.871612            -2.381904
| 21>   H                      -8.376647            -6.319870            -1.937428
| 22>   H                      -8.097483            -7.847441            -0.828746
| 23> *
| 24>
| 25> #Run DFT-D3 single point of the molecule with dimer basis set
| 26> $new_job
| 27> %base "16-117_DFT_A"
| 28> ! wB97X-D3 def2-TZVP TIGHTSCF CHELPG PMODEL
| 29>
| 30> %scf
| 31> MaxIter 1000
| 32> end
| 33>
| 34> * xyz 0 1
| 35>   C                      -8.906481            -10.604438           0.152524
| 36>   O                      -9.199290            -11.900716           0.430674
| 37>   H                      -8.941215            -12.120148           1.337078
| 38>   H                      -7.833461            -10.391350           0.287520
| 39>   H                      -9.113330            -10.162461           -0.831296
| 40>   H                      -9.423543            -9.981549            0.928955
| 41>   C                    : -8.340799            -7.463451            -1.825485
| 42>   O                    : -9.547389            -8.055020            -2.254441
| 43>   H                    : -10.238468           -7.410873            -1.993551
| 44>   H                    : -7.498366            -7.871612            -2.381904
| 45>   H                    : -8.376647            -6.319870            -1.937428
| 46>   H                    : -8.097483            -7.847441            -0.828746
| 47> *
| 48>
| 49> #Run DFT-D3 single point of the particle with dimer basis set
| 50> $new_job
| 51> %base "16-117_DFT_B"
| 52> ! wB97X-D3 def2-TZVP TIGHTSCF CHELPG PMODEL
| 53>
| 54> %scf
| 55> MaxIter 1000
| 56> end
| 57>
| 58> * xyz 0 1
| 59>   C                    : -8.906481            -10.604438           0.152524
| 60>   O                    : -9.199290            -11.900716           0.430674
| 61>   H                    : -8.941215            -12.120148           1.337078
| 62>   H                    : -7.833461            -10.391350           0.287520
| 63>   H                    : -9.113330            -10.162461           -0.831296
| 64>   H                    : -9.423543            -9.981549            0.928955
| 65>   C                      -8.340799            -7.463451            -1.825485
| 66>   O                      -9.547389            -8.055020            -2.254441
| 67>   H                      -10.238468           -7.410873            -1.993551
| 68>   H                      -7.498366            -7.871612            -2.381904
| 69>   H                      -8.376647            -6.319870            -1.937428
| 70>   H                      -8.097483            -7.847441            -0.828746
| 71> *
| 72>
| 73>                          ****END OF INPUT****
 Total Charge           Charge          ....    0
 Multiplicity           Mult            ....    1
 Number of Electrons    NEL             ....   36
Dispersion correction           -0.001763679
FINAL SINGLE POINT ENERGY      -231.460105087753
Dispersion correction           -0.000222606
FINAL SINGLE POINT ENERGY      -115.727546633059

CARTESIAN COORDINATES (ANGSTROEM)
---------------------------------
  C     -8.906481  -10.604438    0.152524
  O     -9.199290  -11.900716    0.430674
  H     -8.941215  -12.120148    1.337078
  H     -7.833461  -10.391350    0.287520
  H     -9.113330  -10.162461   -0.831296
  H     -9.423543   -9.981549    0.928955
  C     -8.340799   -7.463451   -1.825485
  O     -9.547389   -8.055020   -2.254441
  H    -10.238468   -7.410873   -1.993551
  H     -7.498366   -7.871612   -2.381904
  H     -8.376647   -6.319870   -1.937428
  H     -8.097483   -7.847441   -0.828746

 Multiplicity           Mult            ....    1
 Number of Electrons    NEL             ....   18
 Basis Dimension        Dim             ....  172

ORBITAL ENERGIES
----------------

  NO   OCC          E(Eh)            E(eV)
   0   2.0000     -19.233085      -523.3589
   1   2.0000     -10.317770      -280.7608
   2   2.0000      -1.136440       -30.9241
   3   2.0000      -0.789220       -21.4758
   4   2.0000      -0.603193       -16.4137
   5   2.0000      -0.544575       -14.8186
   6   2.0000      -0.527769       -14.3613
   7   2.0000      -0.434082       -11.8120
   8   2.0000      -0.370576       -10.0839
   9   0.0000       0.087923         2.3925
  10   0.0000       0.117717         3.2033
  11   0.0000       0.150715         4.1012
  12   0.0000       0.176218         4.7951
  13   0.0000       0.196824         5.3559

MULLIKEN ATOMIC CHARGES
-----------------------
   0 C :    0.000205
   1 O :    0.000100
   2 H :    0.000013
   3 H :   -0.000862
   4 H :   -0.000200
   5 H :   -0.000644
   6 C :   -0.174563
   7 O :   -0.466155
   8 H :    0.316696
   9 H :    0.115291
  10 H :    0.110392
  11 H :    0.099728
Sum of atomic charges:   -0.0000000

LOEWDIN ATOMIC CHARGES
----------------------
   0 C :   -0.006583
   1 O :   -0.000038
   2 H :   -0.000005
   3 H :   -0.000910
   4 H :   -0.009403
   5 H :   -0.000339
   6 C :   -0.399390
   7 O :   -0.076113
   8 H :    0.183301
   9 H :    0.104731
  10 H :    0.107724
  11 H :    0.097025

  Mayer bond orders larger than 0.1
B(  6-C ,  7-O ) :   0.9998 B(  6-C ,  9-H ) :   0.9780 B(  6-C , 10-H ) :   0.9771
B(  6-C , 11-H ) :   0.9772 B(  7-O ,  8-H ) :   0.8978

Dispersion correction           -0.000240680
FINAL SINGLE POINT ENERGY      -115.730754526211

DIPOLE MOMENT
-------------
                                X             Y             Z
Electronic contribution:     -1.51154      -0.82691      -0.62819
Nuclear contribution   :      1.55707       1.43524       0.93199
                        -----------------------------------------
Total Dipole Moment    :      0.04553       0.60832       0.30380
                        -----------------------------------------
Magnitude (a.u.)       :      0.68149
Magnitude (Debye)      :      1.73220

Rotational constants in cm-1:     4.093755     0.842286     0.800974
Rotational constants in MHz : 122727.673896 25251.100482 24012.598190

                             ****ORCA TERMINATED NORMALLY****
TOTAL RUN TIME: 0 days 0 hours 0 minutes 53 seconds 942 msec
