                         Program Version 4.1.2  - RELEASE  -
|  1> #Run DFT-D3 single point of the dimer
|  2> ! wB97X-D3 def2-TZVP TIGHTSCF CHELPG PMODEL PAL8
|  3>
|  4> %base "7-196_DFT_AB"
|  5>
|  6> %scf
|  7> MaxIter 1000
|  8> end
|  9>
| 10> * xyz 0 1
| 11>   C                      6.175662             -11.349014           -7.590039
| 12>   O                      5.252921             -10.548341           -8.279196
| 13>   H                      5.728795             -9.750752            -8.445123
| 14>   H                      5.729943             -12.288351           -7.204422
| 15>   H                      7.016447             -11.610410           -8.171074
| 16>   H                      6.582394             -10.840848           -6.690959
| 17>   C                      6.374255             -7.881901            -6.550287
| 18>   O                      6.066963             -7.715218            -7.897293
| 19>   H                      5.128069             -7.470143            -8.009709
| 20>   H                      7.222504             -8.546221            -6.360239
| 21>   H                      6.481127             -6.878615            -6.062109
| 22>   H                      5.539970             -8.372866            -6.058516
| 23> *
| 24>
| 25> #Run DFT-D3 single point of the molecule with dimer basis set
| 26> $new_job
| 27> %base "7-196_DFT_A"
| 28> ! wB97X-D3 def2-TZVP TIGHTSCF CHELPG PMODEL
| 29>
| 30> %scf
| 31> MaxIter 1000
| 32> end
| 33>
| 34> * xyz 0 1
| 35>   C                      6.175662             -11.349014           -7.590039
| 36>   O                      5.252921             -10.548341           -8.279196
| 37>   H                      5.728795             -9.750752            -8.445123
| 38>   H                      5.729943             -12.288351           -7.204422
| 39>   H                      7.016447             -11.610410           -8.171074
| 40>   H                      6.582394             -10.840848           -6.690959
| 41>   C                    : 6.374255             -7.881901            -6.550287
| 42>   O                    : 6.066963             -7.715218            -7.897293
| 43>   H                    : 5.128069             -7.470143            -8.009709
| 44>   H                    : 7.222504             -8.546221            -6.360239
| 45>   H                    : 6.481127             -6.878615            -6.062109
| 46>   H                    : 5.539970             -8.372866            -6.058516
| 47> *
| 48>
| 49> #Run DFT-D3 single point of the particle with dimer basis set
| 50> $new_job
| 51> %base "7-196_DFT_B"
| 52> ! wB97X-D3 def2-TZVP TIGHTSCF CHELPG PMODEL
| 53>
| 54> %scf
| 55> MaxIter 1000
| 56> end
| 57>
| 58> * xyz 0 1
| 59>   C                    : 6.175662             -11.349014           -7.590039
| 60>   O                    : 5.252921             -10.548341           -8.279196
| 61>   H                    : 5.728795             -9.750752            -8.445123
| 62>   H                    : 5.729943             -12.288351           -7.204422
| 63>   H                    : 7.016447             -11.610410           -8.171074
| 64>   H                    : 6.582394             -10.840848           -6.690959
| 65>   C                      6.374255             -7.881901            -6.550287
| 66>   O                      6.066963             -7.715218            -7.897293
| 67>   H                      5.128069             -7.470143            -8.009709
| 68>   H                      7.222504             -8.546221            -6.360239
| 69>   H                      6.481127             -6.878615            -6.062109
| 70>   H                      5.539970             -8.372866            -6.058516
| 71> *
| 72>
| 73>                          ****END OF INPUT****
 Total Charge           Charge          ....    0
 Multiplicity           Mult            ....    1
 Number of Electrons    NEL             ....   36
Dispersion correction           -0.002260707
FINAL SINGLE POINT ENERGY      -231.475514962494
Dispersion correction           -0.000225778
FINAL SINGLE POINT ENERGY      -115.734642003619

CARTESIAN COORDINATES (ANGSTROEM)
---------------------------------
  C      6.175662  -11.349014   -7.590039
  O      5.252921  -10.548341   -8.279196
  H      5.728795   -9.750752   -8.445123
  H      5.729943  -12.288351   -7.204422
  H      7.016447  -11.610410   -8.171074
  H      6.582394  -10.840848   -6.690959
  C      6.374255   -7.881901   -6.550287
  O      6.066963   -7.715218   -7.897293
  H      5.128069   -7.470143   -8.009709
  H      7.222504   -8.546221   -6.360239
  H      6.481127   -6.878615   -6.062109
  H      5.539970   -8.372866   -6.058516

 Multiplicity           Mult            ....    1
 Number of Electrons    NEL             ....   18
 Basis Dimension        Dim             ....  172

ORBITAL ENERGIES
----------------

  NO   OCC          E(Eh)            E(eV)
   0   2.0000     -19.230394      -523.2856
   1   2.0000     -10.313305      -280.6393
   2   2.0000      -1.138914       -30.9914
   3   2.0000      -0.792675       -21.5698
   4   2.0000      -0.613795       -16.7022
   5   2.0000      -0.546324       -14.8662
   6   2.0000      -0.530149       -14.4261
   7   2.0000      -0.425634       -11.5821
   8   2.0000      -0.370551       -10.0832
   9   0.0000       0.090925         2.4742
  10   0.0000       0.120608         3.2819
  11   0.0000       0.154002         4.1906
  12   0.0000       0.183867         5.0033
  13   0.0000       0.198350         5.3974

MULLIKEN ATOMIC CHARGES
-----------------------
   0 C :    0.003694
   1 O :   -0.001601
   2 H :   -0.012123
   3 H :   -0.000067
   4 H :   -0.000282
   5 H :   -0.003573
   6 C :   -0.162351
   7 O :   -0.475960
   8 H :    0.321848
   9 H :    0.123808
  10 H :    0.102484
  11 H :    0.104123
Sum of atomic charges:    0.0000000

LOEWDIN ATOMIC CHARGES
----------------------
   0 C :   -0.004201
   1 O :   -0.005176
   2 H :   -0.030367
   3 H :   -0.000020
   4 H :   -0.000050
   5 H :   -0.004066
   6 C :   -0.399932
   7 O :   -0.045092
   8 H :    0.183009
   9 H :    0.110485
  10 H :    0.100506
  11 H :    0.094902

  Mayer bond orders larger than 0.1
B(  6-C ,  7-O ) :   0.9775 B(  6-C ,  9-H ) :   0.9720 B(  6-C , 10-H ) :   0.9708
B(  6-C , 11-H ) :   0.9894 B(  7-O ,  8-H ) :   0.8900

Dispersion correction           -0.000232679
FINAL SINGLE POINT ENERGY      -115.733432362352

DIPOLE MOMENT
-------------
                                X             Y             Z
Electronic contribution:     -0.14758       0.16992      -1.81678
Nuclear contribution   :     -0.34888      -0.09818       2.27678
                        -----------------------------------------
Total Dipole Moment    :     -0.49646       0.07174       0.46000
                        -----------------------------------------
Magnitude (a.u.)       :      0.68060
Magnitude (Debye)      :      1.72996

Rotational constants in cm-1:     4.270547     0.845851     0.819109
Rotational constants in MHz : 128027.786097 25357.987240 24556.260297

                             ****ORCA TERMINATED NORMALLY****
TOTAL RUN TIME: 0 days 0 hours 1 minutes 14 seconds 147 msec
