                         Program Version 4.1.2  - RELEASE  -
|  1> #Run DFT-D3 single point of the dimer
|  2> ! wB97X-D3 def2-TZVP TIGHTSCF CHELPG PMODEL PAL8
|  3>
|  4> %base "1-184_DFT_AB"
|  5>
|  6> %scf
|  7> MaxIter 1000
|  8> end
|  9>
| 10> * xyz 0 1
| 11>   C                      -5.418018            -0.007236            -10.923150
| 12>   O                      -5.591947            0.277668             -9.601627
| 13>   H                      -6.368987            -0.173418            -9.187840
| 14>   H                      -5.751665            -0.998123            -11.135027
| 15>   H                      -6.004835            0.665018             -11.547061
| 16>   H                      -4.359219            -0.088258            -11.079899
| 17>   C                      -2.327110            -2.903883            -8.670189
| 18>   O                      -3.168885            -4.060055            -8.482473
| 19>   H                      -4.059235            -3.679543            -8.506496
| 20>   H                      -1.337132            -3.058067            -8.876180
| 21>   H                      -2.498338            -2.328589            -9.607238
| 22>   H                      -2.513887            -2.215761            -7.823694
| 23> *
| 24>
| 25> #Run DFT-D3 single point of the molecule with dimer basis set
| 26> $new_job
| 27> %base "1-184_DFT_A"
| 28> ! wB97X-D3 def2-TZVP TIGHTSCF CHELPG PMODEL
| 29>
| 30> %scf
| 31> MaxIter 1000
| 32> end
| 33>
| 34> * xyz 0 1
| 35>   C                      -5.418018            -0.007236            -10.923150
| 36>   O                      -5.591947            0.277668             -9.601627
| 37>   H                      -6.368987            -0.173418            -9.187840
| 38>   H                      -5.751665            -0.998123            -11.135027
| 39>   H                      -6.004835            0.665018             -11.547061
| 40>   H                      -4.359219            -0.088258            -11.079899
| 41>   C                    : -2.327110            -2.903883            -8.670189
| 42>   O                    : -3.168885            -4.060055            -8.482473
| 43>   H                    : -4.059235            -3.679543            -8.506496
| 44>   H                    : -1.337132            -3.058067            -8.876180
| 45>   H                    : -2.498338            -2.328589            -9.607238
| 46>   H                    : -2.513887            -2.215761            -7.823694
| 47> *
| 48>
| 49> #Run DFT-D3 single point of the particle with dimer basis set
| 50> $new_job
| 51> %base "1-184_DFT_B"
| 52> ! wB97X-D3 def2-TZVP TIGHTSCF CHELPG PMODEL
| 53>
| 54> %scf
| 55> MaxIter 1000
| 56> end
| 57>
| 58> * xyz 0 1
| 59>   C                    : -5.418018            -0.007236            -10.923150
| 60>   O                    : -5.591947            0.277668             -9.601627
| 61>   H                    : -6.368987            -0.173418            -9.187840
| 62>   H                    : -5.751665            -0.998123            -11.135027
| 63>   H                    : -6.004835            0.665018             -11.547061
| 64>   H                    : -4.359219            -0.088258            -11.079899
| 65>   C                      -2.327110            -2.903883            -8.670189
| 66>   O                      -3.168885            -4.060055            -8.482473
| 67>   H                      -4.059235            -3.679543            -8.506496
| 68>   H                      -1.337132            -3.058067            -8.876180
| 69>   H                      -2.498338            -2.328589            -9.607238
| 70>   H                      -2.513887            -2.215761            -7.823694
| 71> *
| 72>
| 73>                          ****END OF INPUT****
 Total Charge           Charge          ....    0
 Multiplicity           Mult            ....    1
 Number of Electrons    NEL             ....   36
Dispersion correction           -0.001034030
FINAL SINGLE POINT ENERGY      -231.452789860689
Dispersion correction           -0.000221978
FINAL SINGLE POINT ENERGY      -115.728813029550

CARTESIAN COORDINATES (ANGSTROEM)
---------------------------------
  C     -5.418018   -0.007236  -10.923150
  O     -5.591947    0.277668   -9.601627
  H     -6.368987   -0.173418   -9.187840
  H     -5.751665   -0.998123  -11.135027
  H     -6.004835    0.665018  -11.547061
  H     -4.359219   -0.088258  -11.079899
  C     -2.327110   -2.903883   -8.670189
  O     -3.168885   -4.060055   -8.482473
  H     -4.059235   -3.679543   -8.506496
  H     -1.337132   -3.058067   -8.876180
  H     -2.498338   -2.328589   -9.607238
  H     -2.513887   -2.215761   -7.823694

 Multiplicity           Mult            ....    1
 Number of Electrons    NEL             ....   18
 Basis Dimension        Dim             ....  172

ORBITAL ENERGIES
----------------

  NO   OCC          E(Eh)            E(eV)
   0   2.0000     -19.234952      -523.4096
   1   2.0000     -10.311819      -280.5989
   2   2.0000      -1.130394       -30.7596
   3   2.0000      -0.803214       -21.8566
   4   2.0000      -0.602209       -16.3869
   5   2.0000      -0.556310       -15.1380
   6   2.0000      -0.516715       -14.0605
   7   2.0000      -0.437256       -11.8983
   8   2.0000      -0.374774       -10.1981
   9   0.0000       0.074049         2.0150
  10   0.0000       0.120701         3.2844
  11   0.0000       0.142937         3.8895
  12   0.0000       0.161776         4.4021
  13   0.0000       0.186372         5.0714

MULLIKEN ATOMIC CHARGES
-----------------------
   0 C :    0.000853
   1 O :   -0.000082
   2 H :   -0.000021
   3 H :   -0.000141
   4 H :    0.000023
   5 H :   -0.000684
   6 C :   -0.192623
   7 O :   -0.466323
   8 H :    0.318420
   9 H :    0.131168
  10 H :    0.098117
  11 H :    0.111293
Sum of atomic charges:    0.0000000

LOEWDIN ATOMIC CHARGES
----------------------
   0 C :   -0.000477
   1 O :   -0.000019
   2 H :   -0.000013
   3 H :   -0.000052
   4 H :   -0.000002
   5 H :   -0.000685
   6 C :   -0.373019
   7 O :   -0.097307
   8 H :    0.176542
   9 H :    0.091680
  10 H :    0.101273
  11 H :    0.102079

  Mayer bond orders larger than 0.1
B(  6-C ,  7-O ) :   1.0002 B(  6-C ,  9-H ) :   0.9700 B(  6-C , 10-H ) :   0.9693
B(  6-C , 11-H ) :   0.9848 B(  7-O ,  8-H ) :   0.9000

Dispersion correction           -0.000246086
FINAL SINGLE POINT ENERGY      -115.723284543713

DIPOLE MOMENT
-------------
                                X             Y             Z
Electronic contribution:     -0.85360      -1.74033       0.33885
Nuclear contribution   :      0.66932       2.43126      -0.45924
                        -----------------------------------------
Total Dipole Moment    :     -0.18428       0.69093      -0.12039
                        -----------------------------------------
Magnitude (a.u.)       :      0.72514
Magnitude (Debye)      :      1.84317

Rotational constants in cm-1:     4.458974     0.799171     0.775919
Rotational constants in MHz : 133676.670760 23958.548800 23261.481009

                             ****ORCA TERMINATED NORMALLY****
TOTAL RUN TIME: 0 days 0 hours 6 minutes 0 seconds 779 msec
