                         Program Version 4.1.2  - RELEASE  -
|  1> #Run DFT-D3 single point of the dimer
|  2> ! wB97X-D3 def2-TZVP TIGHTSCF CHELPG PMODEL PAL8
|  3>
|  4> %base "1-64_DFT_AB"
|  5>
|  6> %scf
|  7> MaxIter 1000
|  8> end
|  9>
| 10> * xyz 0 1
| 11>   C                      5.651281             -6.607152            -7.131808
| 12>   O                      4.421029             -6.172387            -6.635053
| 13>   H                      3.846128             -6.941923            -6.443546
| 14>   H                      6.331579             -5.736460            -7.229165
| 15>   H                      6.041744             -7.382705            -6.519006
| 16>   H                      5.543523             -7.079936            -8.062609
| 17>   C                      9.668061             -3.866281            -6.976412
| 18>   O                      8.552818             -3.581596            -6.200644
| 19>   H                      8.019114             -2.985444            -6.708306
| 20>   H                      10.315615            -4.650284            -6.516347
| 21>   H                      9.364548             -4.279350            -7.979582
| 22>   H                      10.229104            -2.945901            -7.121084
| 23> *
| 24>
| 25> #Run DFT-D3 single point of the molecule with dimer basis set
| 26> $new_job
| 27> %base "1-64_DFT_A"
| 28> ! wB97X-D3 def2-TZVP TIGHTSCF CHELPG PMODEL
| 29>
| 30> %scf
| 31> MaxIter 1000
| 32> end
| 33>
| 34> * xyz 0 1
| 35>   C                      5.651281             -6.607152            -7.131808
| 36>   O                      4.421029             -6.172387            -6.635053
| 37>   H                      3.846128             -6.941923            -6.443546
| 38>   H                      6.331579             -5.736460            -7.229165
| 39>   H                      6.041744             -7.382705            -6.519006
| 40>   H                      5.543523             -7.079936            -8.062609
| 41>   C                    : 9.668061             -3.866281            -6.976412
| 42>   O                    : 8.552818             -3.581596            -6.200644
| 43>   H                    : 8.019114             -2.985444            -6.708306
| 44>   H                    : 10.315615            -4.650284            -6.516347
| 45>   H                    : 9.364548             -4.279350            -7.979582
| 46>   H                    : 10.229104            -2.945901            -7.121084
| 47> *
| 48>
| 49> #Run DFT-D3 single point of the particle with dimer basis set
| 50> $new_job
| 51> %base "1-64_DFT_B"
| 52> ! wB97X-D3 def2-TZVP TIGHTSCF CHELPG PMODEL
| 53>
| 54> %scf
| 55> MaxIter 1000
| 56> end
| 57>
| 58> * xyz 0 1
| 59>   C                    : 5.651281             -6.607152            -7.131808
| 60>   O                    : 4.421029             -6.172387            -6.635053
| 61>   H                    : 3.846128             -6.941923            -6.443546
| 62>   H                    : 6.331579             -5.736460            -7.229165
| 63>   H                    : 6.041744             -7.382705            -6.519006
| 64>   H                    : 5.543523             -7.079936            -8.062609
| 65>   C                      9.668061             -3.866281            -6.976412
| 66>   O                      8.552818             -3.581596            -6.200644
| 67>   H                      8.019114             -2.985444            -6.708306
| 68>   H                      10.315615            -4.650284            -6.516347
| 69>   H                      9.364548             -4.279350            -7.979582
| 70>   H                      10.229104            -2.945901            -7.121084
| 71> *
| 72>
| 73>                          ****END OF INPUT****
 Total Charge           Charge          ....    0
 Multiplicity           Mult            ....    1
 Number of Electrons    NEL             ....   36
Dispersion correction           -0.001012762
FINAL SINGLE POINT ENERGY      -231.468039116261
Dispersion correction           -0.000217693
FINAL SINGLE POINT ENERGY      -115.732453217090

CARTESIAN COORDINATES (ANGSTROEM)
---------------------------------
  C      5.651281   -6.607152   -7.131808
  O      4.421029   -6.172387   -6.635053
  H      3.846128   -6.941923   -6.443546
  H      6.331579   -5.736460   -7.229165
  H      6.041744   -7.382705   -6.519006
  H      5.543523   -7.079936   -8.062609
  C      9.668061   -3.866281   -6.976412
  O      8.552818   -3.581596   -6.200644
  H      8.019114   -2.985444   -6.708306
  H     10.315615   -4.650284   -6.516347
  H      9.364548   -4.279350   -7.979582
  H     10.229104   -2.945901   -7.121084

 Multiplicity           Mult            ....    1
 Number of Electrons    NEL             ....   18
 Basis Dimension        Dim             ....  172

ORBITAL ENERGIES
----------------

  NO   OCC          E(Eh)            E(eV)
   0   2.0000     -19.229428      -523.2593
   1   2.0000     -10.316616      -280.7294
   2   2.0000      -1.148909       -31.2634
   3   2.0000      -0.790784       -21.5183
   4   2.0000      -0.614909       -16.7325
   5   2.0000      -0.548130       -14.9154
   6   2.0000      -0.530247       -14.4288
   7   2.0000      -0.431095       -11.7307
   8   2.0000      -0.371894       -10.1197
   9   0.0000       0.089589         2.4378
  10   0.0000       0.116490         3.1698
  11   0.0000       0.155352         4.2273
  12   0.0000       0.172952         4.7063
  13   0.0000       0.194074         5.2810

MULLIKEN ATOMIC CHARGES
-----------------------
   0 C :    0.002809
   1 O :    0.000015
   2 H :    0.000007
   3 H :   -0.007639
   4 H :   -0.000061
   5 H :   -0.000189
   6 C :   -0.164003
   7 O :   -0.463581
   8 H :    0.315004
   9 H :    0.119294
  10 H :    0.092638
  11 H :    0.105706
Sum of atomic charges:    0.0000000

LOEWDIN ATOMIC CHARGES
----------------------
   0 C :   -0.000893
   1 O :   -0.000015
   2 H :   -0.000000
   3 H :   -0.003279
   4 H :   -0.000017
   5 H :   -0.000012
   6 C :   -0.409722
   7 O :   -0.053002
   8 H :    0.164901
   9 H :    0.112614
  10 H :    0.096793
  11 H :    0.092633

  Mayer bond orders larger than 0.1
B(  6-C ,  7-O ) :   0.9920 B(  6-C ,  9-H ) :   0.9707 B(  6-C , 10-H ) :   0.9781
B(  6-C , 11-H ) :   0.9802 B(  7-O ,  8-H ) :   0.8999

Dispersion correction           -0.000220055
FINAL SINGLE POINT ENERGY      -115.734842539891

DIPOLE MOMENT
-------------
                                X             Y             Z
Electronic contribution:     -1.37751       0.31242       1.18804
Nuclear contribution   :      1.47175      -0.03614      -1.79186
                        -----------------------------------------
Total Dipole Moment    :      0.09423       0.27628      -0.60382
                        -----------------------------------------
Magnitude (a.u.)       :      0.67068
Magnitude (Debye)      :      1.70473

Rotational constants in cm-1:     4.195735     0.857071     0.826589
Rotational constants in MHz : 125784.972428 25694.335578 24780.500064

                             ****ORCA TERMINATED NORMALLY****
TOTAL RUN TIME: 0 days 0 hours 6 minutes 11 seconds 840 msec
