                         Program Version 4.1.2  - RELEASE  -
|  1> #Run DFT-D3 single point of the dimer
|  2> ! wB97X-D3 def2-TZVP TIGHTSCF CHELPG PMODEL PAL8
|  3>
|  4> %base "2-135_DFT_AB"
|  5>
|  6> %scf
|  7> MaxIter 1000
|  8> end
|  9>
| 10> * xyz 0 1
| 11>   C                      -0.374480            -9.771720            -0.426842
| 12>   O                      -1.356860            -10.419149           -1.161084
| 13>   H                      -2.105428            -10.409884           -0.526393
| 14>   H                      -0.582705            -8.711593            -0.219260
| 15>   H                      -0.288451            -10.241618           0.570621
| 16>   H                      0.529468             -9.875784            -0.950636
| 17>   C                      -2.414577            -9.840233            4.373726
| 18>   O                      -2.565059            -10.638349           3.278567
| 19>   H                      -1.753456            -10.671124           2.788095
| 20>   H                      -2.990042            -10.192673           5.225289
| 21>   H                      -1.368952            -9.985903            4.812101
| 22>   H                      -2.448214            -8.747455            4.203547
| 23> *
| 24>
| 25> #Run DFT-D3 single point of the molecule with dimer basis set
| 26> $new_job
| 27> %base "2-135_DFT_A"
| 28> ! wB97X-D3 def2-TZVP TIGHTSCF CHELPG PMODEL
| 29>
| 30> %scf
| 31> MaxIter 1000
| 32> end
| 33>
| 34> * xyz 0 1
| 35>   C                      -0.374480            -9.771720            -0.426842
| 36>   O                      -1.356860            -10.419149           -1.161084
| 37>   H                      -2.105428            -10.409884           -0.526393
| 38>   H                      -0.582705            -8.711593            -0.219260
| 39>   H                      -0.288451            -10.241618           0.570621
| 40>   H                      0.529468             -9.875784            -0.950636
| 41>   C                    : -2.414577            -9.840233            4.373726
| 42>   O                    : -2.565059            -10.638349           3.278567
| 43>   H                    : -1.753456            -10.671124           2.788095
| 44>   H                    : -2.990042            -10.192673           5.225289
| 45>   H                    : -1.368952            -9.985903            4.812101
| 46>   H                    : -2.448214            -8.747455            4.203547
| 47> *
| 48>
| 49> #Run DFT-D3 single point of the particle with dimer basis set
| 50> $new_job
| 51> %base "2-135_DFT_B"
| 52> ! wB97X-D3 def2-TZVP TIGHTSCF CHELPG PMODEL
| 53>
| 54> %scf
| 55> MaxIter 1000
| 56> end
| 57>
| 58> * xyz 0 1
| 59>   C                    : -0.374480            -9.771720            -0.426842
| 60>   O                    : -1.356860            -10.419149           -1.161084
| 61>   H                    : -2.105428            -10.409884           -0.526393
| 62>   H                    : -0.582705            -8.711593            -0.219260
| 63>   H                    : -0.288451            -10.241618           0.570621
| 64>   H                    : 0.529468             -9.875784            -0.950636
| 65>   C                      -2.414577            -9.840233            4.373726
| 66>   O                      -2.565059            -10.638349           3.278567
| 67>   H                      -1.753456            -10.671124           2.788095
| 68>   H                      -2.990042            -10.192673           5.225289
| 69>   H                      -1.368952            -9.985903            4.812101
| 70>   H                      -2.448214            -8.747455            4.203547
| 71> *
| 72>
| 73>                          ****END OF INPUT****
 Total Charge           Charge          ....    0
 Multiplicity           Mult            ....    1
 Number of Electrons    NEL             ....   36
Dispersion correction           -0.001085687
FINAL SINGLE POINT ENERGY      -231.462613766480
Dispersion correction           -0.000205774
FINAL SINGLE POINT ENERGY      -115.732706394957

CARTESIAN COORDINATES (ANGSTROEM)
---------------------------------
  C     -0.374480   -9.771720   -0.426842
  O     -1.356860  -10.419149   -1.161084
  H     -2.105428  -10.409884   -0.526393
  H     -0.582705   -8.711593   -0.219260
  H     -0.288451  -10.241618    0.570621
  H      0.529468   -9.875784   -0.950636
  C     -2.414577   -9.840233    4.373726
  O     -2.565059  -10.638349    3.278567
  H     -1.753456  -10.671124    2.788095
  H     -2.990042  -10.192673    5.225289
  H     -1.368952   -9.985903    4.812101
  H     -2.448214   -8.747455    4.203547

 Multiplicity           Mult            ....    1
 Number of Electrons    NEL             ....   18
 Basis Dimension        Dim             ....  172

ORBITAL ENERGIES
----------------

  NO   OCC          E(Eh)            E(eV)
   0   2.0000     -19.232057      -523.3309
   1   2.0000     -10.315197      -280.6908
   2   2.0000      -1.155887       -31.4533
   3   2.0000      -0.794005       -21.6060
   4   2.0000      -0.625285       -17.0149
   5   2.0000      -0.552577       -15.0364
   6   2.0000      -0.528288       -14.3754
   7   2.0000      -0.421297       -11.4641
   8   2.0000      -0.373511       -10.1637
   9   0.0000       0.075727         2.0606
  10   0.0000       0.124092         3.3767
  11   0.0000       0.152062         4.1378
  12   0.0000       0.169412         4.6099
  13   0.0000       0.188146         5.1197

MULLIKEN ATOMIC CHARGES
-----------------------
   0 C :   -0.000219
   1 O :    0.000215
   2 H :   -0.000775
   3 H :    0.000119
   4 H :   -0.001378
   5 H :   -0.000139
   6 C :   -0.169832
   7 O :   -0.460141
   8 H :    0.322928
   9 H :    0.121303
  10 H :    0.086877
  11 H :    0.101043
Sum of atomic charges:    0.0000000

LOEWDIN ATOMIC CHARGES
----------------------
   0 C :   -0.000884
   1 O :   -0.000019
   2 H :   -0.000511
   3 H :   -0.000029
   4 H :   -0.001524
   5 H :   -0.000024
   6 C :   -0.434811
   7 O :   -0.031050
   8 H :    0.168374
   9 H :    0.106269
  10 H :    0.099525
  11 H :    0.094684

  Mayer bond orders larger than 0.1
B(  6-C ,  7-O ) :   1.0110 B(  6-C ,  9-H ) :   0.9705 B(  6-C , 10-H ) :   0.9912
B(  6-C , 11-H ) :   0.9631 B(  7-O ,  8-H ) :   0.8960

Dispersion correction           -0.000236875
FINAL SINGLE POINT ENERGY      -115.729343170044

DIPOLE MOMENT
-------------
                                X             Y             Z
Electronic contribution:     -0.58403      -1.05727      -1.56810
Nuclear contribution   :      1.18055       1.29596       1.66212
                        -----------------------------------------
Total Dipole Moment    :      0.59652       0.23869       0.09402
                        -----------------------------------------
Magnitude (a.u.)       :      0.64934
Magnitude (Debye)      :      1.65050

Rotational constants in cm-1:     4.321747     0.864842     0.840930
Rotational constants in MHz : 129562.718475 25927.300255 25210.457912

                             ****ORCA TERMINATED NORMALLY****
TOTAL RUN TIME: 0 days 0 hours 6 minutes 16 seconds 842 msec
