                         Program Version 4.1.2  - RELEASE  -
|  1> #Run DFT-D3 single point of the dimer
|  2> ! wB97X-D3 def2-TZVP TIGHTSCF CHELPG PMODEL PAL8
|  3>
|  4> %base "8-196_DFT_AB"
|  5>
|  6> %scf
|  7> MaxIter 1000
|  8> end
|  9>
| 10> * xyz 0 1
| 11>   C                      -10.411031           -6.497166            -1.425488
| 12>   O                      -10.103061           -6.686543            -0.088535
| 13>   H                      -9.212419            -6.309215            0.118963
| 14>   H                      -11.253937           -5.788915            -1.566383
| 15>   H                      -9.499957            -5.949211            -1.949446
| 16>   H                      -10.717005           -7.407105            -1.952296
| 17>   C                      -8.722772            -5.701760            3.170103
| 18>   O                      -8.851044            -5.193375            1.913721
| 19>   H                      -9.216482            -4.245808            1.955652
| 20>   H                      -8.257853            -6.713233            3.098251
| 21>   H                      -8.085925            -5.080050            3.783799
| 22>   H                      -9.657837            -5.779240            3.644366
| 23> *
| 24>
| 25> #Run DFT-D3 single point of the molecule with dimer basis set
| 26> $new_job
| 27> %base "8-196_DFT_A"
| 28> ! wB97X-D3 def2-TZVP TIGHTSCF CHELPG PMODEL
| 29>
| 30> %scf
| 31> MaxIter 1000
| 32> end
| 33>
| 34> * xyz 0 1
| 35>   C                      -10.411031           -6.497166            -1.425488
| 36>   O                      -10.103061           -6.686543            -0.088535
| 37>   H                      -9.212419            -6.309215            0.118963
| 38>   H                      -11.253937           -5.788915            -1.566383
| 39>   H                      -9.499957            -5.949211            -1.949446
| 40>   H                      -10.717005           -7.407105            -1.952296
| 41>   C                    : -8.722772            -5.701760            3.170103
| 42>   O                    : -8.851044            -5.193375            1.913721
| 43>   H                    : -9.216482            -4.245808            1.955652
| 44>   H                    : -8.257853            -6.713233            3.098251
| 45>   H                    : -8.085925            -5.080050            3.783799
| 46>   H                    : -9.657837            -5.779240            3.644366
| 47> *
| 48>
| 49> #Run DFT-D3 single point of the particle with dimer basis set
| 50> $new_job
| 51> %base "8-196_DFT_B"
| 52> ! wB97X-D3 def2-TZVP TIGHTSCF CHELPG PMODEL
| 53>
| 54> %scf
| 55> MaxIter 1000
| 56> end
| 57>
| 58> * xyz 0 1
| 59>   C                    : -10.411031           -6.497166            -1.425488
| 60>   O                    : -10.103061           -6.686543            -0.088535
| 61>   H                    : -9.212419            -6.309215            0.118963
| 62>   H                    : -11.253937           -5.788915            -1.566383
| 63>   H                    : -9.499957            -5.949211            -1.949446
| 64>   H                    : -10.717005           -7.407105            -1.952296
| 65>   C                      -8.722772            -5.701760            3.170103
| 66>   O                      -8.851044            -5.193375            1.913721
| 67>   H                      -9.216482            -4.245808            1.955652
| 68>   H                      -8.257853            -6.713233            3.098251
| 69>   H                      -8.085925            -5.080050            3.783799
| 70>   H                      -9.657837            -5.779240            3.644366
| 71> *
| 72>
| 73>                          ****END OF INPUT****
 Total Charge           Charge          ....    0
 Multiplicity           Mult            ....    1
 Number of Electrons    NEL             ....   36
Dispersion correction           -0.001502140
FINAL SINGLE POINT ENERGY      -231.463041798049
Dispersion correction           -0.000257718
FINAL SINGLE POINT ENERGY      -115.728261006154

CARTESIAN COORDINATES (ANGSTROEM)
---------------------------------
  C    -10.411031   -6.497166   -1.425488
  O    -10.103061   -6.686543   -0.088535
  H     -9.212419   -6.309215    0.118963
  H    -11.253937   -5.788915   -1.566383
  H     -9.499957   -5.949211   -1.949446
  H    -10.717005   -7.407105   -1.952296
  C     -8.722772   -5.701760    3.170103
  O     -8.851044   -5.193375    1.913721
  H     -9.216482   -4.245808    1.955652
  H     -8.257853   -6.713233    3.098251
  H     -8.085925   -5.080050    3.783799
  H     -9.657837   -5.779240    3.644366

 Multiplicity           Mult            ....    1
 Number of Electrons    NEL             ....   18
 Basis Dimension        Dim             ....  172

ORBITAL ENERGIES
----------------

  NO   OCC          E(Eh)            E(eV)
   0   2.0000     -19.232130      -523.3329
   1   2.0000     -10.303556      -280.3740
   2   2.0000      -1.142458       -31.0879
   3   2.0000      -0.790172       -21.5017
   4   2.0000      -0.616607       -16.7787
   5   2.0000      -0.551956       -15.0195
   6   2.0000      -0.530584       -14.4379
   7   2.0000      -0.425234       -11.5712
   8   2.0000      -0.368821       -10.0361
   9   0.0000       0.095785         2.6064
  10   0.0000       0.116667         3.1747
  11   0.0000       0.155191         4.2230
  12   0.0000       0.188192         5.1210
  13   0.0000       0.205622         5.5952

MULLIKEN ATOMIC CHARGES
-----------------------
   0 C :   -0.001960
   1 O :    0.001630
   2 H :   -0.008443
   3 H :    0.000131
   4 H :    0.000135
   5 H :   -0.000119
   6 C :   -0.137497
   7 O :   -0.470637
   8 H :    0.317235
   9 H :    0.112170
  10 H :    0.089808
  11 H :    0.097546
Sum of atomic charges:   -0.0000000

LOEWDIN ATOMIC CHARGES
----------------------
   0 C :   -0.001417
   1 O :   -0.011153
   2 H :   -0.026484
   3 H :   -0.000049
   4 H :   -0.000049
   5 H :   -0.000048
   6 C :   -0.422976
   7 O :   -0.030899
   8 H :    0.203623
   9 H :    0.115596
  10 H :    0.090239
  11 H :    0.083617

  Mayer bond orders larger than 0.1
B(  6-C ,  7-O ) :   0.9933 B(  6-C ,  9-H ) :   0.9733 B(  6-C , 10-H ) :   0.9766
B(  6-C , 11-H ) :   0.9795 B(  7-O ,  8-H ) :   0.8841

Dispersion correction           -0.000214280
FINAL SINGLE POINT ENERGY      -115.730973064713

DIPOLE MOMENT
-------------
                                X             Y             Z
Electronic contribution:     -0.15431       0.54189      -1.67779
Nuclear contribution   :     -0.02863      -0.13843       2.18230
                        -----------------------------------------
Total Dipole Moment    :     -0.18294       0.40345       0.50451
                        -----------------------------------------
Magnitude (a.u.)       :      0.67139
Magnitude (Debye)      :      1.70655

Rotational constants in cm-1:     4.275918     0.887896     0.845977
Rotational constants in MHz : 128188.787204 26618.456971 25361.762588

                             ****ORCA TERMINATED NORMALLY****
TOTAL RUN TIME: 0 days 0 hours 0 minutes 46 seconds 114 msec
