                         Program Version 4.1.2  - RELEASE  -
|  1> #Run DFT-D3 single point of the dimer
|  2> ! wB97X-D3 def2-TZVP TIGHTSCF CHELPG PMODEL PAL8
|  3>
|  4> %base "10-56_DFT_AB"
|  5>
|  6> %scf
|  7> MaxIter 1000
|  8> end
|  9>
| 10> * xyz 0 1
| 11>   C                      -11.310636           -6.749428            -0.716338
| 12>   O                      -10.161018           -6.596171            0.174576
| 13>   H                      -10.318668           -6.843313            1.117006
| 14>   H                      -11.063202           -6.918290            -1.771602
| 15>   H                      -11.690728           -7.749996            -0.577357
| 16>   H                      -12.139721           -6.115864            -0.581882
| 17>   C                      -9.264148            -6.704669            3.638234
| 18>   O                      -10.321744           -6.155424            2.857024
| 19>   H                      -10.265053           -5.168115            3.047983
| 20>   H                      -8.352271            -6.800922            3.072266
| 21>   H                      -8.955576            -6.037905            4.503444
| 22>   H                      -9.506929            -7.765594            3.969996
| 23> *
| 24>
| 25> #Run DFT-D3 single point of the molecule with dimer basis set
| 26> $new_job
| 27> %base "10-56_DFT_A"
| 28> ! wB97X-D3 def2-TZVP TIGHTSCF CHELPG PMODEL
| 29>
| 30> %scf
| 31> MaxIter 1000
| 32> end
| 33>
| 34> * xyz 0 1
| 35>   C                      -11.310636           -6.749428            -0.716338
| 36>   O                      -10.161018           -6.596171            0.174576
| 37>   H                      -10.318668           -6.843313            1.117006
| 38>   H                      -11.063202           -6.918290            -1.771602
| 39>   H                      -11.690728           -7.749996            -0.577357
| 40>   H                      -12.139721           -6.115864            -0.581882
| 41>   C                    : -9.264148            -6.704669            3.638234
| 42>   O                    : -10.321744           -6.155424            2.857024
| 43>   H                    : -10.265053           -5.168115            3.047983
| 44>   H                    : -8.352271            -6.800922            3.072266
| 45>   H                    : -8.955576            -6.037905            4.503444
| 46>   H                    : -9.506929            -7.765594            3.969996
| 47> *
| 48>
| 49> #Run DFT-D3 single point of the particle with dimer basis set
| 50> $new_job
| 51> %base "10-56_DFT_B"
| 52> ! wB97X-D3 def2-TZVP TIGHTSCF CHELPG PMODEL
| 53>
| 54> %scf
| 55> MaxIter 1000
| 56> end
| 57>
| 58> * xyz 0 1
| 59>   C                    : -11.310636           -6.749428            -0.716338
| 60>   O                    : -10.161018           -6.596171            0.174576
| 61>   H                    : -10.318668           -6.843313            1.117006
| 62>   H                    : -11.063202           -6.918290            -1.771602
| 63>   H                    : -11.690728           -7.749996            -0.577357
| 64>   H                    : -12.139721           -6.115864            -0.581882
| 65>   C                      -9.264148            -6.704669            3.638234
| 66>   O                      -10.321744           -6.155424            2.857024
| 67>   H                      -10.265053           -5.168115            3.047983
| 68>   H                      -8.352271            -6.800922            3.072266
| 69>   H                      -8.955576            -6.037905            4.503444
| 70>   H                      -9.506929            -7.765594            3.969996
| 71> *
| 72>
| 73>                          ****END OF INPUT****
 Total Charge           Charge          ....    0
 Multiplicity           Mult            ....    1
 Number of Electrons    NEL             ....   36
Dispersion correction           -0.001624390
FINAL SINGLE POINT ENERGY      -231.457055875647
Dispersion correction           -0.000286331
FINAL SINGLE POINT ENERGY      -115.721526956024

CARTESIAN COORDINATES (ANGSTROEM)
---------------------------------
  C    -11.310636   -6.749428   -0.716338
  O    -10.161018   -6.596171    0.174576
  H    -10.318668   -6.843313    1.117006
  H    -11.063202   -6.918290   -1.771602
  H    -11.690728   -7.749996   -0.577357
  H    -12.139721   -6.115864   -0.581882
  C     -9.264148   -6.704669    3.638234
  O    -10.321744   -6.155424    2.857024
  H    -10.265053   -5.168115    3.047983
  H     -8.352271   -6.800922    3.072266
  H     -8.955576   -6.037905    4.503444
  H     -9.506929   -7.765594    3.969996

 Multiplicity           Mult            ....    1
 Number of Electrons    NEL             ....   18
 Basis Dimension        Dim             ....  172

ORBITAL ENERGIES
----------------

  NO   OCC          E(Eh)            E(eV)
   0   2.0000     -19.238653      -523.5104
   1   2.0000     -10.321257      -280.8557
   2   2.0000      -1.129002       -30.7217
   3   2.0000      -0.786577       -21.4039
   4   2.0000      -0.605748       -16.4832
   5   2.0000      -0.531695       -14.4681
   6   2.0000      -0.523532       -14.2460
   7   2.0000      -0.440126       -11.9764
   8   2.0000      -0.371623       -10.1124
   9   0.0000       0.095296         2.5931
  10   0.0000       0.115107         3.1322
  11   0.0000       0.147552         4.0151
  12   0.0000       0.183444         4.9918
  13   0.0000       0.197761         5.3814

MULLIKEN ATOMIC CHARGES
-----------------------
   0 C :   -0.001594
   1 O :   -0.001162
   2 H :   -0.002311
   3 H :   -0.000090
   4 H :   -0.000195
   5 H :   -0.000136
   6 C :   -0.180469
   7 O :   -0.464102
   8 H :    0.318479
   9 H :    0.112498
  10 H :    0.104764
  11 H :    0.114317
Sum of atomic charges:    0.0000000

LOEWDIN ATOMIC CHARGES
----------------------
   0 C :   -0.001857
   1 O :   -0.011112
   2 H :   -0.046653
   3 H :   -0.000037
   4 H :   -0.000054
   5 H :   -0.000130
   6 C :   -0.393365
   7 O :   -0.054159
   8 H :    0.199335
   9 H :    0.090752
  10 H :    0.103948
  11 H :    0.113333

  Mayer bond orders larger than 0.1
B(  6-C ,  7-O ) :   0.9968 B(  6-C ,  9-H ) :   0.9737 B(  6-C , 10-H ) :   0.9750
B(  6-C , 11-H ) :   0.9749 B(  7-O ,  8-H ) :   0.8930

Dispersion correction           -0.000257349
FINAL SINGLE POINT ENERGY      -115.729762470264

DIPOLE MOMENT
-------------
                                X             Y             Z
Electronic contribution:     -1.49841       0.56698      -1.07703
Nuclear contribution   :      1.95482      -0.16762       1.49143
                        -----------------------------------------
Total Dipole Moment    :      0.45641       0.39936       0.41440
                        -----------------------------------------
Magnitude (a.u.)       :      0.73453
Magnitude (Debye)      :      1.86702

Rotational constants in cm-1:     4.085237     0.822792     0.775658
Rotational constants in MHz : 122472.333558 24666.694997 23253.631662

                             ****ORCA TERMINATED NORMALLY****
TOTAL RUN TIME: 0 days 0 hours 1 minutes 6 seconds 744 msec
