                         Program Version 4.1.2  - RELEASE  -
|  1> #Run DFT-D3 single point of the dimer
|  2> ! wB97X-D3 def2-TZVP TIGHTSCF CHELPG PMODEL PAL8
|  3>
|  4> %base "2-98_DFT_AB"
|  5>
|  6> %scf
|  7> MaxIter 1000
|  8> end
|  9>
| 10> * xyz 0 1
| 11>   C                      10.131559            -0.929883            -3.069840
| 12>   O                      8.749478             -0.835584            -3.413896
| 13>   H                      8.295501             -1.609561            -3.197512
| 14>   H                      10.881002            -1.133662            -3.916814
| 15>   H                      10.518113            -0.027949            -2.527007
| 16>   H                      10.152257            -1.698416            -2.209900
| 17>   C                      6.959025             3.072497             -5.623268
| 18>   O                      6.539621             3.451904             -6.927977
| 19>   H                      7.290291             3.178967             -7.494902
| 20>   H                      7.249866             2.084123             -5.559084
| 21>   H                      7.783819             3.744292             -5.232767
| 22>   H                      6.170345             3.259439             -4.923721
| 23> *
| 24>
| 25> #Run DFT-D3 single point of the molecule with dimer basis set
| 26> $new_job
| 27> %base "2-98_DFT_A"
| 28> ! wB97X-D3 def2-TZVP TIGHTSCF CHELPG PMODEL
| 29>
| 30> %scf
| 31> MaxIter 1000
| 32> end
| 33>
| 34> * xyz 0 1
| 35>   C                      10.131559            -0.929883            -3.069840
| 36>   O                      8.749478             -0.835584            -3.413896
| 37>   H                      8.295501             -1.609561            -3.197512
| 38>   H                      10.881002            -1.133662            -3.916814
| 39>   H                      10.518113            -0.027949            -2.527007
| 40>   H                      10.152257            -1.698416            -2.209900
| 41>   C                    : 6.959025             3.072497             -5.623268
| 42>   O                    : 6.539621             3.451904             -6.927977
| 43>   H                    : 7.290291             3.178967             -7.494902
| 44>   H                    : 7.249866             2.084123             -5.559084
| 45>   H                    : 7.783819             3.744292             -5.232767
| 46>   H                    : 6.170345             3.259439             -4.923721
| 47> *
| 48>
| 49> #Run DFT-D3 single point of the particle with dimer basis set
| 50> $new_job
| 51> %base "2-98_DFT_B"
| 52> ! wB97X-D3 def2-TZVP TIGHTSCF CHELPG PMODEL
| 53>
| 54> %scf
| 55> MaxIter 1000
| 56> end
| 57>
| 58> * xyz 0 1
| 59>   C                    : 10.131559            -0.929883            -3.069840
| 60>   O                    : 8.749478             -0.835584            -3.413896
| 61>   H                    : 8.295501             -1.609561            -3.197512
| 62>   H                    : 10.881002            -1.133662            -3.916814
| 63>   H                    : 10.518113            -0.027949            -2.527007
| 64>   H                    : 10.152257            -1.698416            -2.209900
| 65>   C                      6.959025             3.072497             -5.623268
| 66>   O                      6.539621             3.451904             -6.927977
| 67>   H                      7.290291             3.178967             -7.494902
| 68>   H                      7.249866             2.084123             -5.559084
| 69>   H                      7.783819             3.744292             -5.232767
| 70>   H                      6.170345             3.259439             -4.923721
| 71> *
| 72>
| 73>                          ****END OF INPUT****
 Total Charge           Charge          ....    0
 Multiplicity           Mult            ....    1
 Number of Electrons    NEL             ....   36
Dispersion correction           -0.000713100
FINAL SINGLE POINT ENERGY      -231.457179660612
Dispersion correction           -0.000278317
FINAL SINGLE POINT ENERGY      -115.724300022660

CARTESIAN COORDINATES (ANGSTROEM)
---------------------------------
  C     10.131559   -0.929883   -3.069840
  O      8.749478   -0.835584   -3.413896
  H      8.295501   -1.609561   -3.197512
  H     10.881002   -1.133662   -3.916814
  H     10.518113   -0.027949   -2.527007
  H     10.152257   -1.698416   -2.209900
  C      6.959025    3.072497   -5.623268
  O      6.539621    3.451904   -6.927977
  H      7.290291    3.178967   -7.494902
  H      7.249866    2.084123   -5.559084
  H      7.783819    3.744292   -5.232767
  H      6.170345    3.259439   -4.923721

 Multiplicity           Mult            ....    1
 Number of Electrons    NEL             ....   18
 Basis Dimension        Dim             ....  172

ORBITAL ENERGIES
----------------

  NO   OCC          E(Eh)            E(eV)
   0   2.0000     -19.233786      -523.3779
   1   2.0000     -10.307355      -280.4774
   2   2.0000      -1.133112       -30.8335
   3   2.0000      -0.797383       -21.6979
   4   2.0000      -0.608705       -16.5637
   5   2.0000      -0.544015       -14.8034
   6   2.0000      -0.524678       -14.2772
   7   2.0000      -0.440176       -11.9778
   8   2.0000      -0.374256       -10.1840
   9   0.0000       0.082090         2.2338
  10   0.0000       0.114401         3.1130
  11   0.0000       0.146538         3.9875
  12   0.0000       0.162935         4.4337
  13   0.0000       0.185186         5.0392

MULLIKEN ATOMIC CHARGES
-----------------------
   0 C :   -0.000057
   1 O :   -0.000006
   2 H :   -0.000006
   3 H :    0.000002
   4 H :    0.000003
   5 H :    0.000000
   6 C :   -0.175136
   7 O :   -0.465833
   8 H :    0.314277
   9 H :    0.112580
  10 H :    0.094038
  11 H :    0.120138
Sum of atomic charges:   -0.0000000

LOEWDIN ATOMIC CHARGES
----------------------
   0 C :   -0.000033
   1 O :   -0.000080
   2 H :   -0.000011
   3 H :   -0.000001
   4 H :   -0.000002
   5 H :   -0.000001
   6 C :   -0.380521
   7 O :   -0.088138
   8 H :    0.181795
   9 H :    0.080844
  10 H :    0.101782
  11 H :    0.104366

  Mayer bond orders larger than 0.1
B(  6-C ,  7-O ) :   1.0057 B(  6-C ,  9-H ) :   0.9753 B(  6-C , 10-H ) :   0.9766
B(  6-C , 11-H ) :   0.9754 B(  7-O ,  8-H ) :   0.9005

Dispersion correction           -0.000232847
FINAL SINGLE POINT ENERGY      -115.732001613913

DIPOLE MOMENT
-------------
                                X             Y             Z
Electronic contribution:     -0.71795       0.39096      -1.67361
Nuclear contribution   :      1.32228      -0.72710       1.84705
                        -----------------------------------------
Total Dipole Moment    :      0.60433      -0.33614       0.17344
                        -----------------------------------------
Magnitude (a.u.)       :      0.71294
Magnitude (Debye)      :      1.81215

Rotational constants in cm-1:     4.345006     0.826463     0.798859
Rotational constants in MHz : 130260.002241 24776.730347 23949.180779

                             ****ORCA TERMINATED NORMALLY****
TOTAL RUN TIME: 0 days 0 hours 6 minutes 7 seconds 420 msec
