                         Program Version 4.1.2  - RELEASE  -
|  1> #Run DFT-D3 single point of the dimer
|  2> ! wB97X-D3 def2-TZVP TIGHTSCF CHELPG PMODEL PAL8
|  3>
|  4> %base "11-17_DFT_AB"
|  5>
|  6> %scf
|  7> MaxIter 1000
|  8> end
|  9>
| 10> * xyz 0 1
| 11>   C                      -9.588072            -1.444471            5.461368
| 12>   O                      -10.403230           -2.633637            5.367968
| 13>   H                      -11.278415           -2.425012            5.028035
| 14>   H                      -9.139766            -1.218325            4.490122
| 15>   H                      -10.162974           -0.559693            5.727943
| 16>   H                      -8.740249            -1.545357            6.116138
| 17>   C                      -10.375505           -4.960749            7.946851
| 18>   O                      -9.642178            -5.442567            9.053900
| 19>   H                      -8.691800            -5.201689            8.950636
| 20>   H                      -10.167035           -3.861458            7.836192
| 21>   H                      -10.193119           -5.459755            6.987035
| 22>   H                      -11.476513           -4.870037            8.202719
| 23> *
| 24>
| 25> #Run DFT-D3 single point of the molecule with dimer basis set
| 26> $new_job
| 27> %base "11-17_DFT_A"
| 28> ! wB97X-D3 def2-TZVP TIGHTSCF CHELPG PMODEL
| 29>
| 30> %scf
| 31> MaxIter 1000
| 32> end
| 33>
| 34> * xyz 0 1
| 35>   C                      -9.588072            -1.444471            5.461368
| 36>   O                      -10.403230           -2.633637            5.367968
| 37>   H                      -11.278415           -2.425012            5.028035
| 38>   H                      -9.139766            -1.218325            4.490122
| 39>   H                      -10.162974           -0.559693            5.727943
| 40>   H                      -8.740249            -1.545357            6.116138
| 41>   C                    : -10.375505           -4.960749            7.946851
| 42>   O                    : -9.642178            -5.442567            9.053900
| 43>   H                    : -8.691800            -5.201689            8.950636
| 44>   H                    : -10.167035           -3.861458            7.836192
| 45>   H                    : -10.193119           -5.459755            6.987035
| 46>   H                    : -11.476513           -4.870037            8.202719
| 47> *
| 48>
| 49> #Run DFT-D3 single point of the particle with dimer basis set
| 50> $new_job
| 51> %base "11-17_DFT_B"
| 52> ! wB97X-D3 def2-TZVP TIGHTSCF CHELPG PMODEL
| 53>
| 54> %scf
| 55> MaxIter 1000
| 56> end
| 57>
| 58> * xyz 0 1
| 59>   C                    : -9.588072            -1.444471            5.461368
| 60>   O                    : -10.403230           -2.633637            5.367968
| 61>   H                    : -11.278415           -2.425012            5.028035
| 62>   H                    : -9.139766            -1.218325            4.490122
| 63>   H                    : -10.162974           -0.559693            5.727943
| 64>   H                    : -8.740249            -1.545357            6.116138
| 65>   C                      -10.375505           -4.960749            7.946851
| 66>   O                      -9.642178            -5.442567            9.053900
| 67>   H                      -8.691800            -5.201689            8.950636
| 68>   H                      -10.167035           -3.861458            7.836192
| 69>   H                      -10.193119           -5.459755            6.987035
| 70>   H                      -11.476513           -4.870037            8.202719
| 71> *
| 72>
| 73>                          ****END OF INPUT****
 Total Charge           Charge          ....    0
 Multiplicity           Mult            ....    1
 Number of Electrons    NEL             ....   36
Dispersion correction           -0.001532439
FINAL SINGLE POINT ENERGY      -231.466134645031
Dispersion correction           -0.000263343
FINAL SINGLE POINT ENERGY      -115.733949541100

CARTESIAN COORDINATES (ANGSTROEM)
---------------------------------
  C     -9.588072   -1.444471    5.461368
  O    -10.403230   -2.633637    5.367968
  H    -11.278415   -2.425012    5.028035
  H     -9.139766   -1.218325    4.490122
  H    -10.162974   -0.559693    5.727943
  H     -8.740249   -1.545357    6.116138
  C    -10.375505   -4.960749    7.946851
  O     -9.642178   -5.442567    9.053900
  H     -8.691800   -5.201689    8.950636
  H    -10.167035   -3.861458    7.836192
  H    -10.193119   -5.459755    6.987035
  H    -11.476513   -4.870037    8.202719

 Multiplicity           Mult            ....    1
 Number of Electrons    NEL             ....   18
 Basis Dimension        Dim             ....  172

ORBITAL ENERGIES
----------------

  NO   OCC          E(Eh)            E(eV)
   0   2.0000     -19.233627      -523.3736
   1   2.0000     -10.320785      -280.8428
   2   2.0000      -1.131807       -30.7980
   3   2.0000      -0.789261       -21.4769
   4   2.0000      -0.607412       -16.5285
   5   2.0000      -0.546630       -14.8746
   6   2.0000      -0.519242       -14.1293
   7   2.0000      -0.422500       -11.4968
   8   2.0000      -0.374805       -10.1990
   9   0.0000       0.078749         2.1429
  10   0.0000       0.113604         3.0913
  11   0.0000       0.142809         3.8860
  12   0.0000       0.169279         4.6063
  13   0.0000       0.185172         5.0388

MULLIKEN ATOMIC CHARGES
-----------------------
   0 C :   -0.000893
   1 O :   -0.000455
   2 H :   -0.000088
   3 H :   -0.000017
   4 H :    0.000038
   5 H :   -0.000165
   6 C :   -0.169325
   7 O :   -0.477265
   8 H :    0.320232
   9 H :    0.098809
  10 H :    0.108437
  11 H :    0.120691
Sum of atomic charges:   -0.0000000

LOEWDIN ATOMIC CHARGES
----------------------
   0 C :   -0.002432
   1 O :   -0.003346
   2 H :   -0.000295
   3 H :   -0.000042
   4 H :   -0.000042
   5 H :   -0.000508
   6 C :   -0.403858
   7 O :   -0.088280
   8 H :    0.184398
   9 H :    0.101551
  10 H :    0.094772
  11 H :    0.118083

  Mayer bond orders larger than 0.1
B(  6-C ,  7-O ) :   1.0040 B(  6-C ,  9-H ) :   0.9858 B(  6-C , 10-H ) :   0.9637
B(  6-C , 11-H ) :   0.9670 B(  7-O ,  8-H ) :   0.8914

Dispersion correction           -0.000260124
FINAL SINGLE POINT ENERGY      -115.730695852384

DIPOLE MOMENT
-------------
                                X             Y             Z
Electronic contribution:      0.87911      -0.90279       1.42954
Nuclear contribution   :     -0.57068       1.26814      -1.91110
                        -----------------------------------------
Total Dipole Moment    :      0.30843       0.36535      -0.48156
                        -----------------------------------------
Magnitude (a.u.)       :      0.67861
Magnitude (Debye)      :      1.72490

Rotational constants in cm-1:     4.178446     0.817391     0.793514
Rotational constants in MHz : 125266.663935 24504.762628 23788.945501

                             ****ORCA TERMINATED NORMALLY****
TOTAL RUN TIME: 0 days 0 hours 1 minutes 8 seconds 846 msec
