                         Program Version 4.1.2  - RELEASE  -
|  1> #Run DFT-D3 single point of the dimer
|  2> ! wB97X-D3 def2-TZVP TIGHTSCF CHELPG PMODEL PAL8
|  3>
|  4> %base "12-44_DFT_AB"
|  5>
|  6> %scf
|  7> MaxIter 1000
|  8> end
|  9>
| 10> * xyz 0 1
| 11>   C                      -2.565252            4.718114             -0.085181
| 12>   O                      -2.001019            4.805665             -1.430314
| 13>   H                      -1.240345            5.338943             -1.221299
| 14>   H                      -1.779562            4.387065             0.613376
| 15>   H                      -2.893558            5.626545             0.347260
| 16>   H                      -3.394099            4.098800             0.009473
| 17>   C                      -7.713229            4.227343             -0.511895
| 18>   O                      -8.035849            5.574030             -0.400636
| 19>   H                      -8.691770            5.566973             0.273674
| 20>   H                      -8.487679            3.694594             -1.122684
| 21>   H                      -6.772463            4.108117             -0.921444
| 22>   H                      -7.696652            3.838080             0.479152
| 23> *
| 24>
| 25> #Run DFT-D3 single point of the molecule with dimer basis set
| 26> $new_job
| 27> %base "12-44_DFT_A"
| 28> ! wB97X-D3 def2-TZVP TIGHTSCF CHELPG PMODEL
| 29>
| 30> %scf
| 31> MaxIter 1000
| 32> end
| 33>
| 34> * xyz 0 1
| 35>   C                      -2.565252            4.718114             -0.085181
| 36>   O                      -2.001019            4.805665             -1.430314
| 37>   H                      -1.240345            5.338943             -1.221299
| 38>   H                      -1.779562            4.387065             0.613376
| 39>   H                      -2.893558            5.626545             0.347260
| 40>   H                      -3.394099            4.098800             0.009473
| 41>   C                    : -7.713229            4.227343             -0.511895
| 42>   O                    : -8.035849            5.574030             -0.400636
| 43>   H                    : -8.691770            5.566973             0.273674
| 44>   H                    : -8.487679            3.694594             -1.122684
| 45>   H                    : -6.772463            4.108117             -0.921444
| 46>   H                    : -7.696652            3.838080             0.479152
| 47> *
| 48>
| 49> #Run DFT-D3 single point of the particle with dimer basis set
| 50> $new_job
| 51> %base "12-44_DFT_B"
| 52> ! wB97X-D3 def2-TZVP TIGHTSCF CHELPG PMODEL
| 53>
| 54> %scf
| 55> MaxIter 1000
| 56> end
| 57>
| 58> * xyz 0 1
| 59>   C                    : -2.565252            4.718114             -0.085181
| 60>   O                    : -2.001019            4.805665             -1.430314
| 61>   H                    : -1.240345            5.338943             -1.221299
| 62>   H                    : -1.779562            4.387065             0.613376
| 63>   H                    : -2.893558            5.626545             0.347260
| 64>   H                    : -3.394099            4.098800             0.009473
| 65>   C                      -7.713229            4.227343             -0.511895
| 66>   O                      -8.035849            5.574030             -0.400636
| 67>   H                      -8.691770            5.566973             0.273674
| 68>   H                      -8.487679            3.694594             -1.122684
| 69>   H                      -6.772463            4.108117             -0.921444
| 70>   H                      -7.696652            3.838080             0.479152
| 71> *
| 72>
| 73>                          ****END OF INPUT****
 Total Charge           Charge          ....    0
 Multiplicity           Mult            ....    1
 Number of Electrons    NEL             ....   36
Dispersion correction           -0.000697546
FINAL SINGLE POINT ENERGY      -231.457304223896
Dispersion correction           -0.000233859
FINAL SINGLE POINT ENERGY      -115.726961666273

CARTESIAN COORDINATES (ANGSTROEM)
---------------------------------
  C     -2.565252    4.718114   -0.085181
  O     -2.001019    4.805665   -1.430314
  H     -1.240345    5.338943   -1.221299
  H     -1.779562    4.387065    0.613376
  H     -2.893558    5.626545    0.347260
  H     -3.394099    4.098800    0.009473
  C     -7.713229    4.227343   -0.511895
  O     -8.035849    5.574030   -0.400636
  H     -8.691770    5.566973    0.273674
  H     -8.487679    3.694594   -1.122684
  H     -6.772463    4.108117   -0.921444
  H     -7.696652    3.838080    0.479152

 Multiplicity           Mult            ....    1
 Number of Electrons    NEL             ....   18
 Basis Dimension        Dim             ....  172

ORBITAL ENERGIES
----------------

  NO   OCC          E(Eh)            E(eV)
   0   2.0000     -19.225659      -523.1568
   1   2.0000     -10.303724      -280.3786
   2   2.0000      -1.150988       -31.3200
   3   2.0000      -0.797213       -21.6933
   4   2.0000      -0.616607       -16.7787
   5   2.0000      -0.548782       -14.9331
   6   2.0000      -0.537382       -14.6229
   7   2.0000      -0.438835       -11.9413
   8   2.0000      -0.370972       -10.0947
   9   0.0000       0.087073         2.3694
  10   0.0000       0.115587         3.1453
  11   0.0000       0.151485         4.1221
  12   0.0000       0.175239         4.7685
  13   0.0000       0.187828         5.1111

MULLIKEN ATOMIC CHARGES
-----------------------
   0 C :    0.000074
   1 O :   -0.000002
   2 H :    0.000000
   3 H :    0.000005
   4 H :   -0.000005
   5 H :   -0.000168
   6 C :   -0.157822
   7 O :   -0.460398
   8 H :    0.310116
   9 H :    0.090128
  10 H :    0.120269
  11 H :    0.097802
Sum of atomic charges:   -0.0000000

LOEWDIN ATOMIC CHARGES
----------------------
   0 C :   -0.000082
   1 O :   -0.000001
   2 H :   -0.000000
   3 H :   -0.000000
   4 H :   -0.000006
   5 H :   -0.000175
   6 C :   -0.391359
   7 O :   -0.052041
   8 H :    0.160959
   9 H :    0.099190
  10 H :    0.092188
  11 H :    0.091328

  Mayer bond orders larger than 0.1
B(  6-C ,  7-O ) :   1.0018 B(  6-C ,  9-H ) :   0.9747 B(  6-C , 10-H ) :   0.9752
B(  6-C , 11-H ) :   0.9934 B(  7-O ,  8-H ) :   0.9087

Dispersion correction           -0.000194412
FINAL SINGLE POINT ENERGY      -115.730119114843

DIPOLE MOMENT
-------------
                                X             Y             Z
Electronic contribution:     -0.20628       1.75736      -0.00795
Nuclear contribution   :     -0.05003      -2.26884       0.41224
                        -----------------------------------------
Total Dipole Moment    :     -0.25631      -0.51148       0.40429
                        -----------------------------------------
Magnitude (a.u.)       :      0.70054
Magnitude (Debye)      :      1.78063

Rotational constants in cm-1:     4.334488     0.872793     0.846994
Rotational constants in MHz : 129944.690238 26165.684070 25392.252607

                             ****ORCA TERMINATED NORMALLY****
TOTAL RUN TIME: 0 days 0 hours 1 minutes 12 seconds 171 msec
