                         Program Version 4.1.2  - RELEASE  -
|  1> #Run DFT-D3 single point of the dimer
|  2> ! wB97X-D3 def2-TZVP TIGHTSCF CHELPG PMODEL PAL8
|  3>
|  4> %base "3-95_DFT_AB"
|  5>
|  6> %scf
|  7> MaxIter 1000
|  8> end
|  9>
| 10> * xyz 0 1
| 11>   C                      8.643484             -10.596535           3.469221
| 12>   O                      8.955716             -10.854942           2.119081
| 13>   H                      9.117032             -9.999848            1.707795
| 14>   H                      9.382769             -10.096657           4.085668
| 15>   H                      7.796566             -9.991265            3.549302
| 16>   H                      8.301989             -11.458165           3.995973
| 17>   C                      4.450264             -10.770622           2.718607
| 18>   O                      3.489359             -11.734201           2.880558
| 19>   H                      3.857875             -12.638888           2.842524
| 20>   H                      4.535021             -10.453275           1.657237
| 21>   H                      4.243918             -9.869631            3.284579
| 22>   H                      5.440579             -11.095808           3.074850
| 23> *
| 24>
| 25> #Run DFT-D3 single point of the molecule with dimer basis set
| 26> $new_job
| 27> %base "3-95_DFT_A"
| 28> ! wB97X-D3 def2-TZVP TIGHTSCF CHELPG PMODEL
| 29>
| 30> %scf
| 31> MaxIter 1000
| 32> end
| 33>
| 34> * xyz 0 1
| 35>   C                      8.643484             -10.596535           3.469221
| 36>   O                      8.955716             -10.854942           2.119081
| 37>   H                      9.117032             -9.999848            1.707795
| 38>   H                      9.382769             -10.096657           4.085668
| 39>   H                      7.796566             -9.991265            3.549302
| 40>   H                      8.301989             -11.458165           3.995973
| 41>   C                    : 4.450264             -10.770622           2.718607
| 42>   O                    : 3.489359             -11.734201           2.880558
| 43>   H                    : 3.857875             -12.638888           2.842524
| 44>   H                    : 4.535021             -10.453275           1.657237
| 45>   H                    : 4.243918             -9.869631            3.284579
| 46>   H                    : 5.440579             -11.095808           3.074850
| 47> *
| 48>
| 49> #Run DFT-D3 single point of the particle with dimer basis set
| 50> $new_job
| 51> %base "3-95_DFT_B"
| 52> ! wB97X-D3 def2-TZVP TIGHTSCF CHELPG PMODEL
| 53>
| 54> %scf
| 55> MaxIter 1000
| 56> end
| 57>
| 58> * xyz 0 1
| 59>   C                    : 8.643484             -10.596535           3.469221
| 60>   O                    : 8.955716             -10.854942           2.119081
| 61>   H                    : 9.117032             -9.999848            1.707795
| 62>   H                    : 9.382769             -10.096657           4.085668
| 63>   H                    : 7.796566             -9.991265            3.549302
| 64>   H                    : 8.301989             -11.458165           3.995973
| 65>   C                      4.450264             -10.770622           2.718607
| 66>   O                      3.489359             -11.734201           2.880558
| 67>   H                      3.857875             -12.638888           2.842524
| 68>   H                      4.535021             -10.453275           1.657237
| 69>   H                      4.243918             -9.869631            3.284579
| 70>   H                      5.440579             -11.095808           3.074850
| 71> *
| 72>
| 73>                          ****END OF INPUT****
 Total Charge           Charge          ....    0
 Multiplicity           Mult            ....    1
 Number of Electrons    NEL             ....   36
Dispersion correction           -0.001284440
FINAL SINGLE POINT ENERGY      -231.465685270041
Dispersion correction           -0.000239298
FINAL SINGLE POINT ENERGY      -115.730744290158

CARTESIAN COORDINATES (ANGSTROEM)
---------------------------------
  C      8.643484  -10.596535    3.469221
  O      8.955716  -10.854942    2.119081
  H      9.117032   -9.999848    1.707795
  H      9.382769  -10.096657    4.085668
  H      7.796566   -9.991265    3.549302
  H      8.301989  -11.458165    3.995973
  C      4.450264  -10.770622    2.718607
  O      3.489359  -11.734201    2.880558
  H      3.857875  -12.638888    2.842524
  H      4.535021  -10.453275    1.657237
  H      4.243918   -9.869631    3.284579
  H      5.440579  -11.095808    3.074850

 Multiplicity           Mult            ....    1
 Number of Electrons    NEL             ....   18
 Basis Dimension        Dim             ....  172

ORBITAL ENERGIES
----------------

  NO   OCC          E(Eh)            E(eV)
   0   2.0000     -19.230961      -523.3010
   1   2.0000     -10.310388      -280.5599
   2   2.0000      -1.144702       -31.1489
   3   2.0000      -0.793781       -21.5999
   4   2.0000      -0.618350       -16.8262
   5   2.0000      -0.542976       -14.7751
   6   2.0000      -0.535305       -14.5664
   7   2.0000      -0.423042       -11.5116
   8   2.0000      -0.370260       -10.0753
   9   0.0000       0.081327         2.2130
  10   0.0000       0.114346         3.1115
  11   0.0000       0.153283         4.1710
  12   0.0000       0.161832         4.4037
  13   0.0000       0.186845         5.0843

MULLIKEN ATOMIC CHARGES
-----------------------
   0 C :    0.000976
   1 O :    0.000075
   2 H :   -0.000010
   3 H :   -0.000135
   4 H :   -0.002057
   5 H :   -0.000311
   6 C :   -0.141588
   7 O :   -0.473635
   8 H :    0.324314
   9 H :    0.092036
  10 H :    0.111414
  11 H :    0.088921
Sum of atomic charges:   -0.0000000

LOEWDIN ATOMIC CHARGES
----------------------
   0 C :   -0.003371
   1 O :   -0.000028
   2 H :   -0.000018
   3 H :   -0.000031
   4 H :   -0.002251
   5 H :   -0.000647
   6 C :   -0.421651
   7 O :   -0.052237
   8 H :    0.183835
   9 H :    0.096540
  10 H :    0.102921
  11 H :    0.096936

  Mayer bond orders larger than 0.1
B(  6-C ,  7-O ) :   1.0175 B(  6-C ,  9-H ) :   0.9759 B(  6-C , 10-H ) :   0.9705
B(  6-C , 11-H ) :   0.9901 B(  7-O ,  8-H ) :   0.8892

Dispersion correction           -0.000244566
FINAL SINGLE POINT ENERGY      -115.734058124261

DIPOLE MOMENT
-------------
                                X             Y             Z
Electronic contribution:     -1.41840      -1.23054       0.25967
Nuclear contribution   :      2.01991       0.99914      -0.31475
                        -----------------------------------------
Total Dipole Moment    :      0.60151      -0.23140      -0.05508
                        -----------------------------------------
Magnitude (a.u.)       :      0.64683
Magnitude (Debye)      :      1.64412

Rotational constants in cm-1:     4.365287     0.859011     0.831954
Rotational constants in MHz : 130868.015567 25752.501789 24941.345418

                             ****ORCA TERMINATED NORMALLY****
TOTAL RUN TIME: 0 days 0 hours 6 minutes 25 seconds 79 msec
