                         Program Version 4.1.2  - RELEASE  -
|  1> #Run DFT-D3 single point of the dimer
|  2> ! wB97X-D3 def2-TZVP TIGHTSCF CHELPG PMODEL PAL8
|  3>
|  4> %base "18-43_DFT_AB"
|  5>
|  6> %scf
|  7> MaxIter 1000
|  8> end
|  9>
| 10> * xyz 0 1
| 11>   C                      -2.012563            4.665636             -1.975602
| 12>   O                      -2.587163            3.443356             -2.387225
| 13>   H                      -2.699769            2.832937             -1.683804
| 14>   H                      -1.104865            4.452574             -1.373677
| 15>   H                      -1.693675            5.183946             -2.882772
| 16>   H                      -2.766827            5.318061             -1.491630
| 17>   C                      1.563923             4.822854             -2.055716
| 18>   O                      1.026069             5.666654             -3.070397
| 19>   H                      1.205890             5.204161             -3.879448
| 20>   H                      1.124852             3.829493             -2.152610
| 21>   H                      2.630486             4.837886             -2.065390
| 22>   H                      1.210527             5.130865             -1.082344
| 23> *
| 24>
| 25> #Run DFT-D3 single point of the molecule with dimer basis set
| 26> $new_job
| 27> %base "18-43_DFT_A"
| 28> ! wB97X-D3 def2-TZVP TIGHTSCF CHELPG PMODEL
| 29>
| 30> %scf
| 31> MaxIter 1000
| 32> end
| 33>
| 34> * xyz 0 1
| 35>   C                      -2.012563            4.665636             -1.975602
| 36>   O                      -2.587163            3.443356             -2.387225
| 37>   H                      -2.699769            2.832937             -1.683804
| 38>   H                      -1.104865            4.452574             -1.373677
| 39>   H                      -1.693675            5.183946             -2.882772
| 40>   H                      -2.766827            5.318061             -1.491630
| 41>   C                    : 1.563923             4.822854             -2.055716
| 42>   O                    : 1.026069             5.666654             -3.070397
| 43>   H                    : 1.205890             5.204161             -3.879448
| 44>   H                    : 1.124852             3.829493             -2.152610
| 45>   H                    : 2.630486             4.837886             -2.065390
| 46>   H                    : 1.210527             5.130865             -1.082344
| 47> *
| 48>
| 49> #Run DFT-D3 single point of the particle with dimer basis set
| 50> $new_job
| 51> %base "18-43_DFT_B"
| 52> ! wB97X-D3 def2-TZVP TIGHTSCF CHELPG PMODEL
| 53>
| 54> %scf
| 55> MaxIter 1000
| 56> end
| 57>
| 58> * xyz 0 1
| 59>   C                    : -2.012563            4.665636             -1.975602
| 60>   O                    : -2.587163            3.443356             -2.387225
| 61>   H                    : -2.699769            2.832937             -1.683804
| 62>   H                    : -1.104865            4.452574             -1.373677
| 63>   H                    : -1.693675            5.183946             -2.882772
| 64>   H                    : -2.766827            5.318061             -1.491630
| 65>   C                      1.563923             4.822854             -2.055716
| 66>   O                      1.026069             5.666654             -3.070397
| 67>   H                      1.205890             5.204161             -3.879448
| 68>   H                      1.124852             3.829493             -2.152610
| 69>   H                      2.630486             4.837886             -2.065390
| 70>   H                      1.210527             5.130865             -1.082344
| 71> *
| 72>
| 73>                          ****END OF INPUT****
 Total Charge           Charge          ....    0
 Multiplicity           Mult            ....    1
 Number of Electrons    NEL             ....   36
Dispersion correction           -0.001997093
FINAL SINGLE POINT ENERGY      -231.471366842922
Dispersion correction           -0.000246454
FINAL SINGLE POINT ENERGY      -115.735155694144

CARTESIAN COORDINATES (ANGSTROEM)
---------------------------------
  C     -2.012563    4.665636   -1.975602
  O     -2.587163    3.443356   -2.387225
  H     -2.699769    2.832937   -1.683804
  H     -1.104865    4.452574   -1.373677
  H     -1.693675    5.183946   -2.882772
  H     -2.766827    5.318061   -1.491630
  C      1.563923    4.822854   -2.055716
  O      1.026069    5.666654   -3.070397
  H      1.205890    5.204161   -3.879448
  H      1.124852    3.829493   -2.152610
  H      2.630486    4.837886   -2.065390
  H      1.210527    5.130865   -1.082344

 Multiplicity           Mult            ....    1
 Number of Electrons    NEL             ....   18
 Basis Dimension        Dim             ....  172

ORBITAL ENERGIES
----------------

  NO   OCC          E(Eh)            E(eV)
   0   2.0000     -19.229003      -523.2478
   1   2.0000     -10.309572      -280.5377
   2   2.0000      -1.137015       -30.9398
   3   2.0000      -0.798980       -21.7414
   4   2.0000      -0.605773       -16.4839
   5   2.0000      -0.554907       -15.0998
   6   2.0000      -0.525614       -14.3027
   7   2.0000      -0.433382       -11.7929
   8   2.0000      -0.377389       -10.2693
   9   0.0000       0.090349         2.4585
  10   0.0000       0.126052         3.4300
  11   0.0000       0.155524         4.2320
  12   0.0000       0.171355         4.6628
  13   0.0000       0.202819         5.5190

MULLIKEN ATOMIC CHARGES
-----------------------
   0 C :    0.005854
   1 O :   -0.000126
   2 H :   -0.000066
   3 H :   -0.001475
   4 H :   -0.009976
   5 H :   -0.000294
   6 C :   -0.174210
   7 O :   -0.471199
   8 H :    0.312097
   9 H :    0.107459
  10 H :    0.118644
  11 H :    0.113291
Sum of atomic charges:   -0.0000000

LOEWDIN ATOMIC CHARGES
----------------------
   0 C :   -0.008826
   1 O :   -0.000040
   2 H :   -0.000020
   3 H :   -0.005154
   4 H :   -0.007854
   5 H :   -0.000071
   6 C :   -0.368819
   7 O :   -0.069829
   8 H :    0.162501
   9 H :    0.099275
  10 H :    0.091683
  11 H :    0.107153

  Mayer bond orders larger than 0.1
B(  6-C ,  7-O ) :   0.9901 B(  6-C ,  9-H ) :   0.9859 B(  6-C , 10-H ) :   0.9687
B(  6-C , 11-H ) :   0.9771 B(  7-O ,  8-H ) :   0.9041

Dispersion correction           -0.000222537
FINAL SINGLE POINT ENERGY      -115.734893122336

DIPOLE MOMENT
-------------
                                X             Y             Z
Electronic contribution:     -0.60464       1.18059      -1.19171
Nuclear contribution   :      0.93504      -1.81173       1.10942
                        -----------------------------------------
Total Dipole Moment    :      0.33040      -0.63115      -0.08229
                        -----------------------------------------
Magnitude (a.u.)       :      0.71714
Magnitude (Debye)      :      1.82281

Rotational constants in cm-1:     4.351889     0.825814     0.805370
Rotational constants in MHz : 130466.349398 24757.290746 24144.376659

                             ****ORCA TERMINATED NORMALLY****
TOTAL RUN TIME: 0 days 0 hours 1 minutes 1 seconds 761 msec
