                         Program Version 4.1.2  - RELEASE  -
|  1> #Run DFT-D3 single point of the dimer
|  2> ! wB97X-D3 def2-TZVP TIGHTSCF CHELPG PMODEL PAL8
|  3>
|  4> %base "6-145_DFT_AB"
|  5>
|  6> %scf
|  7> MaxIter 1000
|  8> end
|  9>
| 10> * xyz 0 1
| 11>   C                      8.189695             -3.280318            4.656080
| 12>   O                      8.707699             -3.551856            5.981906
| 13>   H                      9.065366             -2.754849            6.337936
| 14>   H                      8.093782             -2.275202            4.356234
| 15>   H                      8.937084             -3.749127            3.947132
| 16>   H                      7.235108             -3.741698            4.433493
| 17>   C                      7.712186             -6.551031            7.430713
| 18>   O                      6.356131             -6.462621            7.029702
| 19>   H                      6.229425             -6.355896            6.039159
| 20>   H                      7.888485             -6.577326            8.505830
| 21>   H                      8.158836             -7.446520            7.052474
| 22>   H                      8.295175             -5.696844            7.093777
| 23> *
| 24>
| 25> #Run DFT-D3 single point of the molecule with dimer basis set
| 26> $new_job
| 27> %base "6-145_DFT_A"
| 28> ! wB97X-D3 def2-TZVP TIGHTSCF CHELPG PMODEL
| 29>
| 30> %scf
| 31> MaxIter 1000
| 32> end
| 33>
| 34> * xyz 0 1
| 35>   C                      8.189695             -3.280318            4.656080
| 36>   O                      8.707699             -3.551856            5.981906
| 37>   H                      9.065366             -2.754849            6.337936
| 38>   H                      8.093782             -2.275202            4.356234
| 39>   H                      8.937084             -3.749127            3.947132
| 40>   H                      7.235108             -3.741698            4.433493
| 41>   C                    : 7.712186             -6.551031            7.430713
| 42>   O                    : 6.356131             -6.462621            7.029702
| 43>   H                    : 6.229425             -6.355896            6.039159
| 44>   H                    : 7.888485             -6.577326            8.505830
| 45>   H                    : 8.158836             -7.446520            7.052474
| 46>   H                    : 8.295175             -5.696844            7.093777
| 47> *
| 48>
| 49> #Run DFT-D3 single point of the particle with dimer basis set
| 50> $new_job
| 51> %base "6-145_DFT_B"
| 52> ! wB97X-D3 def2-TZVP TIGHTSCF CHELPG PMODEL
| 53>
| 54> %scf
| 55> MaxIter 1000
| 56> end
| 57>
| 58> * xyz 0 1
| 59>   C                    : 8.189695             -3.280318            4.656080
| 60>   O                    : 8.707699             -3.551856            5.981906
| 61>   H                    : 9.065366             -2.754849            6.337936
| 62>   H                    : 8.093782             -2.275202            4.356234
| 63>   H                    : 8.937084             -3.749127            3.947132
| 64>   H                    : 7.235108             -3.741698            4.433493
| 65>   C                      7.712186             -6.551031            7.430713
| 66>   O                      6.356131             -6.462621            7.029702
| 67>   H                      6.229425             -6.355896            6.039159
| 68>   H                      7.888485             -6.577326            8.505830
| 69>   H                      8.158836             -7.446520            7.052474
| 70>   H                      8.295175             -5.696844            7.093777
| 71> *
| 72>
| 73>                          ****END OF INPUT****
 Total Charge           Charge          ....    0
 Multiplicity           Mult            ....    1
 Number of Electrons    NEL             ....   36
Dispersion correction           -0.001653723
FINAL SINGLE POINT ENERGY      -231.462834227597
Dispersion correction           -0.000271708
FINAL SINGLE POINT ENERGY      -115.730061441902

CARTESIAN COORDINATES (ANGSTROEM)
---------------------------------
  C      8.189695   -3.280318    4.656080
  O      8.707699   -3.551856    5.981906
  H      9.065366   -2.754849    6.337936
  H      8.093782   -2.275202    4.356234
  H      8.937084   -3.749127    3.947132
  H      7.235108   -3.741698    4.433493
  C      7.712186   -6.551031    7.430713
  O      6.356131   -6.462621    7.029702
  H      6.229425   -6.355896    6.039159
  H      7.888485   -6.577326    8.505830
  H      8.158836   -7.446520    7.052474
  H      8.295175   -5.696844    7.093777

 Multiplicity           Mult            ....    1
 Number of Electrons    NEL             ....   18
 Basis Dimension        Dim             ....  172

ORBITAL ENERGIES
----------------

  NO   OCC          E(Eh)            E(eV)
   0   2.0000     -19.231333      -523.3112
   1   2.0000     -10.309704      -280.5413
   2   2.0000      -1.122935       -30.5566
   3   2.0000      -0.797982       -21.7142
   4   2.0000      -0.605834       -16.4856
   5   2.0000      -0.542942       -14.7742
   6   2.0000      -0.529660       -14.4128
   7   2.0000      -0.421592       -11.4721
   8   2.0000      -0.372123       -10.1260
   9   0.0000       0.075205         2.0464
  10   0.0000       0.119514         3.2522
  11   0.0000       0.144790         3.9399
  12   0.0000       0.168837         4.5943
  13   0.0000       0.192875         5.2484

MULLIKEN ATOMIC CHARGES
-----------------------
   0 C :    0.001337
   1 O :    0.001688
   2 H :   -0.000135
   3 H :   -0.000019
   4 H :   -0.000168
   5 H :   -0.001162
   6 C :   -0.144206
   7 O :   -0.495767
   8 H :    0.323615
   9 H :    0.121798
  10 H :    0.104923
  11 H :    0.088095
Sum of atomic charges:    0.0000000

LOEWDIN ATOMIC CHARGES
----------------------
   0 C :   -0.001419
   1 O :   -0.006957
   2 H :   -0.000538
   3 H :   -0.000018
   4 H :   -0.000063
   5 H :   -0.000593
   6 C :   -0.380557
   7 O :   -0.100775
   8 H :    0.194104
   9 H :    0.109449
  10 H :    0.090284
  11 H :    0.097083

  Mayer bond orders larger than 0.1
B(  6-C ,  7-O ) :   0.9951 B(  6-C ,  9-H ) :   0.9700 B(  6-C , 10-H ) :   0.9859
B(  6-C , 11-H ) :   0.9779 B(  7-O ,  8-H ) :   0.8848

Dispersion correction           -0.000259722
FINAL SINGLE POINT ENERGY      -115.731233403841

DIPOLE MOMENT
-------------
                                X             Y             Z
Electronic contribution:     -1.81749       0.08981      -0.35779
Nuclear contribution   :      2.30400      -0.06047      -0.09713
                        -----------------------------------------
Total Dipole Moment    :      0.48651       0.02934      -0.45492
                        -----------------------------------------
Magnitude (a.u.)       :      0.66672
Magnitude (Debye)      :      1.69466

Rotational constants in cm-1:     4.488855     0.811062     0.786382
Rotational constants in MHz : 134572.493825 24315.017074 23575.145037

                             ****ORCA TERMINATED NORMALLY****
TOTAL RUN TIME: 0 days 0 hours 1 minutes 1 seconds 29 msec
