                         Program Version 4.1.2  - RELEASE  -
|  1> #Run DFT-D3 single point of the dimer
|  2> ! wB97X-D3 def2-TZVP TIGHTSCF CHELPG PMODEL PAL8
|  3>
|  4> %base "21-202_DFT_AB"
|  5>
|  6> %scf
|  7> MaxIter 1000
|  8> end
|  9>
| 10> * xyz 0 1
| 11>   C                      11.253185            2.513003             3.380237
| 12>   O                      11.789579            3.753030             3.720656
| 13>   H                      11.375879            3.922849             4.580616
| 14>   H                      11.819041            2.058594             2.532008
| 15>   H                      11.327438            1.840814             4.251966
| 16>   H                      10.211185            2.607207             3.090165
| 17>   C                      10.022333            5.224796             7.153831
| 18>   O                      10.381507            4.402833             6.077700
| 19>   H                      9.891155             3.607651             6.095727
| 20>   H                      8.892453             5.196913             7.133589
| 21>   H                      10.432591            4.762427             8.135321
| 22>   H                      10.352492            6.233521             6.991705
| 23> *
| 24>
| 25> #Run DFT-D3 single point of the molecule with dimer basis set
| 26> $new_job
| 27> %base "21-202_DFT_A"
| 28> ! wB97X-D3 def2-TZVP TIGHTSCF CHELPG PMODEL
| 29>
| 30> %scf
| 31> MaxIter 1000
| 32> end
| 33>
| 34> * xyz 0 1
| 35>   C                      11.253185            2.513003             3.380237
| 36>   O                      11.789579            3.753030             3.720656
| 37>   H                      11.375879            3.922849             4.580616
| 38>   H                      11.819041            2.058594             2.532008
| 39>   H                      11.327438            1.840814             4.251966
| 40>   H                      10.211185            2.607207             3.090165
| 41>   C                    : 10.022333            5.224796             7.153831
| 42>   O                    : 10.381507            4.402833             6.077700
| 43>   H                    : 9.891155             3.607651             6.095727
| 44>   H                    : 8.892453             5.196913             7.133589
| 45>   H                    : 10.432591            4.762427             8.135321
| 46>   H                    : 10.352492            6.233521             6.991705
| 47> *
| 48>
| 49> #Run DFT-D3 single point of the particle with dimer basis set
| 50> $new_job
| 51> %base "21-202_DFT_B"
| 52> ! wB97X-D3 def2-TZVP TIGHTSCF CHELPG PMODEL
| 53>
| 54> %scf
| 55> MaxIter 1000
| 56> end
| 57>
| 58> * xyz 0 1
| 59>   C                    : 11.253185            2.513003             3.380237
| 60>   O                    : 11.789579            3.753030             3.720656
| 61>   H                    : 11.375879            3.922849             4.580616
| 62>   H                    : 11.819041            2.058594             2.532008
| 63>   H                    : 11.327438            1.840814             4.251966
| 64>   H                    : 10.211185            2.607207             3.090165
| 65>   C                      10.022333            5.224796             7.153831
| 66>   O                      10.381507            4.402833             6.077700
| 67>   H                      9.891155             3.607651             6.095727
| 68>   H                      8.892453             5.196913             7.133589
| 69>   H                      10.432591            4.762427             8.135321
| 70>   H                      10.352492            6.233521             6.991705
| 71> *
| 72>
| 73>                          ****END OF INPUT****
 Total Charge           Charge          ....    0
 Multiplicity           Mult            ....    1
 Number of Electrons    NEL             ....   36
Dispersion correction           -0.001636203
FINAL SINGLE POINT ENERGY      -231.470832755819
Dispersion correction           -0.000210895
FINAL SINGLE POINT ENERGY      -115.734722887858

CARTESIAN COORDINATES (ANGSTROEM)
---------------------------------
  C     11.253185    2.513003    3.380237
  O     11.789579    3.753030    3.720656
  H     11.375879    3.922849    4.580616
  H     11.819041    2.058594    2.532008
  H     11.327438    1.840814    4.251966
  H     10.211185    2.607207    3.090165
  C     10.022333    5.224796    7.153831
  O     10.381507    4.402833    6.077700
  H      9.891155    3.607651    6.095727
  H      8.892453    5.196913    7.133589
  H     10.432591    4.762427    8.135321
  H     10.352492    6.233521    6.991705

 Multiplicity           Mult            ....    1
 Number of Electrons    NEL             ....   18
 Basis Dimension        Dim             ....  172

ORBITAL ENERGIES
----------------

  NO   OCC          E(Eh)            E(eV)
   0   2.0000     -19.224205      -523.1172
   1   2.0000     -10.322819      -280.8982
   2   2.0000      -1.144021       -31.1304
   3   2.0000      -0.792400       -21.5623
   4   2.0000      -0.609085       -16.5741
   5   2.0000      -0.542526       -14.7629
   6   2.0000      -0.537955       -14.6385
   7   2.0000      -0.426641       -11.6095
   8   2.0000      -0.368963       -10.0400
   9   0.0000       0.092403         2.5144
  10   0.0000       0.125183         3.4064
  11   0.0000       0.160286         4.3616
  12   0.0000       0.187174         5.0933
  13   0.0000       0.191849         5.2205

MULLIKEN ATOMIC CHARGES
-----------------------
   0 C :    0.001265
   1 O :    0.002169
   2 H :   -0.014923
   3 H :   -0.000174
   4 H :   -0.001667
   5 H :   -0.000688
   6 C :   -0.154248
   7 O :   -0.463897
   8 H :    0.315415
   9 H :    0.096648
  10 H :    0.093540
  11 H :    0.126561
Sum of atomic charges:   -0.0000000

LOEWDIN ATOMIC CHARGES
----------------------
   0 C :   -0.003765
   1 O :   -0.006088
   2 H :   -0.049789
   3 H :   -0.000041
   4 H :   -0.000748
   5 H :   -0.000425
   6 C :   -0.388143
   7 O :   -0.017075
   8 H :    0.155789
   9 H :    0.103126
  10 H :    0.104653
  11 H :    0.102507

  Mayer bond orders larger than 0.1
B(  6-C ,  7-O ) :   0.9875 B(  6-C ,  9-H ) :   0.9851 B(  6-C , 10-H ) :   0.9700
B(  6-C , 11-H ) :   0.9737 B(  7-O ,  8-H ) :   0.8968

Dispersion correction           -0.000225370
FINAL SINGLE POINT ENERGY      -115.730085756290

DIPOLE MOMENT
-------------
                                X             Y             Z
Electronic contribution:      0.62833      -0.80120      -1.38616
Nuclear contribution   :     -1.09710       0.63356       1.79618
                        -----------------------------------------
Total Dipole Moment    :     -0.46877      -0.16764       0.41002
                        -----------------------------------------
Magnitude (a.u.)       :      0.64495
Magnitude (Debye)      :      1.63934

Rotational constants in cm-1:     4.067857     0.845816     0.824529
Rotational constants in MHz : 121951.279856 25356.937941 24718.760878

                             ****ORCA TERMINATED NORMALLY****
TOTAL RUN TIME: 0 days 0 hours 1 minutes 0 seconds 106 msec
