                         Program Version 4.1.2  - RELEASE  -
|  1> #Run DFT-D3 single point of the dimer
|  2> ! wB97X-D3 def2-TZVP TIGHTSCF CHELPG PMODEL PAL8
|  3>
|  4> %base "12-20_DFT_AB"
|  5>
|  6> %scf
|  7> MaxIter 1000
|  8> end
|  9>
| 10> * xyz 0 1
| 11>   C                      7.783129             -4.327830            -2.139949
| 12>   O                      8.538829             -3.183352            -2.235793
| 13>   H                      9.186373             -3.113510            -1.593900
| 14>   H                      8.386808             -5.185219            -2.334048
| 15>   H                      7.505781             -4.489280            -1.123958
| 16>   H                      6.890016             -4.297037            -2.756172
| 17>   C                      6.052459             -0.577581            -2.221207
| 18>   O                      5.835550             -0.384914            -0.774056
| 19>   H                      4.949148             0.047376             -0.599951
| 20>   H                      7.008782             -0.158197            -2.446619
| 21>   H                      6.104852             -1.602942            -2.502859
| 22>   H                      5.284210             -0.090443            -2.900341
| 23> *
| 24>
| 25> #Run DFT-D3 single point of the molecule with dimer basis set
| 26> $new_job
| 27> %base "12-20_DFT_A"
| 28> ! wB97X-D3 def2-TZVP TIGHTSCF CHELPG PMODEL
| 29>
| 30> %scf
| 31> MaxIter 1000
| 32> end
| 33>
| 34> * xyz 0 1
| 35>   C                      7.783129             -4.327830            -2.139949
| 36>   O                      8.538829             -3.183352            -2.235793
| 37>   H                      9.186373             -3.113510            -1.593900
| 38>   H                      8.386808             -5.185219            -2.334048
| 39>   H                      7.505781             -4.489280            -1.123958
| 40>   H                      6.890016             -4.297037            -2.756172
| 41>   C                    : 6.052459             -0.577581            -2.221207
| 42>   O                    : 5.835550             -0.384914            -0.774056
| 43>   H                    : 4.949148             0.047376             -0.599951
| 44>   H                    : 7.008782             -0.158197            -2.446619
| 45>   H                    : 6.104852             -1.602942            -2.502859
| 46>   H                    : 5.284210             -0.090443            -2.900341
| 47> *
| 48>
| 49> #Run DFT-D3 single point of the particle with dimer basis set
| 50> $new_job
| 51> %base "12-20_DFT_B"
| 52> ! wB97X-D3 def2-TZVP TIGHTSCF CHELPG PMODEL
| 53>
| 54> %scf
| 55> MaxIter 1000
| 56> end
| 57>
| 58> * xyz 0 1
| 59>   C                    : 7.783129             -4.327830            -2.139949
| 60>   O                    : 8.538829             -3.183352            -2.235793
| 61>   H                    : 9.186373             -3.113510            -1.593900
| 62>   H                    : 8.386808             -5.185219            -2.334048
| 63>   H                    : 7.505781             -4.489280            -1.123958
| 64>   H                    : 6.890016             -4.297037            -2.756172
| 65>   C                      6.052459             -0.577581            -2.221207
| 66>   O                      5.835550             -0.384914            -0.774056
| 67>   H                      4.949148             0.047376             -0.599951
| 68>   H                      7.008782             -0.158197            -2.446619
| 69>   H                      6.104852             -1.602942            -2.502859
| 70>   H                      5.284210             -0.090443            -2.900341
| 71> *
| 72>
| 73>                          ****END OF INPUT****
 Total Charge           Charge          ....    0
 Multiplicity           Mult            ....    1
 Number of Electrons    NEL             ....   36
Dispersion correction           -0.001594447
FINAL SINGLE POINT ENERGY      -231.460419951355
Dispersion correction           -0.000211017
FINAL SINGLE POINT ENERGY      -115.729965587587

CARTESIAN COORDINATES (ANGSTROEM)
---------------------------------
  C      7.783129   -4.327830   -2.139949
  O      8.538829   -3.183352   -2.235793
  H      9.186373   -3.113510   -1.593900
  H      8.386808   -5.185219   -2.334048
  H      7.505781   -4.489280   -1.123958
  H      6.890016   -4.297037   -2.756172
  C      6.052459   -0.577581   -2.221207
  O      5.835550   -0.384914   -0.774056
  H      4.949148    0.047376   -0.599951
  H      7.008782   -0.158197   -2.446619
  H      6.104852   -1.602942   -2.502859
  H      5.284210   -0.090443   -2.900341

 Multiplicity           Mult            ....    1
 Number of Electrons    NEL             ....   18
 Basis Dimension        Dim             ....  172

ORBITAL ENERGIES
----------------

  NO   OCC          E(Eh)            E(eV)
   0   2.0000     -19.233206      -523.3621
   1   2.0000     -10.316529      -280.7270
   2   2.0000      -1.108423       -30.1617
   3   2.0000      -0.798607       -21.7312
   4   2.0000      -0.595000       -16.1908
   5   2.0000      -0.534590       -14.5469
   6   2.0000      -0.519316       -14.1313
   7   2.0000      -0.434002       -11.8098
   8   2.0000      -0.374308       -10.1854
   9   0.0000       0.086986         2.3670
  10   0.0000       0.112001         3.0477
  11   0.0000       0.149406         4.0655
  12   0.0000       0.163783         4.4568
  13   0.0000       0.187213         5.0943

MULLIKEN ATOMIC CHARGES
-----------------------
   0 C :    0.003050
   1 O :   -0.000437
   2 H :   -0.000088
   3 H :    0.000158
   4 H :   -0.000360
   5 H :   -0.000874
   6 C :   -0.179577
   7 O :   -0.494049
   8 H :    0.320077
   9 H :    0.120233
  10 H :    0.118526
  11 H :    0.113342
Sum of atomic charges:   -0.0000000

LOEWDIN ATOMIC CHARGES
----------------------
   0 C :   -0.002497
   1 O :   -0.001093
   2 H :   -0.000099
   3 H :   -0.000014
   4 H :   -0.000078
   5 H :   -0.001209
   6 C :   -0.342908
   7 O :   -0.139047
   8 H :    0.187315
   9 H :    0.099035
  10 H :    0.094045
  11 H :    0.106550

  Mayer bond orders larger than 0.1
B(  6-C ,  7-O ) :   1.0056 B(  6-C ,  9-H ) :   0.9813 B(  6-C , 10-H ) :   0.9679
B(  6-C , 11-H ) :   0.9750 B(  7-O ,  8-H ) :   0.8930

Dispersion correction           -0.000294770
FINAL SINGLE POINT ENERGY      -115.728857606076

DIPOLE MOMENT
-------------
                                X             Y             Z
Electronic contribution:     -0.15590       0.13323       1.82329
Nuclear contribution   :     -0.30240       0.05525      -2.34432
                        -----------------------------------------
Total Dipole Moment    :     -0.45830       0.18848      -0.52104
                        -----------------------------------------
Magnitude (a.u.)       :      0.71906
Magnitude (Debye)      :      1.82770

Rotational constants in cm-1:     4.334166     0.768880     0.736331
Rotational constants in MHz : 129935.022489 23050.428961 22074.637237

                             ****ORCA TERMINATED NORMALLY****
TOTAL RUN TIME: 0 days 0 hours 1 minutes 14 seconds 527 msec
