                         Program Version 4.1.2  - RELEASE  -
|  1> #Run DFT-D3 single point of the dimer
|  2> ! wB97X-D3 def2-TZVP TIGHTSCF CHELPG PMODEL PAL8
|  3>
|  4> %base "20-80_DFT_AB"
|  5>
|  6> %scf
|  7> MaxIter 1000
|  8> end
|  9>
| 10> * xyz 0 1
| 11>   C                      -2.839955            -3.953407            -0.078150
| 12>   O                      -2.008247            -2.946951            0.371114
| 13>   H                      -2.187683            -2.219467            -0.178250
| 14>   H                      -3.058394            -3.772306            -1.120352
| 15>   H                      -2.431864            -4.948480            0.016022
| 16>   H                      -3.792097            -3.920621            0.402216
| 17>   C                      -2.629353            0.751410             -0.072952
| 18>   O                      -2.026080            2.004343             -0.059670
| 19>   H                      -2.642368            2.604601             0.310254
| 20>   H                      -1.946076            0.063422             -0.479698
| 21>   H                      -2.841996            0.328647             0.935642
| 22>   H                      -3.550534            0.740549             -0.749496
| 23> *
| 24>
| 25> #Run DFT-D3 single point of the molecule with dimer basis set
| 26> $new_job
| 27> %base "20-80_DFT_A"
| 28> ! wB97X-D3 def2-TZVP TIGHTSCF CHELPG PMODEL
| 29>
| 30> %scf
| 31> MaxIter 1000
| 32> end
| 33>
| 34> * xyz 0 1
| 35>   C                      -2.839955            -3.953407            -0.078150
| 36>   O                      -2.008247            -2.946951            0.371114
| 37>   H                      -2.187683            -2.219467            -0.178250
| 38>   H                      -3.058394            -3.772306            -1.120352
| 39>   H                      -2.431864            -4.948480            0.016022
| 40>   H                      -3.792097            -3.920621            0.402216
| 41>   C                    : -2.629353            0.751410             -0.072952
| 42>   O                    : -2.026080            2.004343             -0.059670
| 43>   H                    : -2.642368            2.604601             0.310254
| 44>   H                    : -1.946076            0.063422             -0.479698
| 45>   H                    : -2.841996            0.328647             0.935642
| 46>   H                    : -3.550534            0.740549             -0.749496
| 47> *
| 48>
| 49> #Run DFT-D3 single point of the particle with dimer basis set
| 50> $new_job
| 51> %base "20-80_DFT_B"
| 52> ! wB97X-D3 def2-TZVP TIGHTSCF CHELPG PMODEL
| 53>
| 54> %scf
| 55> MaxIter 1000
| 56> end
| 57>
| 58> * xyz 0 1
| 59>   C                    : -2.839955            -3.953407            -0.078150
| 60>   O                    : -2.008247            -2.946951            0.371114
| 61>   H                    : -2.187683            -2.219467            -0.178250
| 62>   H                    : -3.058394            -3.772306            -1.120352
| 63>   H                    : -2.431864            -4.948480            0.016022
| 64>   H                    : -3.792097            -3.920621            0.402216
| 65>   C                      -2.629353            0.751410             -0.072952
| 66>   O                      -2.026080            2.004343             -0.059670
| 67>   H                      -2.642368            2.604601             0.310254
| 68>   H                      -1.946076            0.063422             -0.479698
| 69>   H                      -2.841996            0.328647             0.935642
| 70>   H                      -3.550534            0.740549             -0.749496
| 71> *
| 72>
| 73>                          ****END OF INPUT****
 Total Charge           Charge          ....    0
 Multiplicity           Mult            ....    1
 Number of Electrons    NEL             ....   36
Dispersion correction           -0.001307447
FINAL SINGLE POINT ENERGY      -231.465563947738
Dispersion correction           -0.000207890
FINAL SINGLE POINT ENERGY      -115.732012778739

CARTESIAN COORDINATES (ANGSTROEM)
---------------------------------
  C     -2.839955   -3.953407   -0.078150
  O     -2.008247   -2.946951    0.371114
  H     -2.187683   -2.219467   -0.178250
  H     -3.058394   -3.772306   -1.120352
  H     -2.431864   -4.948480    0.016022
  H     -3.792097   -3.920621    0.402216
  C     -2.629353    0.751410   -0.072952
  O     -2.026080    2.004343   -0.059670
  H     -2.642368    2.604601    0.310254
  H     -1.946076    0.063422   -0.479698
  H     -2.841996    0.328647    0.935642
  H     -3.550534    0.740549   -0.749496

 Multiplicity           Mult            ....    1
 Number of Electrons    NEL             ....   18
 Basis Dimension        Dim             ....  172

ORBITAL ENERGIES
----------------

  NO   OCC          E(Eh)            E(eV)
   0   2.0000     -19.230092      -523.2774
   1   2.0000     -10.313531      -280.6454
   2   2.0000      -1.149839       -31.2887
   3   2.0000      -0.797047       -21.6887
   4   2.0000      -0.613888       -16.7048
   5   2.0000      -0.544484       -14.8162
   6   2.0000      -0.532664       -14.4945
   7   2.0000      -0.431940       -11.7537
   8   2.0000      -0.375199       -10.2097
   9   0.0000       0.085237         2.3194
  10   0.0000       0.119234         3.2445
  11   0.0000       0.145922         3.9708
  12   0.0000       0.186344         5.0707
  13   0.0000       0.188125         5.1192

MULLIKEN ATOMIC CHARGES
-----------------------
   0 C :    0.000172
   1 O :   -0.000031
   2 H :   -0.000830
   3 H :   -0.000061
   4 H :    0.000013
   5 H :   -0.000030
   6 C :   -0.159124
   7 O :   -0.459494
   8 H :    0.311341
   9 H :    0.122579
  10 H :    0.093525
  11 H :    0.091940
Sum of atomic charges:   -0.0000000

LOEWDIN ATOMIC CHARGES
----------------------
   0 C :   -0.000080
   1 O :   -0.000512
   2 H :   -0.004882
   3 H :   -0.000007
   4 H :   -0.000002
   5 H :   -0.000008
   6 C :   -0.405132
   7 O :   -0.045182
   8 H :    0.155970
   9 H :    0.100107
  10 H :    0.097204
  11 H :    0.102525

  Mayer bond orders larger than 0.1
B(  6-C ,  7-O ) :   1.0130 B(  6-C ,  9-H ) :   0.9752 B(  6-C , 10-H ) :   0.9728
B(  6-C , 11-H ) :   0.9739 B(  7-O ,  8-H ) :   0.9053

Dispersion correction           -0.000239338
FINAL SINGLE POINT ENERGY      -115.733417085649

DIPOLE MOMENT
-------------
                                X             Y             Z
Electronic contribution:      0.92456       1.64076      -0.00241
Nuclear contribution   :     -1.50589      -1.73880       0.22808
                        -----------------------------------------
Total Dipole Moment    :     -0.58133      -0.09804       0.22567
                        -----------------------------------------
Magnitude (a.u.)       :      0.63125
Magnitude (Debye)      :      1.60452

Rotational constants in cm-1:     4.297082     0.845222     0.828106
Rotational constants in MHz : 128823.273615 25339.107173 24826.003167

                             ****ORCA TERMINATED NORMALLY****
TOTAL RUN TIME: 0 days 0 hours 0 minutes 58 seconds 17 msec
