                         Program Version 4.1.2  - RELEASE  -
|  1> #Run DFT-D3 single point of the dimer
|  2> ! wB97X-D3 def2-TZVP TIGHTSCF CHELPG PMODEL PAL8
|  3>
|  4> %base "2-94_DFT_AB"
|  5>
|  6> %scf
|  7> MaxIter 1000
|  8> end
|  9>
| 10> * xyz 0 1
| 11>   C                      10.131559            -0.929883            -3.069840
| 12>   O                      8.749478             -0.835584            -3.413896
| 13>   H                      8.295501             -1.609561            -3.197512
| 14>   H                      10.881002            -1.133662            -3.916814
| 15>   H                      10.518113            -0.027949            -2.527007
| 16>   H                      10.152257            -1.698416            -2.209900
| 17>   C                      10.050740            1.743566             -6.600080
| 18>   O                      11.358058            2.222529             -6.700752
| 19>   H                      11.584130            2.482922             -5.793943
| 20>   H                      9.513348             2.496313             -6.033628
| 21>   H                      9.569324             1.683655             -7.560526
| 22>   H                      9.869276             0.906445             -6.014430
| 23> *
| 24>
| 25> #Run DFT-D3 single point of the molecule with dimer basis set
| 26> $new_job
| 27> %base "2-94_DFT_A"
| 28> ! wB97X-D3 def2-TZVP TIGHTSCF CHELPG PMODEL
| 29>
| 30> %scf
| 31> MaxIter 1000
| 32> end
| 33>
| 34> * xyz 0 1
| 35>   C                      10.131559            -0.929883            -3.069840
| 36>   O                      8.749478             -0.835584            -3.413896
| 37>   H                      8.295501             -1.609561            -3.197512
| 38>   H                      10.881002            -1.133662            -3.916814
| 39>   H                      10.518113            -0.027949            -2.527007
| 40>   H                      10.152257            -1.698416            -2.209900
| 41>   C                    : 10.050740            1.743566             -6.600080
| 42>   O                    : 11.358058            2.222529             -6.700752
| 43>   H                    : 11.584130            2.482922             -5.793943
| 44>   H                    : 9.513348             2.496313             -6.033628
| 45>   H                    : 9.569324             1.683655             -7.560526
| 46>   H                    : 9.869276             0.906445             -6.014430
| 47> *
| 48>
| 49> #Run DFT-D3 single point of the particle with dimer basis set
| 50> $new_job
| 51> %base "2-94_DFT_B"
| 52> ! wB97X-D3 def2-TZVP TIGHTSCF CHELPG PMODEL
| 53>
| 54> %scf
| 55> MaxIter 1000
| 56> end
| 57>
| 58> * xyz 0 1
| 59>   C                    : 10.131559            -0.929883            -3.069840
| 60>   O                    : 8.749478             -0.835584            -3.413896
| 61>   H                    : 8.295501             -1.609561            -3.197512
| 62>   H                    : 10.881002            -1.133662            -3.916814
| 63>   H                    : 10.518113            -0.027949            -2.527007
| 64>   H                    : 10.152257            -1.698416            -2.209900
| 65>   C                      10.050740            1.743566             -6.600080
| 66>   O                      11.358058            2.222529             -6.700752
| 67>   H                      11.584130            2.482922             -5.793943
| 68>   H                      9.513348             2.496313             -6.033628
| 69>   H                      9.569324             1.683655             -7.560526
| 70>   H                      9.869276             0.906445             -6.014430
| 71> *
| 72>
| 73>                          ****END OF INPUT****
 Total Charge           Charge          ....    0
 Multiplicity           Mult            ....    1
 Number of Electrons    NEL             ....   36
Dispersion correction           -0.001214870
FINAL SINGLE POINT ENERGY      -231.453833297681
Dispersion correction           -0.000278317
FINAL SINGLE POINT ENERGY      -115.724329202069

CARTESIAN COORDINATES (ANGSTROEM)
---------------------------------
  C     10.131559   -0.929883   -3.069840
  O      8.749478   -0.835584   -3.413896
  H      8.295501   -1.609561   -3.197512
  H     10.881002   -1.133662   -3.916814
  H     10.518113   -0.027949   -2.527007
  H     10.152257   -1.698416   -2.209900
  C     10.050740    1.743566   -6.600080
  O     11.358058    2.222529   -6.700752
  H     11.584130    2.482922   -5.793943
  H      9.513348    2.496313   -6.033628
  H      9.569324    1.683655   -7.560526
  H      9.869276    0.906445   -6.014430

 Multiplicity           Mult            ....    1
 Number of Electrons    NEL             ....   18
 Basis Dimension        Dim             ....  172

ORBITAL ENERGIES
----------------

  NO   OCC          E(Eh)            E(eV)
   0   2.0000     -19.231831      -523.3247
   1   2.0000     -10.302069      -280.3336
   2   2.0000      -1.142940       -31.1010
   3   2.0000      -0.799734       -21.7619
   4   2.0000      -0.620403       -16.8820
   5   2.0000      -0.541756       -14.7419
   6   2.0000      -0.533195       -14.5090
   7   2.0000      -0.440531       -11.9874
   8   2.0000      -0.369667       -10.0591
   9   0.0000       0.077153         2.0994
  10   0.0000       0.115367         3.1393
  11   0.0000       0.153647         4.1809
  12   0.0000       0.166157         4.5214
  13   0.0000       0.185558         5.0493

MULLIKEN ATOMIC CHARGES
-----------------------
   0 C :    0.000227
   1 O :   -0.000113
   2 H :   -0.000011
   3 H :    0.000411
   4 H :   -0.000067
   5 H :    0.000073
   6 C :   -0.169853
   7 O :   -0.467607
   8 H :    0.316307
   9 H :    0.094983
  10 H :    0.121964
  11 H :    0.103686
Sum of atomic charges:    0.0000000

LOEWDIN ATOMIC CHARGES
----------------------
   0 C :   -0.001530
   1 O :   -0.000372
   2 H :   -0.000027
   3 H :   -0.000388
   4 H :   -0.000045
   5 H :   -0.000012
   6 C :   -0.394797
   7 O :   -0.066572
   8 H :    0.179780
   9 H :    0.096010
  10 H :    0.106591
  11 H :    0.081361

  Mayer bond orders larger than 0.1
B(  6-C ,  7-O ) :   1.0007 B(  6-C ,  9-H ) :   0.9990 B(  6-C , 10-H ) :   0.9758
B(  6-C , 11-H ) :   0.9628 B(  7-O ,  8-H ) :   0.8985

Dispersion correction           -0.000208376
FINAL SINGLE POINT ENERGY      -115.727990155627

DIPOLE MOMENT
-------------
                                X             Y             Z
Electronic contribution:      1.79091       0.39359      -0.39029
Nuclear contribution   :     -2.16690      -0.40617       1.00574
                        -----------------------------------------
Total Dipole Moment    :     -0.37599      -0.01257       0.61545
                        -----------------------------------------
Magnitude (a.u.)       :      0.72132
Magnitude (Debye)      :      1.83345

Rotational constants in cm-1:     4.485532     0.862547     0.818171
Rotational constants in MHz : 134472.863726 25858.516988 24528.148930

                             ****ORCA TERMINATED NORMALLY****
TOTAL RUN TIME: 0 days 0 hours 6 minutes 10 seconds 857 msec
