                         Program Version 4.1.2  - RELEASE  -
|  1> #Run DFT-D3 single point of the dimer
|  2> ! wB97X-D3 def2-TZVP TIGHTSCF CHELPG PMODEL PAL8
|  3>
|  4> %base "21-64_DFT_AB"
|  5>
|  6> %scf
|  7> MaxIter 1000
|  8> end
|  9>
| 10> * xyz 0 1
| 11>   C                      -11.372586           8.540703             -4.414854
| 12>   O                      -10.682548           7.464592             -3.735657
| 13>   H                      -9.880261            7.202070             -4.211377
| 14>   H                      -12.306293           8.795395             -3.765906
| 15>   H                      -10.774642           9.463074             -4.547285
| 16>   H                      -11.771777           8.144614             -5.371547
| 17>   C                      -7.464134            9.077489             -4.046340
| 18>   O                      -7.225650            9.785557             -2.779432
| 19>   H                      -7.747243            10.589431            -2.869290
| 20>   H                      -7.160572            8.063823             -3.955577
| 21>   H                      -8.473431            9.097550             -4.463730
| 22>   H                      -6.783281            9.586541             -4.787921
| 23> *
| 24>
| 25> #Run DFT-D3 single point of the molecule with dimer basis set
| 26> $new_job
| 27> %base "21-64_DFT_A"
| 28> ! wB97X-D3 def2-TZVP TIGHTSCF CHELPG PMODEL
| 29>
| 30> %scf
| 31> MaxIter 1000
| 32> end
| 33>
| 34> * xyz 0 1
| 35>   C                      -11.372586           8.540703             -4.414854
| 36>   O                      -10.682548           7.464592             -3.735657
| 37>   H                      -9.880261            7.202070             -4.211377
| 38>   H                      -12.306293           8.795395             -3.765906
| 39>   H                      -10.774642           9.463074             -4.547285
| 40>   H                      -11.771777           8.144614             -5.371547
| 41>   C                    : -7.464134            9.077489             -4.046340
| 42>   O                    : -7.225650            9.785557             -2.779432
| 43>   H                    : -7.747243            10.589431            -2.869290
| 44>   H                    : -7.160572            8.063823             -3.955577
| 45>   H                    : -8.473431            9.097550             -4.463730
| 46>   H                    : -6.783281            9.586541             -4.787921
| 47> *
| 48>
| 49> #Run DFT-D3 single point of the particle with dimer basis set
| 50> $new_job
| 51> %base "21-64_DFT_B"
| 52> ! wB97X-D3 def2-TZVP TIGHTSCF CHELPG PMODEL
| 53>
| 54> %scf
| 55> MaxIter 1000
| 56> end
| 57>
| 58> * xyz 0 1
| 59>   C                    : -11.372586           8.540703             -4.414854
| 60>   O                    : -10.682548           7.464592             -3.735657
| 61>   H                    : -9.880261            7.202070             -4.211377
| 62>   H                    : -12.306293           8.795395             -3.765906
| 63>   H                    : -10.774642           9.463074             -4.547285
| 64>   H                    : -11.771777           8.144614             -5.371547
| 65>   C                      -7.464134            9.077489             -4.046340
| 66>   O                      -7.225650            9.785557             -2.779432
| 67>   H                      -7.747243            10.589431            -2.869290
| 68>   H                      -7.160572            8.063823             -3.955577
| 69>   H                      -8.473431            9.097550             -4.463730
| 70>   H                      -6.783281            9.586541             -4.787921
| 71> *
| 72>
| 73>                          ****END OF INPUT****
 Total Charge           Charge          ....    0
 Multiplicity           Mult            ....    1
 Number of Electrons    NEL             ....   36
Dispersion correction           -0.001813732
FINAL SINGLE POINT ENERGY      -231.463551665599
Dispersion correction           -0.000276453
FINAL SINGLE POINT ENERGY      -115.732626002420

CARTESIAN COORDINATES (ANGSTROEM)
---------------------------------
  C    -11.372586    8.540703   -4.414854
  O    -10.682548    7.464592   -3.735657
  H     -9.880261    7.202070   -4.211377
  H    -12.306293    8.795395   -3.765906
  H    -10.774642    9.463074   -4.547285
  H    -11.771777    8.144614   -5.371547
  C     -7.464134    9.077489   -4.046340
  O     -7.225650    9.785557   -2.779432
  H     -7.747243   10.589431   -2.869290
  H     -7.160572    8.063823   -3.955577
  H     -8.473431    9.097550   -4.463730
  H     -6.783281    9.586541   -4.787921

 Multiplicity           Mult            ....    1
 Number of Electrons    NEL             ....   18
 Basis Dimension        Dim             ....  172

ORBITAL ENERGIES
----------------

  NO   OCC          E(Eh)            E(eV)
   0   2.0000     -19.232036      -523.3303
   1   2.0000     -10.317787      -280.7613
   2   2.0000      -1.122287       -30.5390
   3   2.0000      -0.796732       -21.6802
   4   2.0000      -0.600902       -16.3514
   5   2.0000      -0.534649       -14.5485
   6   2.0000      -0.518203       -14.1010
   7   2.0000      -0.447677       -12.1819
   8   2.0000      -0.373017       -10.1503
   9   0.0000       0.081678         2.2226
  10   0.0000       0.119846         3.2612
  11   0.0000       0.147173         4.0048
  12   0.0000       0.171605         4.6696
  13   0.0000       0.187764         5.1093

MULLIKEN ATOMIC CHARGES
-----------------------
   0 C :    0.001068
   1 O :    0.000594
   2 H :   -0.002532
   3 H :   -0.000050
   4 H :    0.001175
   5 H :    0.000001
   6 C :   -0.190785
   7 O :   -0.472466
   8 H :    0.311795
   9 H :    0.127684
  10 H :    0.112825
  11 H :    0.110691
Sum of atomic charges:    0.0000000

LOEWDIN ATOMIC CHARGES
----------------------
   0 C :   -0.005381
   1 O :   -0.001050
   2 H :   -0.004404
   3 H :   -0.000049
   4 H :   -0.003606
   5 H :   -0.000043
   6 C :   -0.344561
   7 O :   -0.114933
   8 H :    0.166591
   9 H :    0.101118
  10 H :    0.101179
  11 H :    0.105139

  Mayer bond orders larger than 0.1
B(  6-C ,  7-O ) :   0.9945 B(  6-C ,  9-H ) :   0.9745 B(  6-C , 10-H ) :   0.9612
B(  6-C , 11-H ) :   0.9821 B(  7-O ,  8-H ) :   0.9044

Dispersion correction           -0.000257910
FINAL SINGLE POINT ENERGY      -115.731331367164

DIPOLE MOMENT
-------------
                                X             Y             Z
Electronic contribution:      0.26767       0.67023       1.69972
Nuclear contribution   :     -0.69755      -0.47941      -2.27531
                        -----------------------------------------
Total Dipole Moment    :     -0.42988       0.19082      -0.57559
                        -----------------------------------------
Magnitude (a.u.)       :      0.74331
Magnitude (Debye)      :      1.88934

Rotational constants in cm-1:     4.254962     0.782193     0.756467
Rotational constants in MHz : 127560.547928 23449.556251 22678.304287

                             ****ORCA TERMINATED NORMALLY****
TOTAL RUN TIME: 0 days 0 hours 1 minutes 5 seconds 937 msec
