                         Program Version 4.1.2  - RELEASE  -
|  1> #Run DFT-D3 single point of the dimer
|  2> ! wB97X-D3 def2-TZVP TIGHTSCF CHELPG PMODEL PAL8
|  3>
|  4> %base "5-17_DFT_AB"
|  5>
|  6> %scf
|  7> MaxIter 1000
|  8> end
|  9>
| 10> * xyz 0 1
| 11>   C                      4.682052             -4.285258            7.565120
| 12>   O                      4.866444             -3.775011            6.253769
| 13>   H                      4.430609             -2.921144            6.243393
| 14>   H                      4.396078             -3.482571            8.277853
| 15>   H                      3.896837             -5.017560            7.602140
| 16>   H                      5.548066             -4.676643            7.981622
| 17>   C                      6.029280             -9.175350            9.917710
| 18>   O                      7.212876             -8.355816            9.850832
| 19>   H                      7.738320             -8.490723            9.042693
| 20>   H                      6.303231             -10.242801           9.700826
| 21>   H                      5.373470             -9.245646            10.809039
| 22>   H                      5.365920             -8.959489            9.043971
| 23> *
| 24>
| 25> #Run DFT-D3 single point of the molecule with dimer basis set
| 26> $new_job
| 27> %base "5-17_DFT_A"
| 28> ! wB97X-D3 def2-TZVP TIGHTSCF CHELPG PMODEL
| 29>
| 30> %scf
| 31> MaxIter 1000
| 32> end
| 33>
| 34> * xyz 0 1
| 35>   C                      4.682052             -4.285258            7.565120
| 36>   O                      4.866444             -3.775011            6.253769
| 37>   H                      4.430609             -2.921144            6.243393
| 38>   H                      4.396078             -3.482571            8.277853
| 39>   H                      3.896837             -5.017560            7.602140
| 40>   H                      5.548066             -4.676643            7.981622
| 41>   C                    : 6.029280             -9.175350            9.917710
| 42>   O                    : 7.212876             -8.355816            9.850832
| 43>   H                    : 7.738320             -8.490723            9.042693
| 44>   H                    : 6.303231             -10.242801           9.700826
| 45>   H                    : 5.373470             -9.245646            10.809039
| 46>   H                    : 5.365920             -8.959489            9.043971
| 47> *
| 48>
| 49> #Run DFT-D3 single point of the particle with dimer basis set
| 50> $new_job
| 51> %base "5-17_DFT_B"
| 52> ! wB97X-D3 def2-TZVP TIGHTSCF CHELPG PMODEL
| 53>
| 54> %scf
| 55> MaxIter 1000
| 56> end
| 57>
| 58> * xyz 0 1
| 59>   C                    : 4.682052             -4.285258            7.565120
| 60>   O                    : 4.866444             -3.775011            6.253769
| 61>   H                    : 4.430609             -2.921144            6.243393
| 62>   H                    : 4.396078             -3.482571            8.277853
| 63>   H                    : 3.896837             -5.017560            7.602140
| 64>   H                    : 5.548066             -4.676643            7.981622
| 65>   C                      6.029280             -9.175350            9.917710
| 66>   O                      7.212876             -8.355816            9.850832
| 67>   H                      7.738320             -8.490723            9.042693
| 68>   H                      6.303231             -10.242801           9.700826
| 69>   H                      5.373470             -9.245646            10.809039
| 70>   H                      5.365920             -8.959489            9.043971
| 71> *
| 72>
| 73>                          ****END OF INPUT****
 Total Charge           Charge          ....    0
 Multiplicity           Mult            ....    1
 Number of Electrons    NEL             ....   36
Dispersion correction           -0.000703814
FINAL SINGLE POINT ENERGY      -231.456791900295
Dispersion correction           -0.000239376
FINAL SINGLE POINT ENERGY      -115.732419760440

CARTESIAN COORDINATES (ANGSTROEM)
---------------------------------
  C      4.682052   -4.285258    7.565120
  O      4.866444   -3.775011    6.253769
  H      4.430609   -2.921144    6.243393
  H      4.396078   -3.482571    8.277853
  H      3.896837   -5.017560    7.602140
  H      5.548066   -4.676643    7.981622
  C      6.029280   -9.175350    9.917710
  O      7.212876   -8.355816    9.850832
  H      7.738320   -8.490723    9.042693
  H      6.303231  -10.242801    9.700826
  H      5.373470   -9.245646   10.809039
  H      5.365920   -8.959489    9.043971

 Multiplicity           Mult            ....    1
 Number of Electrons    NEL             ....   18
 Basis Dimension        Dim             ....  172

ORBITAL ENERGIES
----------------

  NO   OCC          E(Eh)            E(eV)
   0   2.0000     -19.231902      -523.3267
   1   2.0000     -10.325201      -280.9630
   2   2.0000      -1.123453       -30.5707
   3   2.0000      -0.795308       -21.6414
   4   2.0000      -0.608839       -16.5673
   5   2.0000      -0.534157       -14.5352
   6   2.0000      -0.523372       -14.2417
   7   2.0000      -0.424838       -11.5604
   8   2.0000      -0.369353       -10.0506
   9   0.0000       0.088234         2.4010
  10   0.0000       0.111708         3.0397
  11   0.0000       0.141082         3.8390
  12   0.0000       0.168760         4.5922
  13   0.0000       0.194176         5.2838

MULLIKEN ATOMIC CHARGES
-----------------------
   0 C :    0.000442
   1 O :   -0.000004
   2 H :   -0.000001
   3 H :   -0.000025
   4 H :   -0.000019
   5 H :   -0.001029
   6 C :   -0.181266
   7 O :   -0.490533
   8 H :    0.325356
   9 H :    0.102743
  10 H :    0.138133
  11 H :    0.106202
Sum of atomic charges:   -0.0000000

LOEWDIN ATOMIC CHARGES
----------------------
   0 C :   -0.000044
   1 O :   -0.000002
   2 H :   -0.000000
   3 H :   -0.000000
   4 H :   -0.000018
   5 H :   -0.000280
   6 C :   -0.380991
   7 O :   -0.107505
   8 H :    0.177586
   9 H :    0.098826
  10 H :    0.113869
  11 H :    0.098559

  Mayer bond orders larger than 0.1
B(  6-C ,  7-O ) :   0.9834 B(  6-C ,  9-H ) :   0.9807 B(  6-C , 10-H ) :   0.9643
B(  6-C , 11-H ) :   0.9785 B(  7-O ,  8-H ) :   0.8863

Dispersion correction           -0.000280646
FINAL SINGLE POINT ENERGY      -115.723816345842

DIPOLE MOMENT
-------------
                                X             Y             Z
Electronic contribution:      1.50571       1.27372       0.25942
Nuclear contribution   :     -1.66492      -1.72403      -0.75575
                        -----------------------------------------
Total Dipole Moment    :     -0.15922      -0.45031      -0.49633
                        -----------------------------------------
Magnitude (a.u.)       :      0.68882
Magnitude (Debye)      :      1.75083

Rotational constants in cm-1:     4.425499     0.781747     0.753191
Rotational constants in MHz : 132673.108542 23436.197818 22580.093590

                             ****ORCA TERMINATED NORMALLY****
TOTAL RUN TIME: 0 days 0 hours 0 minutes 49 seconds 891 msec
