                         Program Version 4.1.2  - RELEASE  -
|  1> #Run DFT-D3 single point of the dimer
|  2> ! wB97X-D3 def2-TZVP TIGHTSCF  CHELPG PAL8
|  3>
|  4> %base "89_charges"
|  5>
|  6> %scf
|  7> MaxIter 1000
|  8> end
|  9> %output
| 10>   Print[ P_Mayer ] 1
| 11>   Print[ P_NatPop ] 1
| 12>   Print[ P_Hirshfeld ] 1
| 13>   Print[ P_Mulliken ] 1
| 14>   Print [ P_Loewdin ] 1
| 15> end
| 16>
| 17> * xyz 0 1
| 18>   C                      8.684669             -11.399220           11.077886
| 19>   O                      8.191063             -12.375304           11.986839
| 20>   H                      8.006467             -11.776305           12.754472
| 21>   H                      9.366504             -11.836733           10.271057
| 22>   H                      7.938608             -10.746839           10.718509
| 23>   H                      9.450509             -10.821383           11.554528
| 24> *
| 25>
| 26>                          ****END OF INPUT****

CARTESIAN COORDINATES (ANGSTROEM)
---------------------------------
  C      8.684669  -11.399220   11.077886
  O      8.191063  -12.375304   11.986839
  H      8.006467  -11.776305   12.754472
  H      9.366504  -11.836733   10.271057
  H      7.938608  -10.746839   10.718509
  H      9.450509  -10.821383   11.554528

 Total Charge           Charge          ....    0
 Multiplicity           Mult            ....    1
 Number of Electrons    NEL             ....   18
 Basis Dimension        Dim             ....   86

ORBITAL ENERGIES
----------------

  NO   OCC          E(Eh)            E(eV)
   0   2.0000     -19.236353      -523.4478
   1   2.0000     -10.311861      -280.6000
   2   2.0000      -1.135029       -30.8857
   3   2.0000      -0.792539       -21.5661
   4   2.0000      -0.604337       -16.4449
   5   2.0000      -0.557535       -15.1713
   6   2.0000      -0.517152       -14.0724
   7   2.0000      -0.432072       -11.7573
   8   2.0000      -0.377890       -10.2829
   9   0.0000       0.111022         3.0211
  10   0.0000       0.152319         4.1448
  11   0.0000       0.196724         5.3531
  12   0.0000       0.207656         5.6506
  13   0.0000       0.221605         6.0302

MULLIKEN ATOMIC CHARGES
-----------------------
   0 C :   -0.187925
   1 O :   -0.462656
   2 H :    0.317451
   3 H :    0.114305
   4 H :    0.112798
   5 H :    0.106027
Sum of atomic charges:   -0.0000000

LOEWDIN ATOMIC CHARGES
----------------------
   0 C :   -0.395680
   1 O :   -0.094640
   2 H :    0.193040
   3 H :    0.119191
   4 H :    0.086537
   5 H :    0.091553

  Mayer bond orders larger than 0.1
B(  0-C ,  1-O ) :   1.0015 B(  0-C ,  3-H ) :   0.9699 B(  0-C ,  4-H ) :   0.9714
B(  0-C ,  5-H ) :   0.9846 B(  1-O ,  2-H ) :   0.8986

Dispersion correction           -0.000221321
FINAL SINGLE POINT ENERGY      -115.725207486943

DIPOLE MOMENT
-------------
                                X             Y             Z
Electronic contribution:     -0.82652      -1.40670       1.01943
Nuclear contribution   :      0.94044       2.16240      -0.88743
                        -----------------------------------------
Total Dipole Moment    :      0.11392       0.75570       0.13201
                        -----------------------------------------
Magnitude (a.u.)       :      0.77556
Magnitude (Debye)      :      1.97131

Rotational constants in cm-1:     4.254178     0.828789     0.797716
Rotational constants in MHz : 127537.033953 24846.456904 23914.919165

                             ****ORCA TERMINATED NORMALLY****
TOTAL RUN TIME: 0 days 0 hours 0 minutes 41 seconds 212 msec
