                         Program Version 4.1.2  - RELEASE  -
|  1> #Run DFT-D3 single point of the dimer
|  2> ! wB97X-D3 def2-TZVP TIGHTSCF CHELPG PMODEL PAL8
|  3>
|  4> %base "21-160_DFT_AB"
|  5>
|  6> %scf
|  7> MaxIter 1000
|  8> end
|  9>
| 10> * xyz 0 1
| 11>   C                      2.873291             -2.529165            -7.643603
| 12>   O                      3.707500             -3.600925            -7.742358
| 13>   H                      4.663623             -3.302338            -7.745049
| 14>   H                      1.923567             -2.610872            -8.190210
| 15>   H                      2.564570             -2.405424            -6.552309
| 16>   H                      3.394196             -1.553683            -7.938926
| 17>   C                      3.613948             -6.210664            -5.931045
| 18>   O                      2.708415             -6.137613            -7.009225
| 19>   H                      3.023668             -5.348416            -7.442372
| 20>   H                      3.590139             -5.380667            -5.288021
| 21>   H                      3.358041             -7.056991            -5.250480
| 22>   H                      4.647743             -6.437943            -6.131150
| 23> *
| 24>
| 25> #Run DFT-D3 single point of the molecule with dimer basis set
| 26> $new_job
| 27> %base "21-160_DFT_A"
| 28> ! wB97X-D3 def2-TZVP TIGHTSCF CHELPG PMODEL
| 29>
| 30> %scf
| 31> MaxIter 1000
| 32> end
| 33>
| 34> * xyz 0 1
| 35>   C                      2.873291             -2.529165            -7.643603
| 36>   O                      3.707500             -3.600925            -7.742358
| 37>   H                      4.663623             -3.302338            -7.745049
| 38>   H                      1.923567             -2.610872            -8.190210
| 39>   H                      2.564570             -2.405424            -6.552309
| 40>   H                      3.394196             -1.553683            -7.938926
| 41>   C                    : 3.613948             -6.210664            -5.931045
| 42>   O                    : 2.708415             -6.137613            -7.009225
| 43>   H                    : 3.023668             -5.348416            -7.442372
| 44>   H                    : 3.590139             -5.380667            -5.288021
| 45>   H                    : 3.358041             -7.056991            -5.250480
| 46>   H                    : 4.647743             -6.437943            -6.131150
| 47> *
| 48>
| 49> #Run DFT-D3 single point of the particle with dimer basis set
| 50> $new_job
| 51> %base "21-160_DFT_B"
| 52> ! wB97X-D3 def2-TZVP TIGHTSCF CHELPG PMODEL
| 53>
| 54> %scf
| 55> MaxIter 1000
| 56> end
| 57>
| 58> * xyz 0 1
| 59>   C                    : 2.873291             -2.529165            -7.643603
| 60>   O                    : 3.707500             -3.600925            -7.742358
| 61>   H                    : 4.663623             -3.302338            -7.745049
| 62>   H                    : 1.923567             -2.610872            -8.190210
| 63>   H                    : 2.564570             -2.405424            -6.552309
| 64>   H                    : 3.394196             -1.553683            -7.938926
| 65>   C                      3.613948             -6.210664            -5.931045
| 66>   O                      2.708415             -6.137613            -7.009225
| 67>   H                      3.023668             -5.348416            -7.442372
| 68>   H                      3.590139             -5.380667            -5.288021
| 69>   H                      3.358041             -7.056991            -5.250480
| 70>   H                      4.647743             -6.437943            -6.131150
| 71> *
| 72>
| 73>                          ****END OF INPUT****
 Total Charge           Charge          ....    0
 Multiplicity           Mult            ....    1
 Number of Electrons    NEL             ....   36
Dispersion correction           -0.002006323
FINAL SINGLE POINT ENERGY      -231.467762420930
Dispersion correction           -0.000247460
FINAL SINGLE POINT ENERGY      -115.728882790806

CARTESIAN COORDINATES (ANGSTROEM)
---------------------------------
  C      2.873291   -2.529165   -7.643603
  O      3.707500   -3.600925   -7.742358
  H      4.663623   -3.302338   -7.745049
  H      1.923567   -2.610872   -8.190210
  H      2.564570   -2.405424   -6.552309
  H      3.394196   -1.553683   -7.938926
  C      3.613948   -6.210664   -5.931045
  O      2.708415   -6.137613   -7.009225
  H      3.023668   -5.348416   -7.442372
  H      3.590139   -5.380667   -5.288021
  H      3.358041   -7.056991   -5.250480
  H      4.647743   -6.437943   -6.131150

 Multiplicity           Mult            ....    1
 Number of Electrons    NEL             ....   18
 Basis Dimension        Dim             ....  172

ORBITAL ENERGIES
----------------

  NO   OCC          E(Eh)            E(eV)
   0   2.0000     -19.238446      -523.5047
   1   2.0000     -10.307883      -280.4918
   2   2.0000      -1.146879       -31.2082
   3   2.0000      -0.800175       -21.7739
   4   2.0000      -0.615362       -16.7448
   5   2.0000      -0.548121       -14.9151
   6   2.0000      -0.525219       -14.2919
   7   2.0000      -0.437860       -11.9148
   8   2.0000      -0.381214       -10.3734
   9   0.0000       0.068909         1.8751
  10   0.0000       0.135262         3.6807
  11   0.0000       0.148974         4.0538
  12   0.0000       0.162841         4.4311
  13   0.0000       0.186321         5.0701

MULLIKEN ATOMIC CHARGES
-----------------------
   0 C :   -0.005255
   1 O :   -0.003934
   2 H :   -0.000044
   3 H :    0.000542
   4 H :    0.000279
   5 H :   -0.000092
   6 C :   -0.191924
   7 O :   -0.448408
   8 H :    0.315967
   9 H :    0.111100
  10 H :    0.115568
  11 H :    0.106199
Sum of atomic charges:    0.0000000

LOEWDIN ATOMIC CHARGES
----------------------
   0 C :   -0.005210
   1 O :   -0.021655
   2 H :   -0.000960
   3 H :   -0.000293
   4 H :   -0.000278
   5 H :   -0.000122
   6 C :   -0.397991
   7 O :   -0.047766
   8 H :    0.179727
   9 H :    0.086819
  10 H :    0.115103
  11 H :    0.092627

  Mayer bond orders larger than 0.1
B(  6-C ,  7-O ) :   1.0060 B(  6-C ,  9-H ) :   0.9760 B(  6-C , 10-H ) :   0.9772
B(  6-C , 11-H ) :   0.9742 B(  7-O ,  8-H ) :   0.9099

Dispersion correction           -0.000237771
FINAL SINGLE POINT ENERGY      -115.730552972930

DIPOLE MOMENT
-------------
                                X             Y             Z
Electronic contribution:     -1.28955       0.07926      -1.53319
Nuclear contribution   :      1.82432       0.37073       1.69439
                        -----------------------------------------
Total Dipole Moment    :      0.53477       0.44999       0.16120
                        -----------------------------------------
Magnitude (a.u.)       :      0.71726
Magnitude (Debye)      :      1.82312

Rotational constants in cm-1:     4.532060     0.830977     0.800865
Rotational constants in MHz : 135867.748232 24912.050079 24009.331189

                             ****ORCA TERMINATED NORMALLY****
TOTAL RUN TIME: 0 days 0 hours 1 minutes 9 seconds 810 msec
