                         Program Version 4.1.2  - RELEASE  -
|  1> #Run DFT-D3 single point of the dimer
|  2> ! wB97X-D3 def2-TZVP TIGHTSCF CHELPG PMODEL PAL8
|  3>
|  4> %base "17-189_DFT_AB"
|  5>
|  6> %scf
|  7> MaxIter 1000
|  8> end
|  9>
| 10> * xyz 0 1
| 11>   C                      4.564148             2.486965             9.463505
| 12>   O                      3.292222             2.011616             9.072994
| 13>   H                      3.299397             1.074400             8.926465
| 14>   H                      5.309284             2.534749             8.657171
| 15>   H                      4.380130             3.479184             9.880657
| 16>   H                      5.041125             1.943326             10.275876
| 17>   C                      3.335256             -2.080908            8.211448
| 18>   O                      3.391253             -0.957846            8.954754
| 19>   H                      4.286924             -0.929275            9.319286
| 20>   H                      2.361145             -2.219645            7.766882
| 21>   H                      3.958356             -1.952691            7.293758
| 22>   H                      3.533792             -2.956038            8.799028
| 23> *
| 24>
| 25> #Run DFT-D3 single point of the molecule with dimer basis set
| 26> $new_job
| 27> %base "17-189_DFT_A"
| 28> ! wB97X-D3 def2-TZVP TIGHTSCF CHELPG PMODEL
| 29>
| 30> %scf
| 31> MaxIter 1000
| 32> end
| 33>
| 34> * xyz 0 1
| 35>   C                      4.564148             2.486965             9.463505
| 36>   O                      3.292222             2.011616             9.072994
| 37>   H                      3.299397             1.074400             8.926465
| 38>   H                      5.309284             2.534749             8.657171
| 39>   H                      4.380130             3.479184             9.880657
| 40>   H                      5.041125             1.943326             10.275876
| 41>   C                    : 3.335256             -2.080908            8.211448
| 42>   O                    : 3.391253             -0.957846            8.954754
| 43>   H                    : 4.286924             -0.929275            9.319286
| 44>   H                    : 2.361145             -2.219645            7.766882
| 45>   H                    : 3.958356             -1.952691            7.293758
| 46>   H                    : 3.533792             -2.956038            8.799028
| 47> *
| 48>
| 49> #Run DFT-D3 single point of the particle with dimer basis set
| 50> $new_job
| 51> %base "17-189_DFT_B"
| 52> ! wB97X-D3 def2-TZVP TIGHTSCF CHELPG PMODEL
| 53>
| 54> %scf
| 55> MaxIter 1000
| 56> end
| 57>
| 58> * xyz 0 1
| 59>   C                    : 4.564148             2.486965             9.463505
| 60>   O                    : 3.292222             2.011616             9.072994
| 61>   H                    : 3.299397             1.074400             8.926465
| 62>   H                    : 5.309284             2.534749             8.657171
| 63>   H                    : 4.380130             3.479184             9.880657
| 64>   H                    : 5.041125             1.943326             10.275876
| 65>   C                      3.335256             -2.080908            8.211448
| 66>   O                      3.391253             -0.957846            8.954754
| 67>   H                      4.286924             -0.929275            9.319286
| 68>   H                      2.361145             -2.219645            7.766882
| 69>   H                      3.958356             -1.952691            7.293758
| 70>   H                      3.533792             -2.956038            8.799028
| 71> *
| 72>
| 73>                          ****END OF INPUT****
 Total Charge           Charge          ....    0
 Multiplicity           Mult            ....    1
 Number of Electrons    NEL             ....   36
Dispersion correction           -0.001548366
FINAL SINGLE POINT ENERGY      -231.472564078599
Dispersion correction           -0.000261553
FINAL SINGLE POINT ENERGY      -115.736127223069

CARTESIAN COORDINATES (ANGSTROEM)
---------------------------------
  C      4.564148    2.486965    9.463505
  O      3.292222    2.011616    9.072994
  H      3.299397    1.074400    8.926465
  H      5.309284    2.534749    8.657171
  H      4.380130    3.479184    9.880657
  H      5.041125    1.943326   10.275876
  C      3.335256   -2.080908    8.211448
  O      3.391253   -0.957846    8.954754
  H      4.286924   -0.929275    9.319286
  H      2.361145   -2.219645    7.766882
  H      3.958356   -1.952691    7.293758
  H      3.533792   -2.956038    8.799028

 Multiplicity           Mult            ....    1
 Number of Electrons    NEL             ....   18
 Basis Dimension        Dim             ....  172

ORBITAL ENERGIES
----------------

  NO   OCC          E(Eh)            E(eV)
   0   2.0000     -19.231396      -523.3129
   1   2.0000     -10.304979      -280.4127
   2   2.0000      -1.159454       -31.5503
   3   2.0000      -0.792869       -21.5751
   4   2.0000      -0.618242       -16.8232
   5   2.0000      -0.560530       -15.2528
   6   2.0000      -0.537739       -14.6326
   7   2.0000      -0.423658       -11.5283
   8   2.0000      -0.371890       -10.1196
   9   0.0000       0.088116         2.3978
  10   0.0000       0.127435         3.4677
  11   0.0000       0.157882         4.2962
  12   0.0000       0.185615         5.0508
  13   0.0000       0.199690         5.4338

MULLIKEN ATOMIC CHARGES
-----------------------
   0 C :   -0.002511
   1 O :    0.001779
   2 H :   -0.012468
   3 H :    0.000323
   4 H :   -0.000202
   5 H :    0.000213
   6 C :   -0.151616
   7 O :   -0.452871
   8 H :    0.321779
   9 H :    0.110240
  10 H :    0.088683
  11 H :    0.096652
Sum of atomic charges:    0.0000000

LOEWDIN ATOMIC CHARGES
----------------------
   0 C :   -0.002341
   1 O :   -0.003782
   2 H :   -0.035316
   3 H :   -0.000078
   4 H :   -0.000056
   5 H :   -0.000246
   6 C :   -0.439379
   7 O :    0.001647
   8 H :    0.185172
   9 H :    0.105397
  10 H :    0.097613
  11 H :    0.091368

  Mayer bond orders larger than 0.1
B(  6-C ,  7-O ) :   1.0016 B(  6-C ,  9-H ) :   0.9754 B(  6-C , 10-H ) :   0.9830
B(  6-C , 11-H ) :   0.9748 B(  7-O ,  8-H ) :   0.8908

Dispersion correction           -0.000204306
FINAL SINGLE POINT ENERGY      -115.730845794567

DIPOLE MOMENT
-------------
                                X             Y             Z
Electronic contribution:     -0.04371       1.48457       1.08192
Nuclear contribution   :      0.55055      -1.87804      -1.11421
                        -----------------------------------------
Total Dipole Moment    :      0.50684      -0.39347      -0.03228
                        -----------------------------------------
Magnitude (a.u.)       :      0.64245
Magnitude (Debye)      :      1.63299

Rotational constants in cm-1:     4.310574     0.895405     0.874084
Rotational constants in MHz : 129227.761126 26843.579905 26204.366773

                             ****ORCA TERMINATED NORMALLY****
TOTAL RUN TIME: 0 days 0 hours 1 minutes 13 seconds 801 msec
