                         Program Version 4.1.2  - RELEASE  -
|  1> #Run DFT-D3 single point of the dimer
|  2> ! wB97X-D3 def2-TZVP TIGHTSCF CHELPG PMODEL PAL8
|  3>
|  4> %base "1-123_DFT_AB"
|  5>
|  6> %scf
|  7> MaxIter 1000
|  8> end
|  9>
| 10> * xyz 0 1
| 11>   C                      5.542015             10.680437            -0.691978
| 12>   O                      6.160653             11.159139            -1.887757
| 13>   H                      6.573102             10.470271            -2.373774
| 14>   H                      5.940830             11.268965            0.206580
| 15>   H                      4.456905             10.788980            -0.753969
| 16>   H                      5.760810             9.654491             -0.559294
| 17>   C                      9.857625             7.522086             -3.895079
| 18>   O                      9.909800             8.813567             -3.346686
| 19>   H                      9.069499             9.261982             -3.402323
| 20>   H                      10.158848            7.470738             -4.929036
| 21>   H                      10.392826            6.794359             -3.291123
| 22>   H                      8.808153             7.219059             -3.995173
| 23> *
| 24>
| 25> #Run DFT-D3 single point of the molecule with dimer basis set
| 26> $new_job
| 27> %base "1-123_DFT_A"
| 28> ! wB97X-D3 def2-TZVP TIGHTSCF CHELPG PMODEL
| 29>
| 30> %scf
| 31> MaxIter 1000
| 32> end
| 33>
| 34> * xyz 0 1
| 35>   C                      5.542015             10.680437            -0.691978
| 36>   O                      6.160653             11.159139            -1.887757
| 37>   H                      6.573102             10.470271            -2.373774
| 38>   H                      5.940830             11.268965            0.206580
| 39>   H                      4.456905             10.788980            -0.753969
| 40>   H                      5.760810             9.654491             -0.559294
| 41>   C                    : 9.857625             7.522086             -3.895079
| 42>   O                    : 9.909800             8.813567             -3.346686
| 43>   H                    : 9.069499             9.261982             -3.402323
| 44>   H                    : 10.158848            7.470738             -4.929036
| 45>   H                    : 10.392826            6.794359             -3.291123
| 46>   H                    : 8.808153             7.219059             -3.995173
| 47> *
| 48>
| 49> #Run DFT-D3 single point of the particle with dimer basis set
| 50> $new_job
| 51> %base "1-123_DFT_B"
| 52> ! wB97X-D3 def2-TZVP TIGHTSCF CHELPG PMODEL
| 53>
| 54> %scf
| 55> MaxIter 1000
| 56> end
| 57>
| 58> * xyz 0 1
| 59>   C                    : 5.542015             10.680437            -0.691978
| 60>   O                    : 6.160653             11.159139            -1.887757
| 61>   H                    : 6.573102             10.470271            -2.373774
| 62>   H                    : 5.940830             11.268965            0.206580
| 63>   H                    : 4.456905             10.788980            -0.753969
| 64>   H                    : 5.760810             9.654491             -0.559294
| 65>   C                      9.857625             7.522086             -3.895079
| 66>   O                      9.909800             8.813567             -3.346686
| 67>   H                      9.069499             9.261982             -3.402323
| 68>   H                      10.158848            7.470738             -4.929036
| 69>   H                      10.392826            6.794359             -3.291123
| 70>   H                      8.808153             7.219059             -3.995173
| 71> *
| 72>
| 73>                          ****END OF INPUT****
 Total Charge           Charge          ....    0
 Multiplicity           Mult            ....    1
 Number of Electrons    NEL             ....   36
Dispersion correction           -0.000844585
FINAL SINGLE POINT ENERGY      -231.464518318369
Dispersion correction           -0.000254912
FINAL SINGLE POINT ENERGY      -115.732785893354

CARTESIAN COORDINATES (ANGSTROEM)
---------------------------------
  C      5.542015   10.680437   -0.691978
  O      6.160653   11.159139   -1.887757
  H      6.573102   10.470271   -2.373774
  H      5.940830   11.268965    0.206580
  H      4.456905   10.788980   -0.753969
  H      5.760810    9.654491   -0.559294
  C      9.857625    7.522086   -3.895079
  O      9.909800    8.813567   -3.346686
  H      9.069499    9.261982   -3.402323
  H     10.158848    7.470738   -4.929036
  H     10.392826    6.794359   -3.291123
  H      8.808153    7.219059   -3.995173

 Multiplicity           Mult            ....    1
 Number of Electrons    NEL             ....   18
 Basis Dimension        Dim             ....  172

ORBITAL ENERGIES
----------------

  NO   OCC          E(Eh)            E(eV)
   0   2.0000     -19.227478      -523.2063
   1   2.0000     -10.310690      -280.5681
   2   2.0000      -1.137357       -30.9491
   3   2.0000      -0.799288       -21.7497
   4   2.0000      -0.618295       -16.8247
   5   2.0000      -0.542559       -14.7638
   6   2.0000      -0.529605       -14.4113
   7   2.0000      -0.426590       -11.6081
   8   2.0000      -0.372520       -10.1368
   9   0.0000       0.076431         2.0798
  10   0.0000       0.113710         3.0942
  11   0.0000       0.150411         4.0929
  12   0.0000       0.182112         4.9555
  13   0.0000       0.196607         5.3499

MULLIKEN ATOMIC CHARGES
-----------------------
   0 C :    0.000126
   1 O :    0.000099
   2 H :   -0.000810
   3 H :    0.000000
   4 H :   -0.000010
   5 H :   -0.000052
   6 C :   -0.149827
   7 O :   -0.483783
   8 H :    0.320265
   9 H :    0.101414
  10 H :    0.115982
  11 H :    0.096596
Sum of atomic charges:    0.0000000

LOEWDIN ATOMIC CHARGES
----------------------
   0 C :   -0.000020
   1 O :   -0.000027
   2 H :   -0.000950
   3 H :   -0.000000
   4 H :   -0.000001
   5 H :   -0.000010
   6 C :   -0.387573
   7 O :   -0.069774
   8 H :    0.165629
   9 H :    0.092400
  10 H :    0.103195
  11 H :    0.097133

  Mayer bond orders larger than 0.1
B(  6-C ,  7-O ) :   1.0034 B(  6-C ,  9-H ) :   0.9714 B(  6-C , 10-H ) :   0.9731
B(  6-C , 11-H ) :   0.9909 B(  7-O ,  8-H ) :   0.8976

Dispersion correction           -0.000244603
FINAL SINGLE POINT ENERGY      -115.732802293196

DIPOLE MOMENT
-------------
                                X             Y             Z
Electronic contribution:      0.31763       1.64209       0.79207
Nuclear contribution   :     -0.91800      -1.87122      -1.05411
                        -----------------------------------------
Total Dipole Moment    :     -0.60037      -0.22913      -0.26204
                        -----------------------------------------
Magnitude (a.u.)       :      0.69398
Magnitude (Debye)      :      1.76397

Rotational constants in cm-1:     4.444940     0.836507     0.803597
Rotational constants in MHz : 133255.936347 25077.841746 24091.221089

                             ****ORCA TERMINATED NORMALLY****
TOTAL RUN TIME: 0 days 0 hours 5 minutes 28 seconds 805 msec
