                         Program Version 4.1.2  - RELEASE  -
|  1> #Run DFT-D3 single point of the dimer
|  2> ! wB97X-D3 def2-TZVP TIGHTSCF CHELPG PMODEL PAL8
|  3>
|  4> %base "2-167_DFT_AB"
|  5>
|  6> %scf
|  7> MaxIter 1000
|  8> end
|  9>
| 10> * xyz 0 1
| 11>   C                      -5.713303            3.277059             -8.206859
| 12>   O                      -6.575882            4.002140             -9.087168
| 13>   H                      -6.399172            4.927764             -9.038590
| 14>   H                      -5.820958            3.609487             -7.198915
| 15>   H                      -5.852943            2.193454             -8.268895
| 16>   H                      -4.677271            3.379742             -8.473651
| 17>   C                      -8.711113            4.998661             -11.379496
| 18>   O                      -8.723463            6.327535             -11.956833
| 19>   H                      -7.937522            6.805973             -11.759743
| 20>   H                      -8.775803            5.166121             -10.332796
| 21>   H                      -9.496907            4.404988             -11.736539
| 22>   H                      -7.811904            4.469691             -11.588719
| 23> *
| 24>
| 25> #Run DFT-D3 single point of the molecule with dimer basis set
| 26> $new_job
| 27> %base "2-167_DFT_A"
| 28> ! wB97X-D3 def2-TZVP TIGHTSCF CHELPG PMODEL
| 29>
| 30> %scf
| 31> MaxIter 1000
| 32> end
| 33>
| 34> * xyz 0 1
| 35>   C                      -5.713303            3.277059             -8.206859
| 36>   O                      -6.575882            4.002140             -9.087168
| 37>   H                      -6.399172            4.927764             -9.038590
| 38>   H                      -5.820958            3.609487             -7.198915
| 39>   H                      -5.852943            2.193454             -8.268895
| 40>   H                      -4.677271            3.379742             -8.473651
| 41>   C                    : -8.711113            4.998661             -11.379496
| 42>   O                    : -8.723463            6.327535             -11.956833
| 43>   H                    : -7.937522            6.805973             -11.759743
| 44>   H                    : -8.775803            5.166121             -10.332796
| 45>   H                    : -9.496907            4.404988             -11.736539
| 46>   H                    : -7.811904            4.469691             -11.588719
| 47> *
| 48>
| 49> #Run DFT-D3 single point of the particle with dimer basis set
| 50> $new_job
| 51> %base "2-167_DFT_B"
| 52> ! wB97X-D3 def2-TZVP TIGHTSCF CHELPG PMODEL
| 53>
| 54> %scf
| 55> MaxIter 1000
| 56> end
| 57>
| 58> * xyz 0 1
| 59>   C                    : -5.713303            3.277059             -8.206859
| 60>   O                    : -6.575882            4.002140             -9.087168
| 61>   H                    : -6.399172            4.927764             -9.038590
| 62>   H                    : -5.820958            3.609487             -7.198915
| 63>   H                    : -5.852943            2.193454             -8.268895
| 64>   H                    : -4.677271            3.379742             -8.473651
| 65>   C                      -8.711113            4.998661             -11.379496
| 66>   O                      -8.723463            6.327535             -11.956833
| 67>   H                      -7.937522            6.805973             -11.759743
| 68>   H                      -8.775803            5.166121             -10.332796
| 69>   H                      -9.496907            4.404988             -11.736539
| 70>   H                      -7.811904            4.469691             -11.588719
| 71> *
| 72>
| 73>                          ****END OF INPUT****
 Total Charge           Charge          ....    0
 Multiplicity           Mult            ....    1
 Number of Electrons    NEL             ....   36
Dispersion correction           -0.001523165
FINAL SINGLE POINT ENERGY      -231.466241707340
Dispersion correction           -0.000247356
FINAL SINGLE POINT ENERGY      -115.734384873235

CARTESIAN COORDINATES (ANGSTROEM)
---------------------------------
  C     -5.713303    3.277059   -8.206859
  O     -6.575882    4.002140   -9.087168
  H     -6.399172    4.927764   -9.038590
  H     -5.820958    3.609487   -7.198915
  H     -5.852943    2.193454   -8.268895
  H     -4.677271    3.379742   -8.473651
  C     -8.711113    4.998661  -11.379496
  O     -8.723463    6.327535  -11.956833
  H     -7.937522    6.805973  -11.759743
  H     -8.775803    5.166121  -10.332796
  H     -9.496907    4.404988  -11.736539
  H     -7.811904    4.469691  -11.588719

 Multiplicity           Mult            ....    1
 Number of Electrons    NEL             ....   18
 Basis Dimension        Dim             ....  172

ORBITAL ENERGIES
----------------

  NO   OCC          E(Eh)            E(eV)
   0   2.0000     -19.221810      -523.0520
   1   2.0000     -10.304812      -280.4082
   2   2.0000      -1.124536       -30.6002
   3   2.0000      -0.807875       -21.9834
   4   2.0000      -0.605801       -16.4847
   5   2.0000      -0.549591       -14.9551
   6   2.0000      -0.529264       -14.4020
   7   2.0000      -0.431178       -11.7329
   8   2.0000      -0.371999       -10.1226
   9   0.0000       0.079793         2.1713
  10   0.0000       0.117024         3.1844
  11   0.0000       0.150542         4.0965
  12   0.0000       0.177480         4.8295
  13   0.0000       0.191476         5.2103

MULLIKEN ATOMIC CHARGES
-----------------------
   0 C :   -0.001251
   1 O :   -0.002329
   2 H :    0.000718
   3 H :    0.000041
   4 H :    0.000012
   5 H :    0.000042
   6 C :   -0.154360
   7 O :   -0.495578
   8 H :    0.310956
   9 H :    0.110453
  10 H :    0.125478
  11 H :    0.105817
Sum of atomic charges:   -0.0000000

LOEWDIN ATOMIC CHARGES
----------------------
   0 C :   -0.000353
   1 O :   -0.004720
   2 H :   -0.001853
   3 H :   -0.000007
   4 H :   -0.000013
   5 H :   -0.000007
   6 C :   -0.334869
   7 O :   -0.096556
   8 H :    0.150810
   9 H :    0.095412
  10 H :    0.099734
  11 H :    0.092423

  Mayer bond orders larger than 0.1
B(  6-C ,  7-O ) :   0.9824 B(  6-C ,  9-H ) :   0.9866 B(  6-C , 10-H ) :   0.9694
B(  6-C , 11-H ) :   0.9760 B(  7-O ,  8-H ) :   0.9027

Dispersion correction           -0.000234299
FINAL SINGLE POINT ENERGY      -115.730987601960

DIPOLE MOMENT
-------------
                                X             Y             Z
Electronic contribution:     -0.18078       1.49980      -0.78476
Nuclear contribution   :      0.69707      -1.78172       1.15964
                        -----------------------------------------
Total Dipole Moment    :      0.51629      -0.28192       0.37488
                        -----------------------------------------
Magnitude (a.u.)       :      0.69754
Magnitude (Debye)      :      1.77301

Rotational constants in cm-1:     4.581737     0.804316     0.779913
Rotational constants in MHz : 137357.010494 24112.800300 23381.199884

                             ****ORCA TERMINATED NORMALLY****
TOTAL RUN TIME: 0 days 0 hours 6 minutes 26 seconds 244 msec
