                         Program Version 4.1.2  - RELEASE  -
|  1> #Run DFT-D3 single point of the dimer
|  2> ! wB97X-D3 def2-TZVP TIGHTSCF CHELPG PMODEL PAL8
|  3>
|  4> %base "18-145_DFT_AB"
|  5>
|  6> %scf
|  7> MaxIter 1000
|  8> end
|  9>
| 10> * xyz 0 1
| 11>   C                      -2.842685            3.477370             9.832134
| 12>   O                      -2.659729            4.454011             8.772866
| 13>   H                      -3.537312            4.885008             8.687711
| 14>   H                      -3.533470            2.727091             9.585934
| 15>   H                      -1.929909            3.003346             10.104780
| 16>   H                      -3.244043            4.038388             10.664281
| 17>   C                      -6.849327            5.900946             10.276763
| 18>   O                      -5.890227            5.057906             9.653911
| 19>   H                      -5.917973            4.155875             10.080686
| 20>   H                      -6.510289            6.982825             10.201999
| 21>   H                      -7.892018            5.787008             9.886202
| 22>   H                      -6.863436            5.714866             11.335053
| 23> *
| 24>
| 25> #Run DFT-D3 single point of the molecule with dimer basis set
| 26> $new_job
| 27> %base "18-145_DFT_A"
| 28> ! wB97X-D3 def2-TZVP TIGHTSCF CHELPG PMODEL
| 29>
| 30> %scf
| 31> MaxIter 1000
| 32> end
| 33>
| 34> * xyz 0 1
| 35>   C                      -2.842685            3.477370             9.832134
| 36>   O                      -2.659729            4.454011             8.772866
| 37>   H                      -3.537312            4.885008             8.687711
| 38>   H                      -3.533470            2.727091             9.585934
| 39>   H                      -1.929909            3.003346             10.104780
| 40>   H                      -3.244043            4.038388             10.664281
| 41>   C                    : -6.849327            5.900946             10.276763
| 42>   O                    : -5.890227            5.057906             9.653911
| 43>   H                    : -5.917973            4.155875             10.080686
| 44>   H                    : -6.510289            6.982825             10.201999
| 45>   H                    : -7.892018            5.787008             9.886202
| 46>   H                    : -6.863436            5.714866             11.335053
| 47> *
| 48>
| 49> #Run DFT-D3 single point of the particle with dimer basis set
| 50> $new_job
| 51> %base "18-145_DFT_B"
| 52> ! wB97X-D3 def2-TZVP TIGHTSCF CHELPG PMODEL
| 53>
| 54> %scf
| 55> MaxIter 1000
| 56> end
| 57>
| 58> * xyz 0 1
| 59>   C                    : -2.842685            3.477370             9.832134
| 60>   O                    : -2.659729            4.454011             8.772866
| 61>   H                    : -3.537312            4.885008             8.687711
| 62>   H                    : -3.533470            2.727091             9.585934
| 63>   H                    : -1.929909            3.003346             10.104780
| 64>   H                    : -3.244043            4.038388             10.664281
| 65>   C                      -6.849327            5.900946             10.276763
| 66>   O                      -5.890227            5.057906             9.653911
| 67>   H                      -5.917973            4.155875             10.080686
| 68>   H                      -6.510289            6.982825             10.201999
| 69>   H                      -7.892018            5.787008             9.886202
| 70>   H                      -6.863436            5.714866             11.335053
| 71> *
| 72>
| 73>                          ****END OF INPUT****
 Total Charge           Charge          ....    0
 Multiplicity           Mult            ....    1
 Number of Electrons    NEL             ....   36
Dispersion correction           -0.001778758
FINAL SINGLE POINT ENERGY      -231.470153109484
Dispersion correction           -0.000223979
FINAL SINGLE POINT ENERGY      -115.731899958110

CARTESIAN COORDINATES (ANGSTROEM)
---------------------------------
  C     -2.842685    3.477370    9.832134
  O     -2.659729    4.454011    8.772866
  H     -3.537312    4.885008    8.687711
  H     -3.533470    2.727091    9.585934
  H     -1.929909    3.003346   10.104780
  H     -3.244043    4.038388   10.664281
  C     -6.849327    5.900946   10.276763
  O     -5.890227    5.057906    9.653911
  H     -5.917973    4.155875   10.080686
  H     -6.510289    6.982825   10.201999
  H     -7.892018    5.787008    9.886202
  H     -6.863436    5.714866   11.335053

 Multiplicity           Mult            ....    1
 Number of Electrons    NEL             ....   18
 Basis Dimension        Dim             ....  172

ORBITAL ENERGIES
----------------

  NO   OCC          E(Eh)            E(eV)
   0   2.0000     -19.235287      -523.4188
   1   2.0000     -10.318851      -280.7902
   2   2.0000      -1.127764       -30.6880
   3   2.0000      -0.789936       -21.4953
   4   2.0000      -0.607399       -16.5282
   5   2.0000      -0.540726       -14.7139
   6   2.0000      -0.521306       -14.1855
   7   2.0000      -0.428288       -11.6543
   8   2.0000      -0.375285       -10.2120
   9   0.0000       0.086826         2.3627
  10   0.0000       0.127224         3.4619
  11   0.0000       0.150180         4.0866
  12   0.0000       0.177637         4.8337
  13   0.0000       0.199941         5.4407

MULLIKEN ATOMIC CHARGES
-----------------------
   0 C :    0.002680
   1 O :    0.000786
   2 H :   -0.005498
   3 H :   -0.000384
   4 H :   -0.000543
   5 H :   -0.008160
   6 C :   -0.176576
   7 O :   -0.467633
   8 H :    0.320506
   9 H :    0.119976
  10 H :    0.104337
  11 H :    0.110508
Sum of atomic charges:   -0.0000000

LOEWDIN ATOMIC CHARGES
----------------------
   0 C :   -0.006311
   1 O :   -0.000785
   2 H :   -0.011193
   3 H :   -0.000680
   4 H :   -0.000074
   5 H :   -0.004048
   6 C :   -0.391374
   7 O :   -0.084011
   8 H :    0.192380
   9 H :    0.116145
  10 H :    0.099091
  11 H :    0.090860

  Mayer bond orders larger than 0.1
B(  6-C ,  7-O ) :   0.9994 B(  6-C ,  9-H ) :   0.9739 B(  6-C , 10-H ) :   0.9654
B(  6-C , 11-H ) :   0.9800 B(  7-O ,  8-H ) :   0.8888

Dispersion correction           -0.000259930
FINAL SINGLE POINT ENERGY      -115.732931422557

DIPOLE MOMENT
-------------
                                X             Y             Z
Electronic contribution:      1.21787      -1.01215      -0.93555
Nuclear contribution   :     -1.61496       0.78393       1.48778
                        -----------------------------------------
Total Dipole Moment    :     -0.39709      -0.22822       0.55223
                        -----------------------------------------
Magnitude (a.u.)       :      0.71745
Magnitude (Debye)      :      1.82360

Rotational constants in cm-1:     4.174951     0.814073     0.787971
Rotational constants in MHz : 125161.869482 24405.283477 23622.781105

                             ****ORCA TERMINATED NORMALLY****
TOTAL RUN TIME: 0 days 0 hours 0 minutes 56 seconds 53 msec
