                         Program Version 4.1.2  - RELEASE  -
|  1> #Run DFT-D3 single point of the dimer
|  2> ! wB97X-D3 def2-TZVP TIGHTSCF CHELPG PMODEL PAL8
|  3>
|  4> %base "2-73_DFT_AB"
|  5>
|  6> %scf
|  7> MaxIter 1000
|  8> end
|  9>
| 10> * xyz 0 1
| 11>   C                      -6.296488            0.198913             2.792889
| 12>   O                      -6.461516            -0.521665            1.555688
| 13>   H                      -5.961074            -1.353102            1.626890
| 14>   H                      -6.761771            -0.381322            3.663012
| 15>   H                      -5.261582            0.262228             3.149411
| 16>   H                      -6.779186            1.233509             2.736756
| 17>   C                      -4.551905            3.285619             2.466229
| 18>   O                      -4.035820            2.159507             1.757362
| 19>   H                      -3.078648            1.998050             1.951983
| 20>   H                      -4.499175            3.252960             3.591378
| 21>   H                      -4.053879            4.191715             2.127110
| 22>   H                      -5.564716            3.320725             2.280151
| 23> *
| 24>
| 25> #Run DFT-D3 single point of the molecule with dimer basis set
| 26> $new_job
| 27> %base "2-73_DFT_A"
| 28> ! wB97X-D3 def2-TZVP TIGHTSCF CHELPG PMODEL
| 29>
| 30> %scf
| 31> MaxIter 1000
| 32> end
| 33>
| 34> * xyz 0 1
| 35>   C                      -6.296488            0.198913             2.792889
| 36>   O                      -6.461516            -0.521665            1.555688
| 37>   H                      -5.961074            -1.353102            1.626890
| 38>   H                      -6.761771            -0.381322            3.663012
| 39>   H                      -5.261582            0.262228             3.149411
| 40>   H                      -6.779186            1.233509             2.736756
| 41>   C                    : -4.551905            3.285619             2.466229
| 42>   O                    : -4.035820            2.159507             1.757362
| 43>   H                    : -3.078648            1.998050             1.951983
| 44>   H                    : -4.499175            3.252960             3.591378
| 45>   H                    : -4.053879            4.191715             2.127110
| 46>   H                    : -5.564716            3.320725             2.280151
| 47> *
| 48>
| 49> #Run DFT-D3 single point of the particle with dimer basis set
| 50> $new_job
| 51> %base "2-73_DFT_B"
| 52> ! wB97X-D3 def2-TZVP TIGHTSCF CHELPG PMODEL
| 53>
| 54> %scf
| 55> MaxIter 1000
| 56> end
| 57>
| 58> * xyz 0 1
| 59>   C                    : -6.296488            0.198913             2.792889
| 60>   O                    : -6.461516            -0.521665            1.555688
| 61>   H                    : -5.961074            -1.353102            1.626890
| 62>   H                    : -6.761771            -0.381322            3.663012
| 63>   H                    : -5.261582            0.262228             3.149411
| 64>   H                    : -6.779186            1.233509             2.736756
| 65>   C                      -4.551905            3.285619             2.466229
| 66>   O                      -4.035820            2.159507             1.757362
| 67>   H                      -3.078648            1.998050             1.951983
| 68>   H                      -4.499175            3.252960             3.591378
| 69>   H                      -4.053879            4.191715             2.127110
| 70>   H                      -5.564716            3.320725             2.280151
| 71> *
| 72>
| 73>                          ****END OF INPUT****
 Total Charge           Charge          ....    0
 Multiplicity           Mult            ....    1
 Number of Electrons    NEL             ....   36
Dispersion correction           -0.002111338
FINAL SINGLE POINT ENERGY      -231.462100781030
Dispersion correction           -0.000270371
FINAL SINGLE POINT ENERGY      -115.730899425288

CARTESIAN COORDINATES (ANGSTROEM)
---------------------------------
  C     -6.296488    0.198913    2.792889
  O     -6.461516   -0.521665    1.555688
  H     -5.961074   -1.353102    1.626890
  H     -6.761771   -0.381322    3.663012
  H     -5.261582    0.262228    3.149411
  H     -6.779186    1.233509    2.736756
  C     -4.551905    3.285619    2.466229
  O     -4.035820    2.159507    1.757362
  H     -3.078648    1.998050    1.951983
  H     -4.499175    3.252960    3.591378
  H     -4.053879    4.191715    2.127110
  H     -5.564716    3.320725    2.280151

 Multiplicity           Mult            ....    1
 Number of Electrons    NEL             ....   18
 Basis Dimension        Dim             ....  172

ORBITAL ENERGIES
----------------

  NO   OCC          E(Eh)            E(eV)
   0   2.0000     -19.232601      -523.3457
   1   2.0000     -10.310235      -280.5558
   2   2.0000      -1.124396       -30.5964
   3   2.0000      -0.800213       -21.7749
   4   2.0000      -0.605610       -16.4795
   5   2.0000      -0.544960       -14.8291
   6   2.0000      -0.522792       -14.2259
   7   2.0000      -0.431869       -11.7517
   8   2.0000      -0.373707       -10.1691
   9   0.0000       0.094217         2.5638
  10   0.0000       0.124786         3.3956
  11   0.0000       0.146977         3.9994
  12   0.0000       0.183214         4.9855
  13   0.0000       0.187724         5.1082

MULLIKEN ATOMIC CHARGES
-----------------------
   0 C :    0.020074
   1 O :   -0.001436
   2 H :   -0.000383
   3 H :   -0.000202
   4 H :   -0.018777
   5 H :   -0.003067
   6 C :   -0.163573
   7 O :   -0.489250
   8 H :    0.316946
   9 H :    0.099561
  10 H :    0.108564
  11 H :    0.131543
Sum of atomic charges:    0.0000000

LOEWDIN ATOMIC CHARGES
----------------------
   0 C :   -0.013666
   1 O :   -0.000402
   2 H :   -0.000150
   3 H :   -0.000109
   4 H :   -0.009240
   5 H :   -0.002829
   6 C :   -0.368910
   7 O :   -0.081550
   8 H :    0.182788
   9 H :    0.101387
  10 H :    0.096407
  11 H :    0.096273

  Mayer bond orders larger than 0.1
B(  6-C ,  7-O ) :   0.9940 B(  6-C ,  9-H ) :   0.9701 B(  6-C , 10-H ) :   0.9758
B(  6-C , 11-H ) :   0.9759 B(  7-O ,  8-H ) :   0.8914

Dispersion correction           -0.000267673
FINAL SINGLE POINT ENERGY      -115.732060097246

DIPOLE MOMENT
-------------
                                X             Y             Z
Electronic contribution:      0.50594      -1.41999      -0.99892
Nuclear contribution   :     -0.13437       1.79107       1.39326
                        -----------------------------------------
Total Dipole Moment    :      0.37158       0.37108       0.39434
                        -----------------------------------------
Magnitude (a.u.)       :      0.65671
Magnitude (Debye)      :      1.66923

Rotational constants in cm-1:     4.409527     0.808586     0.786306
Rotational constants in MHz : 132194.285538 24240.800984 23572.854935

                             ****ORCA TERMINATED NORMALLY****
TOTAL RUN TIME: 0 days 0 hours 5 minutes 55 seconds 300 msec
