                         Program Version 4.1.2  - RELEASE  -
|  1> #Run DFT-D3 single point of the dimer
|  2> ! wB97X-D3 def2-TZVP TIGHTSCF CHELPG PMODEL PAL8
|  3>
|  4> %base "1-18_DFT_AB"
|  5>
|  6> %scf
|  7> MaxIter 1000
|  8> end
|  9>
| 10> * xyz 0 1
| 11>   C                      -2.881200            5.269052             1.066537
| 12>   O                      -2.445104            4.075524             0.341486
| 13>   H                      -2.756895            4.205874             -0.534556
| 14>   H                      -3.832270            5.165989             1.402556
| 15>   H                      -2.191036            5.618454             1.900053
| 16>   H                      -2.957396            6.094008             0.292697
| 17>   C                      -5.673843            9.678529             0.887699
| 18>   O                      -5.079798            8.484025             1.211510
| 19>   H                      -4.231268            8.659638             1.607767
| 20>   H                      -5.775124            10.359576            1.647475
| 21>   H                      -5.041630            10.146954            0.099919
| 22>   H                      -6.710823            9.493351             0.457744
| 23> *
| 24>
| 25> #Run DFT-D3 single point of the molecule with dimer basis set
| 26> $new_job
| 27> %base "1-18_DFT_A"
| 28> ! wB97X-D3 def2-TZVP TIGHTSCF CHELPG PMODEL
| 29>
| 30> %scf
| 31> MaxIter 1000
| 32> end
| 33>
| 34> * xyz 0 1
| 35>   C                      -2.881200            5.269052             1.066537
| 36>   O                      -2.445104            4.075524             0.341486
| 37>   H                      -2.756895            4.205874             -0.534556
| 38>   H                      -3.832270            5.165989             1.402556
| 39>   H                      -2.191036            5.618454             1.900053
| 40>   H                      -2.957396            6.094008             0.292697
| 41>   C                    : -5.673843            9.678529             0.887699
| 42>   O                    : -5.079798            8.484025             1.211510
| 43>   H                    : -4.231268            8.659638             1.607767
| 44>   H                    : -5.775124            10.359576            1.647475
| 45>   H                    : -5.041630            10.146954            0.099919
| 46>   H                    : -6.710823            9.493351             0.457744
| 47> *
| 48>
| 49> #Run DFT-D3 single point of the particle with dimer basis set
| 50> $new_job
| 51> %base "1-18_DFT_B"
| 52> ! wB97X-D3 def2-TZVP TIGHTSCF CHELPG PMODEL
| 53>
| 54> %scf
| 55> MaxIter 1000
| 56> end
| 57>
| 58> * xyz 0 1
| 59>   C                    : -2.881200            5.269052             1.066537
| 60>   O                    : -2.445104            4.075524             0.341486
| 61>   H                    : -2.756895            4.205874             -0.534556
| 62>   H                    : -3.832270            5.165989             1.402556
| 63>   H                    : -2.191036            5.618454             1.900053
| 64>   H                    : -2.957396            6.094008             0.292697
| 65>   C                      -5.673843            9.678529             0.887699
| 66>   O                      -5.079798            8.484025             1.211510
| 67>   H                      -4.231268            8.659638             1.607767
| 68>   H                      -5.775124            10.359576            1.647475
| 69>   H                      -5.041630            10.146954            0.099919
| 70>   H                      -6.710823            9.493351             0.457744
| 71> *
| 72>
| 73>                          ****END OF INPUT****
 Total Charge           Charge          ....    0
 Multiplicity           Mult            ....    1
 Number of Electrons    NEL             ....   36
Dispersion correction           -0.001098199
FINAL SINGLE POINT ENERGY      -231.455920764322
Dispersion correction           -0.000244874
FINAL SINGLE POINT ENERGY      -115.724526019936

CARTESIAN COORDINATES (ANGSTROEM)
---------------------------------
  C     -2.881200    5.269052    1.066537
  O     -2.445104    4.075524    0.341486
  H     -2.756895    4.205874   -0.534556
  H     -3.832270    5.165989    1.402556
  H     -2.191036    5.618454    1.900053
  H     -2.957396    6.094008    0.292697
  C     -5.673843    9.678529    0.887699
  O     -5.079798    8.484025    1.211510
  H     -4.231268    8.659638    1.607767
  H     -5.775124   10.359576    1.647475
  H     -5.041630   10.146954    0.099919
  H     -6.710823    9.493351    0.457744

 Multiplicity           Mult            ....    1
 Number of Electrons    NEL             ....   18
 Basis Dimension        Dim             ....  172

ORBITAL ENERGIES
----------------

  NO   OCC          E(Eh)            E(eV)
   0   2.0000     -19.228928      -523.2457
   1   2.0000     -10.308548      -280.5098
   2   2.0000      -1.150934       -31.3185
   3   2.0000      -0.795950       -21.6589
   4   2.0000      -0.624442       -16.9919
   5   2.0000      -0.549397       -14.9499
   6   2.0000      -0.528497       -14.3811
   7   2.0000      -0.430312       -11.7094
   8   2.0000      -0.370657       -10.0861
   9   0.0000       0.088280         2.4022
  10   0.0000       0.121807         3.3145
  11   0.0000       0.153708         4.1826
  12   0.0000       0.178642         4.8611
  13   0.0000       0.198184         5.3929

MULLIKEN ATOMIC CHARGES
-----------------------
   0 C :    0.002036
   1 O :   -0.000034
   2 H :   -0.000001
   3 H :   -0.001406
   4 H :   -0.000118
   5 H :   -0.003929
   6 C :   -0.155753
   7 O :   -0.464720
   8 H :    0.316305
   9 H :    0.105966
  10 H :    0.091093
  11 H :    0.110561
Sum of atomic charges:   -0.0000000

LOEWDIN ATOMIC CHARGES
----------------------
   0 C :   -0.001798
   1 O :   -0.000017
   2 H :   -0.000002
   3 H :   -0.000670
   4 H :   -0.000040
   5 H :   -0.001940
   6 C :   -0.412544
   7 O :   -0.042082
   8 H :    0.168356
   9 H :    0.075329
  10 H :    0.097145
  11 H :    0.118263

  Mayer bond orders larger than 0.1
B(  6-C ,  7-O ) :   1.0005 B(  6-C ,  9-H ) :   0.9700 B(  6-C , 10-H ) :   0.9889
B(  6-C , 11-H ) :   0.9721 B(  7-O ,  8-H ) :   0.8952

Dispersion correction           -0.000215787
FINAL SINGLE POINT ENERGY      -115.730177639229

DIPOLE MOMENT
-------------
                                X             Y             Z
Electronic contribution:      0.65316      -1.60928       0.55181
Nuclear contribution   :     -0.34108       2.18464      -0.38951
                        -----------------------------------------
Total Dipole Moment    :      0.31208       0.57536       0.16229
                        -----------------------------------------
Magnitude (a.u.)       :      0.67437
Magnitude (Debye)      :      1.71411

Rotational constants in cm-1:     4.342335     0.875375     0.837329
Rotational constants in MHz : 130179.924704 26243.085796 25102.492495

                             ****ORCA TERMINATED NORMALLY****
TOTAL RUN TIME: 0 days 0 hours 6 minutes 2 seconds 716 msec
