                         Program Version 4.1.2  - RELEASE  -
|  1> #Run DFT-D3 single point of the dimer
|  2> ! wB97X-D3 def2-TZVP TIGHTSCF CHELPG PMODEL PAL8
|  3>
|  4> %base "1-130_DFT_AB"
|  5>
|  6> %scf
|  7> MaxIter 1000
|  8> end
|  9>
| 10> * xyz 0 1
| 11>   C                      8.306979             -1.199292            -5.182348
| 12>   O                      7.537905             -1.703815            -6.246899
| 13>   H                      7.832907             -1.390369            -7.097220
| 14>   H                      8.184739             -0.143854            -5.200148
| 15>   H                      8.096430             -1.585496            -4.205000
| 16>   H                      9.355720             -1.370345            -5.333518
| 17>   C                      9.157100             2.402811             -6.691442
| 18>   O                      9.237402             1.357602             -5.794396
| 19>   H                      9.548221             1.587580             -4.903882
| 20>   H                      8.754190             3.291176             -6.171335
| 21>   H                      10.147818            2.677296             -7.054864
| 22>   H                      8.529204             2.090750             -7.562426
| 23> *
| 24>
| 25> #Run DFT-D3 single point of the molecule with dimer basis set
| 26> $new_job
| 27> %base "1-130_DFT_A"
| 28> ! wB97X-D3 def2-TZVP TIGHTSCF CHELPG PMODEL
| 29>
| 30> %scf
| 31> MaxIter 1000
| 32> end
| 33>
| 34> * xyz 0 1
| 35>   C                      8.306979             -1.199292            -5.182348
| 36>   O                      7.537905             -1.703815            -6.246899
| 37>   H                      7.832907             -1.390369            -7.097220
| 38>   H                      8.184739             -0.143854            -5.200148
| 39>   H                      8.096430             -1.585496            -4.205000
| 40>   H                      9.355720             -1.370345            -5.333518
| 41>   C                    : 9.157100             2.402811             -6.691442
| 42>   O                    : 9.237402             1.357602             -5.794396
| 43>   H                    : 9.548221             1.587580             -4.903882
| 44>   H                    : 8.754190             3.291176             -6.171335
| 45>   H                    : 10.147818            2.677296             -7.054864
| 46>   H                    : 8.529204             2.090750             -7.562426
| 47> *
| 48>
| 49> #Run DFT-D3 single point of the particle with dimer basis set
| 50> $new_job
| 51> %base "1-130_DFT_B"
| 52> ! wB97X-D3 def2-TZVP TIGHTSCF CHELPG PMODEL
| 53>
| 54> %scf
| 55> MaxIter 1000
| 56> end
| 57>
| 58> * xyz 0 1
| 59>   C                    : 8.306979             -1.199292            -5.182348
| 60>   O                    : 7.537905             -1.703815            -6.246899
| 61>   H                    : 7.832907             -1.390369            -7.097220
| 62>   H                    : 8.184739             -0.143854            -5.200148
| 63>   H                    : 8.096430             -1.585496            -4.205000
| 64>   H                    : 9.355720             -1.370345            -5.333518
| 65>   C                      9.157100             2.402811             -6.691442
| 66>   O                      9.237402             1.357602             -5.794396
| 67>   H                      9.548221             1.587580             -4.903882
| 68>   H                      8.754190             3.291176             -6.171335
| 69>   H                      10.147818            2.677296             -7.054864
| 70>   H                      8.529204             2.090750             -7.562426
| 71> *
| 72>
| 73>                          ****END OF INPUT****
 Total Charge           Charge          ....    0
 Multiplicity           Mult            ....    1
 Number of Electrons    NEL             ....   36
Dispersion correction           -0.001848554
FINAL SINGLE POINT ENERGY      -231.459642533591
Dispersion correction           -0.000227317
FINAL SINGLE POINT ENERGY      -115.731273694595

CARTESIAN COORDINATES (ANGSTROEM)
---------------------------------
  C      8.306979   -1.199292   -5.182348
  O      7.537905   -1.703815   -6.246899
  H      7.832907   -1.390369   -7.097220
  H      8.184739   -0.143854   -5.200148
  H      8.096430   -1.585496   -4.205000
  H      9.355720   -1.370345   -5.333518
  C      9.157100    2.402811   -6.691442
  O      9.237402    1.357602   -5.794396
  H      9.548221    1.587580   -4.903882
  H      8.754190    3.291176   -6.171335
  H     10.147818    2.677296   -7.054864
  H      8.529204    2.090750   -7.562426

 Multiplicity           Mult            ....    1
 Number of Electrons    NEL             ....   18
 Basis Dimension        Dim             ....  172

ORBITAL ENERGIES
----------------

  NO   OCC          E(Eh)            E(eV)
   0   2.0000     -19.227059      -523.1949
   1   2.0000     -10.314053      -280.6597
   2   2.0000      -1.140299       -31.0291
   3   2.0000      -0.793466       -21.5913
   4   2.0000      -0.616690       -16.7810
   5   2.0000      -0.542413       -14.7598
   6   2.0000      -0.533834       -14.5263
   7   2.0000      -0.422455       -11.4956
   8   2.0000      -0.367933       -10.0120
   9   0.0000       0.098001         2.6667
  10   0.0000       0.131874         3.5885
  11   0.0000       0.148639         4.0447
  12   0.0000       0.178172         4.8483
  13   0.0000       0.203837         5.5467

MULLIKEN ATOMIC CHARGES
-----------------------
   0 C :    0.028380
   1 O :   -0.001222
   2 H :   -0.001805
   3 H :   -0.030876
   4 H :   -0.000753
   5 H :   -0.008416
   6 C :   -0.129270
   7 O :   -0.479702
   8 H :    0.321663
   9 H :    0.092466
  10 H :    0.090070
  11 H :    0.119464
Sum of atomic charges:   -0.0000000

LOEWDIN ATOMIC CHARGES
----------------------
   0 C :   -0.028155
   1 O :   -0.000148
   2 H :   -0.000518
   3 H :   -0.040894
   4 H :   -0.000306
   5 H :   -0.004452
   6 C :   -0.404323
   7 O :   -0.002896
   8 H :    0.179390
   9 H :    0.096285
  10 H :    0.091170
  11 H :    0.114846

  Mayer bond orders larger than 0.1
B(  6-C ,  7-O ) :   0.9914 B(  6-C ,  9-H ) :   0.9826 B(  6-C , 10-H ) :   0.9726
B(  6-C , 11-H ) :   0.9734 B(  7-O ,  8-H ) :   0.8850

Dispersion correction           -0.000236655
FINAL SINGLE POINT ENERGY      -115.734071440281

DIPOLE MOMENT
-------------
                                X             Y             Z
Electronic contribution:      0.04195      -1.41174       1.02762
Nuclear contribution   :      0.13785       1.97989      -0.79452
                        -----------------------------------------
Total Dipole Moment    :      0.17980       0.56815       0.23310
                        -----------------------------------------
Magnitude (a.u.)       :      0.63989
Magnitude (Debye)      :      1.62647

Rotational constants in cm-1:     4.254415     0.861728     0.824635
Rotational constants in MHz : 127544.155030 25833.958948 24721.938128

                             ****ORCA TERMINATED NORMALLY****
TOTAL RUN TIME: 0 days 0 hours 5 minutes 38 seconds 650 msec
