                         Program Version 4.1.2  - RELEASE  -
|  1> #Run DFT-D3 single point of the dimer
|  2> ! wB97X-D3 def2-TZVP TIGHTSCF CHELPG PMODEL PAL8
|  3>
|  4> %base "8-182_DFT_AB"
|  5>
|  6> %scf
|  7> MaxIter 1000
|  8> end
|  9>
| 10> * xyz 0 1
| 11>   C                      -3.902687            -2.047055            -9.767899
| 12>   O                      -3.783327            -2.023162            -8.364810
| 13>   H                      -4.423023            -2.616315            -8.035842
| 14>   H                      -3.310654            -1.327274            -10.263219
| 15>   H                      -3.476127            -2.942526            -10.229169
| 16>   H                      -4.961791            -1.855243            -10.025167
| 17>   C                      -5.723827            -4.420740            -6.893500
| 18>   O                      -5.543455            -4.072141            -8.256521
| 19>   H                      -5.341087            -4.846862            -8.759427
| 20>   H                      -4.835925            -4.954805            -6.632402
| 21>   H                      -5.821917            -3.488937            -6.411756
| 22>   H                      -6.684576            -4.909651            -6.795096
| 23> *
| 24>
| 25> #Run DFT-D3 single point of the molecule with dimer basis set
| 26> $new_job
| 27> %base "8-182_DFT_A"
| 28> ! wB97X-D3 def2-TZVP TIGHTSCF CHELPG PMODEL
| 29>
| 30> %scf
| 31> MaxIter 1000
| 32> end
| 33>
| 34> * xyz 0 1
| 35>   C                      -3.902687            -2.047055            -9.767899
| 36>   O                      -3.783327            -2.023162            -8.364810
| 37>   H                      -4.423023            -2.616315            -8.035842
| 38>   H                      -3.310654            -1.327274            -10.263219
| 39>   H                      -3.476127            -2.942526            -10.229169
| 40>   H                      -4.961791            -1.855243            -10.025167
| 41>   C                    : -5.723827            -4.420740            -6.893500
| 42>   O                    : -5.543455            -4.072141            -8.256521
| 43>   H                    : -5.341087            -4.846862            -8.759427
| 44>   H                    : -4.835925            -4.954805            -6.632402
| 45>   H                    : -5.821917            -3.488937            -6.411756
| 46>   H                    : -6.684576            -4.909651            -6.795096
| 47> *
| 48>
| 49> #Run DFT-D3 single point of the particle with dimer basis set
| 50> $new_job
| 51> %base "8-182_DFT_B"
| 52> ! wB97X-D3 def2-TZVP TIGHTSCF CHELPG PMODEL
| 53>
| 54> %scf
| 55> MaxIter 1000
| 56> end
| 57>
| 58> * xyz 0 1
| 59>   C                    : -3.902687            -2.047055            -9.767899
| 60>   O                    : -3.783327            -2.023162            -8.364810
| 61>   H                    : -4.423023            -2.616315            -8.035842
| 62>   H                    : -3.310654            -1.327274            -10.263219
| 63>   H                    : -3.476127            -2.942526            -10.229169
| 64>   H                    : -4.961791            -1.855243            -10.025167
| 65>   C                      -5.723827            -4.420740            -6.893500
| 66>   O                      -5.543455            -4.072141            -8.256521
| 67>   H                      -5.341087            -4.846862            -8.759427
| 68>   H                      -4.835925            -4.954805            -6.632402
| 69>   H                      -5.821917            -3.488937            -6.411756
| 70>   H                      -6.684576            -4.909651            -6.795096
| 71> *
| 72>
| 73>                          ****END OF INPUT****
 Total Charge           Charge          ....    0
 Multiplicity           Mult            ....    1
 Number of Electrons    NEL             ....   36
Dispersion correction           -0.002057743
FINAL SINGLE POINT ENERGY      -231.468512619063
Dispersion correction           -0.000232750
FINAL SINGLE POINT ENERGY      -115.731686483166

CARTESIAN COORDINATES (ANGSTROEM)
---------------------------------
  C     -3.902687   -2.047055   -9.767899
  O     -3.783327   -2.023162   -8.364810
  H     -4.423023   -2.616315   -8.035842
  H     -3.310654   -1.327274  -10.263219
  H     -3.476127   -2.942526  -10.229169
  H     -4.961791   -1.855243  -10.025167
  C     -5.723827   -4.420740   -6.893500
  O     -5.543455   -4.072141   -8.256521
  H     -5.341087   -4.846862   -8.759427
  H     -4.835925   -4.954805   -6.632402
  H     -5.821917   -3.488937   -6.411756
  H     -6.684576   -4.909651   -6.795096

 Multiplicity           Mult            ....    1
 Number of Electrons    NEL             ....   18
 Basis Dimension        Dim             ....  172

ORBITAL ENERGIES
----------------

  NO   OCC          E(Eh)            E(eV)
   0   2.0000     -19.220511      -523.0167
   1   2.0000     -10.304316      -280.3947
   2   2.0000      -1.134167       -30.8623
   3   2.0000      -0.800967       -21.7954
   4   2.0000      -0.605039       -16.4640
   5   2.0000      -0.559804       -15.2330
   6   2.0000      -0.527335       -14.3495
   7   2.0000      -0.428891       -11.6707
   8   2.0000      -0.371595       -10.1116
   9   0.0000       0.099519         2.7081
  10   0.0000       0.133466         3.6318
  11   0.0000       0.158141         4.3032
  12   0.0000       0.189898         5.1674
  13   0.0000       0.201031         5.4703

MULLIKEN ATOMIC CHARGES
-----------------------
   0 C :    0.007379
   1 O :   -0.001733
   2 H :   -0.001622
   3 H :   -0.000423
   4 H :   -0.004461
   5 H :   -0.005060
   6 C :   -0.155099
   7 O :   -0.489337
   8 H :    0.308238
   9 H :    0.111264
  10 H :    0.121940
  11 H :    0.108915
Sum of atomic charges:    0.0000000

LOEWDIN ATOMIC CHARGES
----------------------
   0 C :   -0.017927
   1 O :   -0.009407
   2 H :   -0.043548
   3 H :   -0.000251
   4 H :   -0.002058
   5 H :   -0.003350
   6 C :   -0.355846
   7 O :   -0.022952
   8 H :    0.155057
   9 H :    0.097043
  10 H :    0.105089
  11 H :    0.098150

  Mayer bond orders larger than 0.1
B(  6-C ,  7-O ) :   0.9678 B(  6-C ,  9-H ) :   0.9851 B(  6-C , 10-H ) :   0.9815
B(  6-C , 11-H ) :   0.9732 B(  7-O ,  8-H ) :   0.9028

Dispersion correction           -0.000205873
FINAL SINGLE POINT ENERGY      -115.731547187413

DIPOLE MOMENT
-------------
                                X             Y             Z
Electronic contribution:      0.20789       0.45190      -1.45024
Nuclear contribution   :     -0.16304      -1.07462       1.70402
                        -----------------------------------------
Total Dipole Moment    :      0.04486      -0.62272       0.25378
                        -----------------------------------------
Magnitude (a.u.)       :      0.67394
Magnitude (Debye)      :      1.71301

Rotational constants in cm-1:     4.299878     0.848863     0.825431
Rotational constants in MHz : 128907.097177 25448.272128 24745.810145

                             ****ORCA TERMINATED NORMALLY****
TOTAL RUN TIME: 0 days 0 hours 0 minutes 48 seconds 376 msec
