                         Program Version 4.1.2  - RELEASE  -
|  1> #Run DFT-D3 single point of the dimer
|  2> ! wB97X-D3 def2-TZVP TIGHTSCF CHELPG PMODEL PAL8
|  3>
|  4> %base "9-25_DFT_AB"
|  5>
|  6> %scf
|  7> MaxIter 1000
|  8> end
|  9>
| 10> * xyz 0 1
| 11>   C                      -2.236262            -7.219065            -3.038028
| 12>   O                      -2.089203            -8.488530            -3.702297
| 13>   H                      -2.620605            -8.479153            -4.503310
| 14>   H                      -1.906942            -6.405743            -3.624474
| 15>   H                      -3.225869            -6.961767            -2.730361
| 16>   H                      -1.644495            -7.133655            -2.155844
| 17>   C                      -2.321207            -5.271564            -0.117392
| 18>   O                      -1.699948            -4.236620            -0.812064
| 19>   H                      -1.067507            -3.804357            -0.260356
| 20>   H                      -3.067091            -5.682834            -0.736439
| 21>   H                      -1.643910            -6.077927            0.202816
| 22>   H                      -2.851049            -4.806668            0.717258
| 23> *
| 24>
| 25> #Run DFT-D3 single point of the molecule with dimer basis set
| 26> $new_job
| 27> %base "9-25_DFT_A"
| 28> ! wB97X-D3 def2-TZVP TIGHTSCF CHELPG PMODEL
| 29>
| 30> %scf
| 31> MaxIter 1000
| 32> end
| 33>
| 34> * xyz 0 1
| 35>   C                      -2.236262            -7.219065            -3.038028
| 36>   O                      -2.089203            -8.488530            -3.702297
| 37>   H                      -2.620605            -8.479153            -4.503310
| 38>   H                      -1.906942            -6.405743            -3.624474
| 39>   H                      -3.225869            -6.961767            -2.730361
| 40>   H                      -1.644495            -7.133655            -2.155844
| 41>   C                    : -2.321207            -5.271564            -0.117392
| 42>   O                    : -1.699948            -4.236620            -0.812064
| 43>   H                    : -1.067507            -3.804357            -0.260356
| 44>   H                    : -3.067091            -5.682834            -0.736439
| 45>   H                    : -1.643910            -6.077927            0.202816
| 46>   H                    : -2.851049            -4.806668            0.717258
| 47> *
| 48>
| 49> #Run DFT-D3 single point of the particle with dimer basis set
| 50> $new_job
| 51> %base "9-25_DFT_B"
| 52> ! wB97X-D3 def2-TZVP TIGHTSCF CHELPG PMODEL
| 53>
| 54> %scf
| 55> MaxIter 1000
| 56> end
| 57>
| 58> * xyz 0 1
| 59>   C                    : -2.236262            -7.219065            -3.038028
| 60>   O                    : -2.089203            -8.488530            -3.702297
| 61>   H                    : -2.620605            -8.479153            -4.503310
| 62>   H                    : -1.906942            -6.405743            -3.624474
| 63>   H                    : -3.225869            -6.961767            -2.730361
| 64>   H                    : -1.644495            -7.133655            -2.155844
| 65>   C                      -2.321207            -5.271564            -0.117392
| 66>   O                      -1.699948            -4.236620            -0.812064
| 67>   H                      -1.067507            -3.804357            -0.260356
| 68>   H                      -3.067091            -5.682834            -0.736439
| 69>   H                      -1.643910            -6.077927            0.202816
| 70>   H                      -2.851049            -4.806668            0.717258
| 71> *
| 72>
| 73>                          ****END OF INPUT****
 Total Charge           Charge          ....    0
 Multiplicity           Mult            ....    1
 Number of Electrons    NEL             ....   36
Dispersion correction           -0.001779813
FINAL SINGLE POINT ENERGY      -231.467862817973
Dispersion correction           -0.000258077
FINAL SINGLE POINT ENERGY      -115.732222417276

CARTESIAN COORDINATES (ANGSTROEM)
---------------------------------
  C     -2.236262   -7.219065   -3.038028
  O     -2.089203   -8.488530   -3.702297
  H     -2.620605   -8.479153   -4.503310
  H     -1.906942   -6.405743   -3.624474
  H     -3.225869   -6.961767   -2.730361
  H     -1.644495   -7.133655   -2.155844
  C     -2.321207   -5.271564   -0.117392
  O     -1.699948   -4.236620   -0.812064
  H     -1.067507   -3.804357   -0.260356
  H     -3.067091   -5.682834   -0.736439
  H     -1.643910   -6.077927    0.202816
  H     -2.851049   -4.806668    0.717258

 Multiplicity           Mult            ....    1
 Number of Electrons    NEL             ....   18
 Basis Dimension        Dim             ....  172

ORBITAL ENERGIES
----------------

  NO   OCC          E(Eh)            E(eV)
   0   2.0000     -19.225251      -523.1457
   1   2.0000     -10.306590      -280.4566
   2   2.0000      -1.143401       -31.1135
   3   2.0000      -0.799791       -21.7634
   4   2.0000      -0.612698       -16.6723
   5   2.0000      -0.549058       -14.9406
   6   2.0000      -0.534442       -14.5429
   7   2.0000      -0.428581       -11.6623
   8   2.0000      -0.372191       -10.1278
   9   0.0000       0.092224         2.5095
  10   0.0000       0.121677         3.3110
  11   0.0000       0.157037         4.2732
  12   0.0000       0.181498         4.9388
  13   0.0000       0.189586         5.1589

MULLIKEN ATOMIC CHARGES
-----------------------
   0 C :    0.003186
   1 O :    0.000136
   2 H :    0.000020
   3 H :   -0.001593
   4 H :   -0.000885
   5 H :    0.001262
   6 C :   -0.162382
   7 O :   -0.477664
   8 H :    0.311520
   9 H :    0.121301
  10 H :    0.098751
  11 H :    0.106349
Sum of atomic charges:    0.0000000

LOEWDIN ATOMIC CHARGES
----------------------
   0 C :   -0.007527
   1 O :   -0.000022
   2 H :   -0.000004
   3 H :   -0.000598
   4 H :   -0.003260
   5 H :   -0.003892
   6 C :   -0.387540
   7 O :   -0.054062
   8 H :    0.158119
   9 H :    0.104241
  10 H :    0.097458
  11 H :    0.097089

  Mayer bond orders larger than 0.1
B(  6-C ,  7-O ) :   0.9979 B(  6-C ,  9-H ) :   0.9748 B(  6-C , 10-H ) :   0.9732
B(  6-C , 11-H ) :   0.9859 B(  7-O ,  8-H ) :   0.9019

Dispersion correction           -0.000224301
FINAL SINGLE POINT ENERGY      -115.734614360111

DIPOLE MOMENT
-------------
                                X             Y             Z
Electronic contribution:      0.76520       1.22058      -1.00255
Nuclear contribution   :     -0.62240      -1.34597       1.61852
                        -----------------------------------------
Total Dipole Moment    :      0.14280      -0.12539       0.61597
                        -----------------------------------------
Magnitude (a.u.)       :      0.64462
Magnitude (Debye)      :      1.63849

Rotational constants in cm-1:     4.387175     0.852628     0.831813
Rotational constants in MHz : 131524.200646 25561.131007 24937.124048

                             ****ORCA TERMINATED NORMALLY****
TOTAL RUN TIME: 0 days 0 hours 0 minutes 42 seconds 344 msec
