                         Program Version 4.1.2  - RELEASE  -
|  1> #Run DFT-D3 single point of the dimer
|  2> ! wB97X-D3 def2-TZVP TIGHTSCF CHELPG PMODEL PAL8
|  3>
|  4> %base "17-110_DFT_AB"
|  5>
|  6> %scf
|  7> MaxIter 1000
|  8> end
|  9>
| 10> * xyz 0 1
| 11>   C                      3.179179             -10.939931           3.485136
| 12>   O                      3.246952             -11.712566           2.378431
| 13>   H                      4.017949             -11.518141           1.825070
| 14>   H                      3.999599             -11.078683           4.177273
| 15>   H                      3.185205             -9.884947            3.229160
| 16>   H                      2.258283             -11.102446           4.065731
| 17>   C                      5.922899             -9.080405            1.956200
| 18>   O                      5.625178             -10.309372           1.275077
| 19>   H                      6.105956             -10.299808           0.463418
| 20>   H                      6.931441             -9.160223            2.458999
| 21>   H                      5.929602             -8.197406            1.305782
| 22>   H                      5.164127             -8.764166            2.695048
| 23> *
| 24>
| 25> #Run DFT-D3 single point of the molecule with dimer basis set
| 26> $new_job
| 27> %base "17-110_DFT_A"
| 28> ! wB97X-D3 def2-TZVP TIGHTSCF CHELPG PMODEL
| 29>
| 30> %scf
| 31> MaxIter 1000
| 32> end
| 33>
| 34> * xyz 0 1
| 35>   C                      3.179179             -10.939931           3.485136
| 36>   O                      3.246952             -11.712566           2.378431
| 37>   H                      4.017949             -11.518141           1.825070
| 38>   H                      3.999599             -11.078683           4.177273
| 39>   H                      3.185205             -9.884947            3.229160
| 40>   H                      2.258283             -11.102446           4.065731
| 41>   C                    : 5.922899             -9.080405            1.956200
| 42>   O                    : 5.625178             -10.309372           1.275077
| 43>   H                    : 6.105956             -10.299808           0.463418
| 44>   H                    : 6.931441             -9.160223            2.458999
| 45>   H                    : 5.929602             -8.197406            1.305782
| 46>   H                    : 5.164127             -8.764166            2.695048
| 47> *
| 48>
| 49> #Run DFT-D3 single point of the particle with dimer basis set
| 50> $new_job
| 51> %base "17-110_DFT_B"
| 52> ! wB97X-D3 def2-TZVP TIGHTSCF CHELPG PMODEL
| 53>
| 54> %scf
| 55> MaxIter 1000
| 56> end
| 57>
| 58> * xyz 0 1
| 59>   C                    : 3.179179             -10.939931           3.485136
| 60>   O                    : 3.246952             -11.712566           2.378431
| 61>   H                    : 4.017949             -11.518141           1.825070
| 62>   H                    : 3.999599             -11.078683           4.177273
| 63>   H                    : 3.185205             -9.884947            3.229160
| 64>   H                    : 2.258283             -11.102446           4.065731
| 65>   C                      5.922899             -9.080405            1.956200
| 66>   O                      5.625178             -10.309372           1.275077
| 67>   H                      6.105956             -10.299808           0.463418
| 68>   H                      6.931441             -9.160223            2.458999
| 69>   H                      5.929602             -8.197406            1.305782
| 70>   H                      5.164127             -8.764166            2.695048
| 71> *
| 72>
| 73>                          ****END OF INPUT****
 Total Charge           Charge          ....    0
 Multiplicity           Mult            ....    1
 Number of Electrons    NEL             ....   36
Dispersion correction           -0.002160144
FINAL SINGLE POINT ENERGY      -231.474593919523
Dispersion correction           -0.000227750
FINAL SINGLE POINT ENERGY      -115.733670689439

CARTESIAN COORDINATES (ANGSTROEM)
---------------------------------
  C      3.179179  -10.939931    3.485136
  O      3.246952  -11.712566    2.378431
  H      4.017949  -11.518141    1.825070
  H      3.999599  -11.078683    4.177273
  H      3.185205   -9.884947    3.229160
  H      2.258283  -11.102446    4.065731
  C      5.922899   -9.080405    1.956200
  O      5.625178  -10.309372    1.275077
  H      6.105956  -10.299808    0.463418
  H      6.931441   -9.160223    2.458999
  H      5.929602   -8.197406    1.305782
  H      5.164127   -8.764166    2.695048

 Multiplicity           Mult            ....    1
 Number of Electrons    NEL             ....   18
 Basis Dimension        Dim             ....  172

ORBITAL ENERGIES
----------------

  NO   OCC          E(Eh)            E(eV)
   0   2.0000     -19.232432      -523.3411
   1   2.0000     -10.321232      -280.8550
   2   2.0000      -1.135201       -30.8904
   3   2.0000      -0.795712       -21.6524
   4   2.0000      -0.609624       -16.5887
   5   2.0000      -0.540999       -14.7213
   6   2.0000      -0.521673       -14.1954
   7   2.0000      -0.433212       -11.7883
   8   2.0000      -0.377320       -10.2674
   9   0.0000       0.098600         2.6830
  10   0.0000       0.128391         3.4937
  11   0.0000       0.148417         4.0386
  12   0.0000       0.194426         5.2906
  13   0.0000       0.196653         5.3512

MULLIKEN ATOMIC CHARGES
-----------------------
   0 C :    0.004746
   1 O :   -0.001053
   2 H :   -0.009899
   3 H :   -0.000796
   4 H :   -0.000084
   5 H :    0.000174
   6 C :   -0.181136
   7 O :   -0.462234
   8 H :    0.311377
   9 H :    0.106733
  10 H :    0.107809
  11 H :    0.124362
Sum of atomic charges:    0.0000000

LOEWDIN ATOMIC CHARGES
----------------------
   0 C :   -0.006649
   1 O :   -0.003700
   2 H :   -0.030763
   3 H :   -0.000526
   4 H :   -0.003809
   5 H :   -0.000023
   6 C :   -0.373936
   7 O :   -0.050918
   8 H :    0.158055
   9 H :    0.103240
  10 H :    0.095942
  11 H :    0.113088

  Mayer bond orders larger than 0.1
B(  6-C ,  7-O ) :   0.9956 B(  6-C ,  9-H ) :   0.9763 B(  6-C , 10-H ) :   0.9716
B(  6-C , 11-H ) :   0.9722 B(  7-O ,  8-H ) :   0.9014

Dispersion correction           -0.000264146
FINAL SINGLE POINT ENERGY      -115.732894976197

DIPOLE MOMENT
-------------
                                X             Y             Z
Electronic contribution:     -0.50798      -1.68357      -0.79204
Nuclear contribution   :      0.91592       2.21176       0.53227
                        -----------------------------------------
Total Dipole Moment    :      0.40794       0.52819      -0.25978
                        -----------------------------------------
Magnitude (a.u.)       :      0.71616
Magnitude (Debye)      :      1.82033

Rotational constants in cm-1:     4.310513     0.795553     0.777453
Rotational constants in MHz : 129225.921358 23850.073663 23307.448864

                             ****ORCA TERMINATED NORMALLY****
TOTAL RUN TIME: 0 days 0 hours 1 minutes 5 seconds 727 msec
