                         Program Version 4.1.2  - RELEASE  -
|  1> #Run DFT-D3 single point of the dimer
|  2> ! wB97X-D3 def2-TZVP TIGHTSCF CHELPG PMODEL PAL8
|  3>
|  4> %base "18-105_DFT_AB"
|  5>
|  6> %scf
|  7> MaxIter 1000
|  8> end
|  9>
| 10> * xyz 0 1
| 11>   C                      -6.192142            3.316149             -6.809267
| 12>   O                      -7.336972            3.537002             -7.548146
| 13>   H                      -7.789556            2.702504             -7.730848
| 14>   H                      -5.550803            2.508840             -7.203394
| 15>   H                      -5.617500            4.249866             -6.681300
| 16>   H                      -6.487296            3.059654             -5.826811
| 17>   C                      -7.406621            -1.062606            -5.903901
| 18>   O                      -6.974387            0.219346             -6.228345
| 19>   H                      -7.660141            0.893785             -5.989689
| 20>   H                      -7.602370            -1.107406            -4.873669
| 21>   H                      -8.227226            -1.407391            -6.541051
| 22>   H                      -6.599956            -1.807910            -5.961405
| 23> *
| 24>
| 25> #Run DFT-D3 single point of the molecule with dimer basis set
| 26> $new_job
| 27> %base "18-105_DFT_A"
| 28> ! wB97X-D3 def2-TZVP TIGHTSCF CHELPG PMODEL
| 29>
| 30> %scf
| 31> MaxIter 1000
| 32> end
| 33>
| 34> * xyz 0 1
| 35>   C                      -6.192142            3.316149             -6.809267
| 36>   O                      -7.336972            3.537002             -7.548146
| 37>   H                      -7.789556            2.702504             -7.730848
| 38>   H                      -5.550803            2.508840             -7.203394
| 39>   H                      -5.617500            4.249866             -6.681300
| 40>   H                      -6.487296            3.059654             -5.826811
| 41>   C                    : -7.406621            -1.062606            -5.903901
| 42>   O                    : -6.974387            0.219346             -6.228345
| 43>   H                    : -7.660141            0.893785             -5.989689
| 44>   H                    : -7.602370            -1.107406            -4.873669
| 45>   H                    : -8.227226            -1.407391            -6.541051
| 46>   H                    : -6.599956            -1.807910            -5.961405
| 47> *
| 48>
| 49> #Run DFT-D3 single point of the particle with dimer basis set
| 50> $new_job
| 51> %base "18-105_DFT_B"
| 52> ! wB97X-D3 def2-TZVP TIGHTSCF CHELPG PMODEL
| 53>
| 54> %scf
| 55> MaxIter 1000
| 56> end
| 57>
| 58> * xyz 0 1
| 59>   C                    : -6.192142            3.316149             -6.809267
| 60>   O                    : -7.336972            3.537002             -7.548146
| 61>   H                    : -7.789556            2.702504             -7.730848
| 62>   H                    : -5.550803            2.508840             -7.203394
| 63>   H                    : -5.617500            4.249866             -6.681300
| 64>   H                    : -6.487296            3.059654             -5.826811
| 65>   C                      -7.406621            -1.062606            -5.903901
| 66>   O                      -6.974387            0.219346             -6.228345
| 67>   H                      -7.660141            0.893785             -5.989689
| 68>   H                      -7.602370            -1.107406            -4.873669
| 69>   H                      -8.227226            -1.407391            -6.541051
| 70>   H                      -6.599956            -1.807910            -5.961405
| 71> *
| 72>
| 73>                          ****END OF INPUT****
 Total Charge           Charge          ....    0
 Multiplicity           Mult            ....    1
 Number of Electrons    NEL             ....   36
Dispersion correction           -0.001768892
FINAL SINGLE POINT ENERGY      -231.466550195085
Dispersion correction           -0.000224915
FINAL SINGLE POINT ENERGY      -115.733814066843

CARTESIAN COORDINATES (ANGSTROEM)
---------------------------------
  C     -6.192142    3.316149   -6.809267
  O     -7.336972    3.537002   -7.548146
  H     -7.789556    2.702504   -7.730848
  H     -5.550803    2.508840   -7.203394
  H     -5.617500    4.249866   -6.681300
  H     -6.487296    3.059654   -5.826811
  C     -7.406621   -1.062606   -5.903901
  O     -6.974387    0.219346   -6.228345
  H     -7.660141    0.893785   -5.989689
  H     -7.602370   -1.107406   -4.873669
  H     -8.227226   -1.407391   -6.541051
  H     -6.599956   -1.807910   -5.961405

 Multiplicity           Mult            ....    1
 Number of Electrons    NEL             ....   18
 Basis Dimension        Dim             ....  172

ORBITAL ENERGIES
----------------

  NO   OCC          E(Eh)            E(eV)
   0   2.0000     -19.231729      -523.3220
   1   2.0000     -10.306409      -280.4516
   2   2.0000      -1.135991       -30.9119
   3   2.0000      -0.797083       -21.6897
   4   2.0000      -0.609533       -16.5862
   5   2.0000      -0.556207       -15.1352
   6   2.0000      -0.528721       -14.3872
   7   2.0000      -0.419810       -11.4236
   8   2.0000      -0.374928       -10.2023
   9   0.0000       0.086112         2.3432
  10   0.0000       0.131079         3.5668
  11   0.0000       0.156193         4.2502
  12   0.0000       0.175081         4.7642
  13   0.0000       0.200315         5.4508

MULLIKEN ATOMIC CHARGES
-----------------------
   0 C :    0.005300
   1 O :    0.000165
   2 H :   -0.004295
   3 H :   -0.003970
   4 H :   -0.000355
   5 H :   -0.005401
   6 C :   -0.162936
   7 O :   -0.468247
   8 H :    0.324209
   9 H :    0.103884
  10 H :    0.099424
  11 H :    0.112221
Sum of atomic charges:   -0.0000000

LOEWDIN ATOMIC CHARGES
----------------------
   0 C :   -0.009538
   1 O :   -0.000384
   2 H :   -0.003716
   3 H :   -0.004064
   4 H :   -0.000056
   5 H :   -0.003233
   6 C :   -0.401726
   7 O :   -0.063646
   8 H :    0.192561
   9 H :    0.087434
  10 H :    0.095606
  11 H :    0.110761

  Mayer bond orders larger than 0.1
B(  6-C ,  7-O ) :   1.0059 B(  6-C ,  9-H ) :   0.9836 B(  6-C , 10-H ) :   0.9755
B(  6-C , 11-H ) :   0.9728 B(  7-O ,  8-H ) :   0.8844

Dispersion correction           -0.000235523
FINAL SINGLE POINT ENERGY      -115.731498106123

DIPOLE MOMENT
-------------
                                X             Y             Z
Electronic contribution:      0.59913       1.61554      -0.49693
Nuclear contribution   :     -1.18638      -1.71925       0.81027
                        -----------------------------------------
Total Dipole Moment    :     -0.58725      -0.10371       0.31334
                        -----------------------------------------
Magnitude (a.u.)       :      0.67365
Magnitude (Debye)      :      1.71227

Rotational constants in cm-1:     4.414114     0.842979     0.821804
Rotational constants in MHz : 132331.822793 25271.859974 24637.079077

                             ****ORCA TERMINATED NORMALLY****
TOTAL RUN TIME: 0 days 0 hours 1 minutes 6 seconds 874 msec
