                         Program Version 4.1.2  - RELEASE  -
|  1> #Run DFT-D3 single point of the dimer
|  2> ! wB97X-D3 def2-TZVP TIGHTSCF CHELPG PMODEL PAL8
|  3>
|  4> %base "5-44_DFT_AB"
|  5>
|  6> %scf
|  7> MaxIter 1000
|  8> end
|  9>
| 10> * xyz 0 1
| 11>   C                      -2.327879            -1.689422            -8.778547
| 12>   O                      -1.414397            -2.216028            -7.842568
| 13>   H                      -1.431879            -3.135477            -8.159358
| 14>   H                      -1.907718            -1.481460            -9.705796
| 15>   H                      -3.138934            -2.311804            -8.966968
| 16>   H                      -2.843604            -0.810400            -8.339234
| 17>   C                      -5.249852            -0.008442            -6.304635
| 18>   O                      -5.450847            -0.143559            -4.926436
| 19>   H                      -5.510629            -1.049853            -4.667472
| 20>   H                      -4.486564            -0.628810            -6.643635
| 21>   H                      -6.162932            -0.052072            -6.939160
| 22>   H                      -4.903046            1.084052             -6.453591
| 23> *
| 24>
| 25> #Run DFT-D3 single point of the molecule with dimer basis set
| 26> $new_job
| 27> %base "5-44_DFT_A"
| 28> ! wB97X-D3 def2-TZVP TIGHTSCF CHELPG PMODEL
| 29>
| 30> %scf
| 31> MaxIter 1000
| 32> end
| 33>
| 34> * xyz 0 1
| 35>   C                      -2.327879            -1.689422            -8.778547
| 36>   O                      -1.414397            -2.216028            -7.842568
| 37>   H                      -1.431879            -3.135477            -8.159358
| 38>   H                      -1.907718            -1.481460            -9.705796
| 39>   H                      -3.138934            -2.311804            -8.966968
| 40>   H                      -2.843604            -0.810400            -8.339234
| 41>   C                    : -5.249852            -0.008442            -6.304635
| 42>   O                    : -5.450847            -0.143559            -4.926436
| 43>   H                    : -5.510629            -1.049853            -4.667472
| 44>   H                    : -4.486564            -0.628810            -6.643635
| 45>   H                    : -6.162932            -0.052072            -6.939160
| 46>   H                    : -4.903046            1.084052             -6.453591
| 47> *
| 48>
| 49> #Run DFT-D3 single point of the particle with dimer basis set
| 50> $new_job
| 51> %base "5-44_DFT_B"
| 52> ! wB97X-D3 def2-TZVP TIGHTSCF CHELPG PMODEL
| 53>
| 54> %scf
| 55> MaxIter 1000
| 56> end
| 57>
| 58> * xyz 0 1
| 59>   C                    : -2.327879            -1.689422            -8.778547
| 60>   O                    : -1.414397            -2.216028            -7.842568
| 61>   H                    : -1.431879            -3.135477            -8.159358
| 62>   H                    : -1.907718            -1.481460            -9.705796
| 63>   H                    : -3.138934            -2.311804            -8.966968
| 64>   H                    : -2.843604            -0.810400            -8.339234
| 65>   C                      -5.249852            -0.008442            -6.304635
| 66>   O                      -5.450847            -0.143559            -4.926436
| 67>   H                      -5.510629            -1.049853            -4.667472
| 68>   H                      -4.486564            -0.628810            -6.643635
| 69>   H                      -6.162932            -0.052072            -6.939160
| 70>   H                      -4.903046            1.084052             -6.453591
| 71> *
| 72>
| 73>                          ****END OF INPUT****
 Total Charge           Charge          ....    0
 Multiplicity           Mult            ....    1
 Number of Electrons    NEL             ....   36
Dispersion correction           -0.001244600
FINAL SINGLE POINT ENERGY      -231.457998597236
Dispersion correction           -0.000207047
FINAL SINGLE POINT ENERGY      -115.726567473859

CARTESIAN COORDINATES (ANGSTROEM)
---------------------------------
  C     -2.327879   -1.689422   -8.778547
  O     -1.414397   -2.216028   -7.842568
  H     -1.431879   -3.135477   -8.159358
  H     -1.907718   -1.481460   -9.705796
  H     -3.138934   -2.311804   -8.966968
  H     -2.843604   -0.810400   -8.339234
  C     -5.249852   -0.008442   -6.304635
  O     -5.450847   -0.143559   -4.926436
  H     -5.510629   -1.049853   -4.667472
  H     -4.486564   -0.628810   -6.643635
  H     -6.162932   -0.052072   -6.939160
  H     -4.903046    1.084052   -6.453591

 Multiplicity           Mult            ....    1
 Number of Electrons    NEL             ....   18
 Basis Dimension        Dim             ....  172

ORBITAL ENERGIES
----------------

  NO   OCC          E(Eh)            E(eV)
   0   2.0000     -19.228259      -523.2275
   1   2.0000     -10.314024      -280.6589
   2   2.0000      -1.141763       -31.0689
   3   2.0000      -0.796878       -21.6842
   4   2.0000      -0.618062       -16.8183
   5   2.0000      -0.550107       -14.9692
   6   2.0000      -0.518890       -14.1197
   7   2.0000      -0.425402       -11.5758
   8   2.0000      -0.374948       -10.2028
   9   0.0000       0.083131         2.2621
  10   0.0000       0.121152         3.2967
  11   0.0000       0.146743         3.9931
  12   0.0000       0.174595         4.7510
  13   0.0000       0.188039         5.1168

MULLIKEN ATOMIC CHARGES
-----------------------
   0 C :    0.001582
   1 O :   -0.000029
   2 H :   -0.000002
   3 H :   -0.000167
   4 H :   -0.000427
   5 H :   -0.002780
   6 C :   -0.154325
   7 O :   -0.473638
   8 H :    0.311762
   9 H :    0.109957
  10 H :    0.098651
  11 H :    0.109418
Sum of atomic charges:   -0.0000000

LOEWDIN ATOMIC CHARGES
----------------------
   0 C :   -0.002938
   1 O :   -0.000009
   2 H :   -0.000005
   3 H :   -0.000026
   4 H :   -0.000298
   5 H :   -0.004303
   6 C :   -0.395660
   7 O :   -0.057729
   8 H :    0.156953
   9 H :    0.085017
  10 H :    0.097427
  11 H :    0.121571

  Mayer bond orders larger than 0.1
B(  6-C ,  7-O ) :   0.9991 B(  6-C ,  9-H ) :   0.9822 B(  6-C , 10-H ) :   0.9665
B(  6-C , 11-H ) :   0.9753 B(  7-O ,  8-H ) :   0.9010

Dispersion correction           -0.000252474
FINAL SINGLE POINT ENERGY      -115.731034038440

DIPOLE MOMENT
-------------
                                X             Y             Z
Electronic contribution:     -0.25988      -0.29673       1.78398
Nuclear contribution   :      0.32287      -0.25020      -2.15037
                        -----------------------------------------
Total Dipole Moment    :      0.06298      -0.54693      -0.36639
                        -----------------------------------------
Magnitude (a.u.)       :      0.66131
Magnitude (Debye)      :      1.68093

Rotational constants in cm-1:     4.339924     0.837645     0.810525
Rotational constants in MHz : 130107.661802 25111.978753 24298.917901

                             ****ORCA TERMINATED NORMALLY****
TOTAL RUN TIME: 0 days 0 hours 0 minutes 54 seconds 60 msec
