                         Program Version 4.1.2  - RELEASE  -
|  1> #Run DFT-D3 single point of the dimer
|  2> ! wB97X-D3 def2-TZVP TIGHTSCF CHELPG PMODEL PAL8
|  3>
|  4> %base "6-133_DFT_AB"
|  5>
|  6> %scf
|  7> MaxIter 1000
|  8> end
|  9>
| 10> * xyz 0 1
| 11>   C                      5.799702             10.013961            -6.139659
| 12>   O                      6.314410             9.354648             -5.022214
| 13>   H                      6.679682             8.539401             -5.378463
| 14>   H                      5.031475             9.459829             -6.584512
| 15>   H                      5.568476             11.039382            -5.914100
| 16>   H                      6.622979             10.145301            -6.957438
| 17>   C                      7.313492             5.352219             -3.875000
| 18>   O                      8.583517             5.934951             -3.688472
| 19>   H                      8.912932             5.914960             -4.629453
| 20>   H                      6.701947             5.408958             -2.954834
| 21>   H                      6.815108             5.840686             -4.748789
| 22>   H                      7.336305             4.377788             -4.229219
| 23> *
| 24>
| 25> #Run DFT-D3 single point of the molecule with dimer basis set
| 26> $new_job
| 27> %base "6-133_DFT_A"
| 28> ! wB97X-D3 def2-TZVP TIGHTSCF CHELPG PMODEL
| 29>
| 30> %scf
| 31> MaxIter 1000
| 32> end
| 33>
| 34> * xyz 0 1
| 35>   C                      5.799702             10.013961            -6.139659
| 36>   O                      6.314410             9.354648             -5.022214
| 37>   H                      6.679682             8.539401             -5.378463
| 38>   H                      5.031475             9.459829             -6.584512
| 39>   H                      5.568476             11.039382            -5.914100
| 40>   H                      6.622979             10.145301            -6.957438
| 41>   C                    : 7.313492             5.352219             -3.875000
| 42>   O                    : 8.583517             5.934951             -3.688472
| 43>   H                    : 8.912932             5.914960             -4.629453
| 44>   H                    : 6.701947             5.408958             -2.954834
| 45>   H                    : 6.815108             5.840686             -4.748789
| 46>   H                    : 7.336305             4.377788             -4.229219
| 47> *
| 48>
| 49> #Run DFT-D3 single point of the particle with dimer basis set
| 50> $new_job
| 51> %base "6-133_DFT_B"
| 52> ! wB97X-D3 def2-TZVP TIGHTSCF CHELPG PMODEL
| 53>
| 54> %scf
| 55> MaxIter 1000
| 56> end
| 57>
| 58> * xyz 0 1
| 59>   C                    : 5.799702             10.013961            -6.139659
| 60>   O                    : 6.314410             9.354648             -5.022214
| 61>   H                    : 6.679682             8.539401             -5.378463
| 62>   H                    : 5.031475             9.459829             -6.584512
| 63>   H                    : 5.568476             11.039382            -5.914100
| 64>   H                    : 6.622979             10.145301            -6.957438
| 65>   C                      7.313492             5.352219             -3.875000
| 66>   O                      8.583517             5.934951             -3.688472
| 67>   H                      8.912932             5.914960             -4.629453
| 68>   H                      6.701947             5.408958             -2.954834
| 69>   H                      6.815108             5.840686             -4.748789
| 70>   H                      7.336305             4.377788             -4.229219
| 71> *
| 72>
| 73>                          ****END OF INPUT****
 Total Charge           Charge          ....    0
 Multiplicity           Mult            ....    1
 Number of Electrons    NEL             ....   36
Dispersion correction           -0.001045625
FINAL SINGLE POINT ENERGY      -231.457288836031
Dispersion correction           -0.000218250
FINAL SINGLE POINT ENERGY      -115.730347312807

CARTESIAN COORDINATES (ANGSTROEM)
---------------------------------
  C      5.799702   10.013961   -6.139659
  O      6.314410    9.354648   -5.022214
  H      6.679682    8.539401   -5.378463
  H      5.031475    9.459829   -6.584512
  H      5.568476   11.039382   -5.914100
  H      6.622979   10.145301   -6.957438
  C      7.313492    5.352219   -3.875000
  O      8.583517    5.934951   -3.688472
  H      8.912932    5.914960   -4.629453
  H      6.701947    5.408958   -2.954834
  H      6.815108    5.840686   -4.748789
  H      7.336305    4.377788   -4.229219

 Multiplicity           Mult            ....    1
 Number of Electrons    NEL             ....   18
 Basis Dimension        Dim             ....  172

ORBITAL ENERGIES
----------------

  NO   OCC          E(Eh)            E(eV)
   0   2.0000     -19.236489      -523.4515
   1   2.0000     -10.310511      -280.5633
   2   2.0000      -1.137405       -30.9504
   3   2.0000      -0.791973       -21.5507
   4   2.0000      -0.614921       -16.7328
   5   2.0000      -0.535595       -14.5743
   6   2.0000      -0.526044       -14.3144
   7   2.0000      -0.447845       -12.1865
   8   2.0000      -0.369469       -10.0538
   9   0.0000       0.083844         2.2815
  10   0.0000       0.110163         2.9977
  11   0.0000       0.154877         4.2144
  12   0.0000       0.173544         4.7224
  13   0.0000       0.193777         5.2729

MULLIKEN ATOMIC CHARGES
-----------------------
   0 C :   -0.000451
   1 O :   -0.000142
   2 H :    0.001400
   3 H :    0.000069
   4 H :   -0.000009
   5 H :    0.000007
   6 C :   -0.183959
   7 O :   -0.460907
   8 H :    0.316117
   9 H :    0.122290
  10 H :    0.091540
  11 H :    0.114044
Sum of atomic charges:    0.0000000

LOEWDIN ATOMIC CHARGES
----------------------
   0 C :   -0.000072
   1 O :   -0.000140
   2 H :   -0.001400
   3 H :   -0.000007
   4 H :   -0.000003
   5 H :   -0.000001
   6 C :   -0.397742
   7 O :   -0.087611
   8 H :    0.196831
   9 H :    0.111985
  10 H :    0.097905
  11 H :    0.080255

  Mayer bond orders larger than 0.1
B(  6-C ,  7-O ) :   0.9988 B(  6-C ,  9-H ) :   0.9735 B(  6-C , 10-H ) :   0.9851
B(  6-C , 11-H ) :   0.9719 B(  7-O ,  8-H ) :   0.8973

Dispersion correction           -0.000210276
FINAL SINGLE POINT ENERGY      -115.727326177407

DIPOLE MOMENT
-------------
                                X             Y             Z
Electronic contribution:      1.67300       0.72020       0.57517
Nuclear contribution   :     -1.95041      -0.97816      -1.21885
                        -----------------------------------------
Total Dipole Moment    :     -0.27741      -0.25795      -0.64368
                        -----------------------------------------
Magnitude (a.u.)       :      0.74687
Magnitude (Debye)      :      1.89839

Rotational constants in cm-1:     4.218058     0.854593     0.800480
Rotational constants in MHz : 126454.202737 25620.052762 23997.787893

                             ****ORCA TERMINATED NORMALLY****
TOTAL RUN TIME: 0 days 0 hours 1 minutes 2 seconds 204 msec
