                         Program Version 4.1.2  - RELEASE  -
|  1> #Run DFT-D3 single point of the dimer
|  2> ! wB97X-D3 def2-TZVP TIGHTSCF CHELPG PMODEL PAL8
|  3>
|  4> %base "13-23_DFT_AB"
|  5>
|  6> %scf
|  7> MaxIter 1000
|  8> end
|  9>
| 10> * xyz 0 1
| 11>   C                      8.730308             3.899226             2.149717
| 12>   O                      8.727510             4.515731             3.391171
| 13>   H                      8.971102             3.845364             4.096785
| 14>   H                      7.977863             3.093714             1.981061
| 15>   H                      8.611493             4.563490             1.375801
| 16>   H                      9.723099             3.443428             1.923112
| 17>   C                      9.438769             1.972816             6.617335
| 18>   O                      8.623969             3.030773             6.251968
| 19>   H                      8.260408             3.600270             7.019287
| 20>   H                      9.315507             1.715100             7.682329
| 21>   H                      9.288691             1.007495             6.008580
| 22>   H                      10.478213            2.223850             6.555681
| 23> *
| 24>
| 25> #Run DFT-D3 single point of the molecule with dimer basis set
| 26> $new_job
| 27> %base "13-23_DFT_A"
| 28> ! wB97X-D3 def2-TZVP TIGHTSCF CHELPG PMODEL
| 29>
| 30> %scf
| 31> MaxIter 1000
| 32> end
| 33>
| 34> * xyz 0 1
| 35>   C                      8.730308             3.899226             2.149717
| 36>   O                      8.727510             4.515731             3.391171
| 37>   H                      8.971102             3.845364             4.096785
| 38>   H                      7.977863             3.093714             1.981061
| 39>   H                      8.611493             4.563490             1.375801
| 40>   H                      9.723099             3.443428             1.923112
| 41>   C                    : 9.438769             1.972816             6.617335
| 42>   O                    : 8.623969             3.030773             6.251968
| 43>   H                    : 8.260408             3.600270             7.019287
| 44>   H                    : 9.315507             1.715100             7.682329
| 45>   H                    : 9.288691             1.007495             6.008580
| 46>   H                    : 10.478213            2.223850             6.555681
| 47> *
| 48>
| 49> #Run DFT-D3 single point of the particle with dimer basis set
| 50> $new_job
| 51> %base "13-23_DFT_B"
| 52> ! wB97X-D3 def2-TZVP TIGHTSCF CHELPG PMODEL
| 53>
| 54> %scf
| 55> MaxIter 1000
| 56> end
| 57>
| 58> * xyz 0 1
| 59>   C                    : 8.730308             3.899226             2.149717
| 60>   O                    : 8.727510             4.515731             3.391171
| 61>   H                    : 8.971102             3.845364             4.096785
| 62>   H                    : 7.977863             3.093714             1.981061
| 63>   H                    : 8.611493             4.563490             1.375801
| 64>   H                    : 9.723099             3.443428             1.923112
| 65>   C                      9.438769             1.972816             6.617335
| 66>   O                      8.623969             3.030773             6.251968
| 67>   H                      8.260408             3.600270             7.019287
| 68>   H                      9.315507             1.715100             7.682329
| 69>   H                      9.288691             1.007495             6.008580
| 70>   H                      10.478213            2.223850             6.555681
| 71> *
| 72>
| 73>                          ****END OF INPUT****
 Total Charge           Charge          ....    0
 Multiplicity           Mult            ....    1
 Number of Electrons    NEL             ....   36
Dispersion correction           -0.001388416
FINAL SINGLE POINT ENERGY      -231.462997706726
Dispersion correction           -0.000250196
FINAL SINGLE POINT ENERGY      -115.730245103518

CARTESIAN COORDINATES (ANGSTROEM)
---------------------------------
  C      8.730308    3.899226    2.149717
  O      8.727510    4.515731    3.391171
  H      8.971102    3.845364    4.096785
  H      7.977863    3.093714    1.981061
  H      8.611493    4.563490    1.375801
  H      9.723099    3.443428    1.923112
  C      9.438769    1.972816    6.617335
  O      8.623969    3.030773    6.251968
  H      8.260408    3.600270    7.019287
  H      9.315507    1.715100    7.682329
  H      9.288691    1.007495    6.008580
  H     10.478213    2.223850    6.555681

 Multiplicity           Mult            ....    1
 Number of Electrons    NEL             ....   18
 Basis Dimension        Dim             ....  172

ORBITAL ENERGIES
----------------

  NO   OCC          E(Eh)            E(eV)
   0   2.0000     -19.233958      -523.3826
   1   2.0000     -10.315066      -280.6872
   2   2.0000      -1.131144       -30.7800
   3   2.0000      -0.789791       -21.4913
   4   2.0000      -0.614059       -16.7094
   5   2.0000      -0.537541       -14.6272
   6   2.0000      -0.529363       -14.4047
   7   2.0000      -0.418158       -11.3787
   8   2.0000      -0.369105       -10.0439
   9   0.0000       0.095125         2.5885
  10   0.0000       0.111278         3.0280
  11   0.0000       0.145845         3.9687
  12   0.0000       0.188160         5.1201
  13   0.0000       0.201431         5.4812

MULLIKEN ATOMIC CHARGES
-----------------------
   0 C :    0.000037
   1 O :   -0.000475
   2 H :   -0.005876
   3 H :   -0.000084
   4 H :   -0.000027
   5 H :   -0.000001
   6 C :   -0.151897
   7 O :   -0.486693
   8 H :    0.327478
   9 H :    0.098262
  10 H :    0.111137
  11 H :    0.108139
Sum of atomic charges:    0.0000000

LOEWDIN ATOMIC CHARGES
----------------------
   0 C :   -0.000323
   1 O :   -0.002336
   2 H :   -0.019414
   3 H :   -0.000025
   4 H :   -0.000006
   5 H :   -0.000003
   6 C :   -0.417311
   7 O :   -0.068373
   8 H :    0.207068
   9 H :    0.096812
  10 H :    0.114499
  11 H :    0.089412

  Mayer bond orders larger than 0.1
B(  6-C ,  7-O ) :   1.0009 B(  6-C ,  9-H ) :   0.9787 B(  6-C , 10-H ) :   0.9686
B(  6-C , 11-H ) :   0.9758 B(  7-O ,  8-H ) :   0.8770

Dispersion correction           -0.000263145
FINAL SINGLE POINT ENERGY      -115.726626466589

DIPOLE MOMENT
-------------
                                X             Y             Z
Electronic contribution:     -1.10024       1.40140      -0.65749
Nuclear contribution   :      1.18281      -1.43730       1.33480
                        -----------------------------------------
Total Dipole Moment    :      0.08257      -0.03590       0.67731
                        -----------------------------------------
Magnitude (a.u.)       :      0.68327
Magnitude (Debye)      :      1.73673

Rotational constants in cm-1:     4.321051     0.837723     0.802081
Rotational constants in MHz : 129541.860183 25114.313452 24045.774968

                             ****ORCA TERMINATED NORMALLY****
TOTAL RUN TIME: 0 days 0 hours 1 minutes 9 seconds 851 msec
