                         Program Version 4.1.2  - RELEASE  -
|  1> #Run DFT-D3 single point of the dimer
|  2> ! wB97X-D3 def2-TZVP TIGHTSCF CHELPG PMODEL PAL8
|  3>
|  4> %base "18-45_DFT_AB"
|  5>
|  6> %scf
|  7> MaxIter 1000
|  8> end
|  9>
| 10> * xyz 0 1
| 11>   C                      -2.012563            4.665636             -1.975602
| 12>   O                      -2.587163            3.443356             -2.387225
| 13>   H                      -2.699769            2.832937             -1.683804
| 14>   H                      -1.104865            4.452574             -1.373677
| 15>   H                      -1.693675            5.183946             -2.882772
| 16>   H                      -2.766827            5.318061             -1.491630
| 17>   C                      -4.378102            8.116178             -2.250395
| 18>   O                      -3.265974            7.812544             -1.458457
| 19>   H                      -2.526704            7.889954             -2.099805
| 20>   H                      -4.643488            7.304127             -2.928239
| 21>   H                      -5.245410            8.405091             -1.698347
| 22>   H                      -4.190495            8.981392             -2.876955
| 23> *
| 24>
| 25> #Run DFT-D3 single point of the molecule with dimer basis set
| 26> $new_job
| 27> %base "18-45_DFT_A"
| 28> ! wB97X-D3 def2-TZVP TIGHTSCF CHELPG PMODEL
| 29>
| 30> %scf
| 31> MaxIter 1000
| 32> end
| 33>
| 34> * xyz 0 1
| 35>   C                      -2.012563            4.665636             -1.975602
| 36>   O                      -2.587163            3.443356             -2.387225
| 37>   H                      -2.699769            2.832937             -1.683804
| 38>   H                      -1.104865            4.452574             -1.373677
| 39>   H                      -1.693675            5.183946             -2.882772
| 40>   H                      -2.766827            5.318061             -1.491630
| 41>   C                    : -4.378102            8.116178             -2.250395
| 42>   O                    : -3.265974            7.812544             -1.458457
| 43>   H                    : -2.526704            7.889954             -2.099805
| 44>   H                    : -4.643488            7.304127             -2.928239
| 45>   H                    : -5.245410            8.405091             -1.698347
| 46>   H                    : -4.190495            8.981392             -2.876955
| 47> *
| 48>
| 49> #Run DFT-D3 single point of the particle with dimer basis set
| 50> $new_job
| 51> %base "18-45_DFT_B"
| 52> ! wB97X-D3 def2-TZVP TIGHTSCF CHELPG PMODEL
| 53>
| 54> %scf
| 55> MaxIter 1000
| 56> end
| 57>
| 58> * xyz 0 1
| 59>   C                    : -2.012563            4.665636             -1.975602
| 60>   O                    : -2.587163            3.443356             -2.387225
| 61>   H                    : -2.699769            2.832937             -1.683804
| 62>   H                    : -1.104865            4.452574             -1.373677
| 63>   H                    : -1.693675            5.183946             -2.882772
| 64>   H                    : -2.766827            5.318061             -1.491630
| 65>   C                      -4.378102            8.116178             -2.250395
| 66>   O                      -3.265974            7.812544             -1.458457
| 67>   H                      -2.526704            7.889954             -2.099805
| 68>   H                      -4.643488            7.304127             -2.928239
| 69>   H                      -5.245410            8.405091             -1.698347
| 70>   H                      -4.190495            8.981392             -2.876955
| 71> *
| 72>
| 73>                          ****END OF INPUT****
 Total Charge           Charge          ....    0
 Multiplicity           Mult            ....    1
 Number of Electrons    NEL             ....   36
Dispersion correction           -0.001630205
FINAL SINGLE POINT ENERGY      -231.470209851858
Dispersion correction           -0.000246454
FINAL SINGLE POINT ENERGY      -115.735064911417

CARTESIAN COORDINATES (ANGSTROEM)
---------------------------------
  C     -2.012563    4.665636   -1.975602
  O     -2.587163    3.443356   -2.387225
  H     -2.699769    2.832937   -1.683804
  H     -1.104865    4.452574   -1.373677
  H     -1.693675    5.183946   -2.882772
  H     -2.766827    5.318061   -1.491630
  C     -4.378102    8.116178   -2.250395
  O     -3.265974    7.812544   -1.458457
  H     -2.526704    7.889954   -2.099805
  H     -4.643488    7.304127   -2.928239
  H     -5.245410    8.405091   -1.698347
  H     -4.190495    8.981392   -2.876955

 Multiplicity           Mult            ....    1
 Number of Electrons    NEL             ....   18
 Basis Dimension        Dim             ....  172

ORBITAL ENERGIES
----------------

  NO   OCC          E(Eh)            E(eV)
   0   2.0000     -19.236120      -523.4414
   1   2.0000     -10.307469      -280.4805
   2   2.0000      -1.142321       -31.0841
   3   2.0000      -0.795421       -21.6445
   4   2.0000      -0.612610       -16.6700
   5   2.0000      -0.546346       -14.8668
   6   2.0000      -0.531816       -14.4715
   7   2.0000      -0.437652       -11.9091
   8   2.0000      -0.374509       -10.1909
   9   0.0000       0.085918         2.3380
  10   0.0000       0.122415         3.3311
  11   0.0000       0.151448         4.1211
  12   0.0000       0.178686         4.8623
  13   0.0000       0.190907         5.1948

MULLIKEN ATOMIC CHARGES
-----------------------
   0 C :   -0.005068
   1 O :   -0.000094
   2 H :   -0.000038
   3 H :   -0.000460
   4 H :   -0.000905
   5 H :   -0.003623
   6 C :   -0.178902
   7 O :   -0.458410
   8 H :    0.321082
   9 H :    0.103155
  10 H :    0.121238
  11 H :    0.102024
Sum of atomic charges:    0.0000000

LOEWDIN ATOMIC CHARGES
----------------------
   0 C :   -0.007807
   1 O :   -0.000045
   2 H :   -0.000009
   3 H :   -0.000099
   4 H :   -0.001044
   5 H :   -0.011622
   6 C :   -0.402209
   7 O :   -0.056770
   8 H :    0.189834
   9 H :    0.093768
  10 H :    0.102133
  11 H :    0.093870

  Mayer bond orders larger than 0.1
B(  6-C ,  7-O ) :   1.0016 B(  6-C ,  9-H ) :   0.9734 B(  6-C , 10-H ) :   0.9737
B(  6-C , 11-H ) :   0.9840 B(  7-O ,  8-H ) :   0.8954

Dispersion correction           -0.000219894
FINAL SINGLE POINT ENERGY      -115.733702354773

DIPOLE MOMENT
-------------
                                X             Y             Z
Electronic contribution:      1.35180      -0.45788       1.27992
Nuclear contribution   :     -1.33278       0.66165      -1.97129
                        -----------------------------------------
Total Dipole Moment    :      0.01902       0.20377      -0.69137
                        -----------------------------------------
Magnitude (a.u.)       :      0.72103
Magnitude (Debye)      :      1.83271

Rotational constants in cm-1:     4.369287     0.847343     0.816758
Rotational constants in MHz : 130987.925218 25402.704269 24485.777713

                             ****ORCA TERMINATED NORMALLY****
TOTAL RUN TIME: 0 days 0 hours 1 minutes 1 seconds 936 msec
