                         Program Version 4.1.2  - RELEASE  -
|  1> #Run DFT-D3 single point of the dimer
|  2> ! wB97X-D3 def2-TZVP TIGHTSCF CHELPG PMODEL PAL8
|  3>
|  4> %base "12-206_DFT_AB"
|  5>
|  6> %scf
|  7> MaxIter 1000
|  8> end
|  9>
| 10> * xyz 0 1
| 11>   C                      -6.537164            -10.554918           -5.514291
| 12>   O                      -6.717694            -9.433943            -4.689288
| 13>   H                      -6.575335            -8.664448            -5.248633
| 14>   H                      -7.038478            -11.478137           -5.017293
| 15>   H                      -7.143982            -10.434640           -6.380842
| 16>   H                      -5.516036            -10.789882           -5.758788
| 17>   C                      -4.870596            -6.612255            -4.962840
| 18>   O                      -5.290943            -7.335482            -6.146061
| 19>   H                      -5.055557            -6.854106            -6.930883
| 20>   H                      -3.780154            -6.591412            -4.784003
| 21>   H                      -5.300644            -5.591864            -5.006996
| 22>   H                      -5.345215            -7.010117            -4.089669
| 23> *
| 24>
| 25> #Run DFT-D3 single point of the molecule with dimer basis set
| 26> $new_job
| 27> %base "12-206_DFT_A"
| 28> ! wB97X-D3 def2-TZVP TIGHTSCF CHELPG PMODEL
| 29>
| 30> %scf
| 31> MaxIter 1000
| 32> end
| 33>
| 34> * xyz 0 1
| 35>   C                      -6.537164            -10.554918           -5.514291
| 36>   O                      -6.717694            -9.433943            -4.689288
| 37>   H                      -6.575335            -8.664448            -5.248633
| 38>   H                      -7.038478            -11.478137           -5.017293
| 39>   H                      -7.143982            -10.434640           -6.380842
| 40>   H                      -5.516036            -10.789882           -5.758788
| 41>   C                    : -4.870596            -6.612255            -4.962840
| 42>   O                    : -5.290943            -7.335482            -6.146061
| 43>   H                    : -5.055557            -6.854106            -6.930883
| 44>   H                    : -3.780154            -6.591412            -4.784003
| 45>   H                    : -5.300644            -5.591864            -5.006996
| 46>   H                    : -5.345215            -7.010117            -4.089669
| 47> *
| 48>
| 49> #Run DFT-D3 single point of the particle with dimer basis set
| 50> $new_job
| 51> %base "12-206_DFT_B"
| 52> ! wB97X-D3 def2-TZVP TIGHTSCF CHELPG PMODEL
| 53>
| 54> %scf
| 55> MaxIter 1000
| 56> end
| 57>
| 58> * xyz 0 1
| 59>   C                    : -6.537164            -10.554918           -5.514291
| 60>   O                    : -6.717694            -9.433943            -4.689288
| 61>   H                    : -6.575335            -8.664448            -5.248633
| 62>   H                    : -7.038478            -11.478137           -5.017293
| 63>   H                    : -7.143982            -10.434640           -6.380842
| 64>   H                    : -5.516036            -10.789882           -5.758788
| 65>   C                      -4.870596            -6.612255            -4.962840
| 66>   O                      -5.290943            -7.335482            -6.146061
| 67>   H                      -5.055557            -6.854106            -6.930883
| 68>   H                      -3.780154            -6.591412            -4.784003
| 69>   H                      -5.300644            -5.591864            -5.006996
| 70>   H                      -5.345215            -7.010117            -4.089669
| 71> *
| 72>
| 73>                          ****END OF INPUT****
 Total Charge           Charge          ....    0
 Multiplicity           Mult            ....    1
 Number of Electrons    NEL             ....   36
Dispersion correction           -0.001831069
FINAL SINGLE POINT ENERGY      -231.473930919589
Dispersion correction           -0.000233616
FINAL SINGLE POINT ENERGY      -115.732237797240

CARTESIAN COORDINATES (ANGSTROEM)
---------------------------------
  C     -6.537164  -10.554918   -5.514291
  O     -6.717694   -9.433943   -4.689288
  H     -6.575335   -8.664448   -5.248633
  H     -7.038478  -11.478137   -5.017293
  H     -7.143982  -10.434640   -6.380842
  H     -5.516036  -10.789882   -5.758788
  C     -4.870596   -6.612255   -4.962840
  O     -5.290943   -7.335482   -6.146061
  H     -5.055557   -6.854106   -6.930883
  H     -3.780154   -6.591412   -4.784003
  H     -5.300644   -5.591864   -5.006996
  H     -5.345215   -7.010117   -4.089669

 Multiplicity           Mult            ....    1
 Number of Electrons    NEL             ....   18
 Basis Dimension        Dim             ....  172

ORBITAL ENERGIES
----------------

  NO   OCC          E(Eh)            E(eV)
   0   2.0000     -19.229452      -523.2600
   1   2.0000     -10.316916      -280.7376
   2   2.0000      -1.126410       -30.6512
   3   2.0000      -0.800135       -21.7728
   4   2.0000      -0.603384       -16.4189
   5   2.0000      -0.541820       -14.7437
   6   2.0000      -0.525641       -14.3034
   7   2.0000      -0.429303       -11.6819
   8   2.0000      -0.377369       -10.2687
   9   0.0000       0.100805         2.7431
  10   0.0000       0.126439         3.4406
  11   0.0000       0.148654         4.0451
  12   0.0000       0.185829         5.0567
  13   0.0000       0.202335         5.5058

MULLIKEN ATOMIC CHARGES
-----------------------
   0 C :    0.001718
   1 O :    0.001111
   2 H :   -0.006675
   3 H :   -0.000194
   4 H :   -0.001112
   5 H :   -0.002133
   6 C :   -0.163687
   7 O :   -0.476363
   8 H :    0.309747
   9 H :    0.109675
  10 H :    0.104981
  11 H :    0.122933
Sum of atomic charges:   -0.0000000

LOEWDIN ATOMIC CHARGES
----------------------
   0 C :   -0.004761
   1 O :   -0.003792
   2 H :   -0.027332
   3 H :   -0.000057
   4 H :   -0.000334
   5 H :   -0.000844
   6 C :   -0.354886
   7 O :   -0.070297
   8 H :    0.157763
   9 H :    0.098638
  10 H :    0.101080
  11 H :    0.104821

  Mayer bond orders larger than 0.1
B(  6-C ,  7-O ) :   0.9903 B(  6-C ,  9-H ) :   0.9661 B(  6-C , 10-H ) :   0.9803
B(  6-C , 11-H ) :   0.9766 B(  7-O ,  8-H ) :   0.9009

Dispersion correction           -0.000268054
FINAL SINGLE POINT ENERGY      -115.733981321204

DIPOLE MOMENT
-------------
                                X             Y             Z
Electronic contribution:     -0.47675      -1.05729      -1.40777
Nuclear contribution   :      0.78519       1.67892       1.42130
                        -----------------------------------------
Total Dipole Moment    :      0.30844       0.62163       0.01354
                        -----------------------------------------
Magnitude (a.u.)       :      0.69408
Magnitude (Debye)      :      1.76420

Rotational constants in cm-1:     4.372880     0.787329     0.771616
Rotational constants in MHz : 131095.654859 23603.520879 23132.457886

                             ****ORCA TERMINATED NORMALLY****
TOTAL RUN TIME: 0 days 0 hours 1 minutes 14 seconds 873 msec
