                         Program Version 4.1.2  - RELEASE  -
|  1> #Run DFT-D3 single point of the dimer
|  2> ! wB97X-D3 def2-TZVP TIGHTSCF CHELPG PMODEL PAL8
|  3>
|  4> %base "16-109_DFT_AB"
|  5>
|  6> %scf
|  7> MaxIter 1000
|  8> end
|  9>
| 10> * xyz 0 1
| 11>   C                      -5.734501            -10.192023           -5.611026
| 12>   O                      -4.666098            -9.342436            -5.831175
| 13>   H                      -5.044080            -8.663797            -6.404960
| 14>   H                      -6.608225            -9.629141            -5.369410
| 15>   H                      -5.796766            -10.794661           -6.500832
| 16>   H                      -5.543738            -10.761625           -4.659608
| 17>   C                      -1.109808            -10.595405           -9.059613
| 18>   O                      -2.281222            -10.218537           -9.794893
| 19>   H                      -2.926858            -10.739720           -9.263907
| 20>   H                      -0.354203            -9.784968            -9.105502
| 21>   H                      -1.297291            -10.785663           -7.994181
| 22>   H                      -0.589992            -11.475941           -9.246630
| 23> *
| 24>
| 25> #Run DFT-D3 single point of the molecule with dimer basis set
| 26> $new_job
| 27> %base "16-109_DFT_A"
| 28> ! wB97X-D3 def2-TZVP TIGHTSCF CHELPG PMODEL
| 29>
| 30> %scf
| 31> MaxIter 1000
| 32> end
| 33>
| 34> * xyz 0 1
| 35>   C                      -5.734501            -10.192023           -5.611026
| 36>   O                      -4.666098            -9.342436            -5.831175
| 37>   H                      -5.044080            -8.663797            -6.404960
| 38>   H                      -6.608225            -9.629141            -5.369410
| 39>   H                      -5.796766            -10.794661           -6.500832
| 40>   H                      -5.543738            -10.761625           -4.659608
| 41>   C                    : -1.109808            -10.595405           -9.059613
| 42>   O                    : -2.281222            -10.218537           -9.794893
| 43>   H                    : -2.926858            -10.739720           -9.263907
| 44>   H                    : -0.354203            -9.784968            -9.105502
| 45>   H                    : -1.297291            -10.785663           -7.994181
| 46>   H                    : -0.589992            -11.475941           -9.246630
| 47> *
| 48>
| 49> #Run DFT-D3 single point of the particle with dimer basis set
| 50> $new_job
| 51> %base "16-109_DFT_B"
| 52> ! wB97X-D3 def2-TZVP TIGHTSCF CHELPG PMODEL
| 53>
| 54> %scf
| 55> MaxIter 1000
| 56> end
| 57>
| 58> * xyz 0 1
| 59>   C                    : -5.734501            -10.192023           -5.611026
| 60>   O                    : -4.666098            -9.342436            -5.831175
| 61>   H                    : -5.044080            -8.663797            -6.404960
| 62>   H                    : -6.608225            -9.629141            -5.369410
| 63>   H                    : -5.796766            -10.794661           -6.500832
| 64>   H                    : -5.543738            -10.761625           -4.659608
| 65>   C                      -1.109808            -10.595405           -9.059613
| 66>   O                      -2.281222            -10.218537           -9.794893
| 67>   H                      -2.926858            -10.739720           -9.263907
| 68>   H                      -0.354203            -9.784968            -9.105502
| 69>   H                      -1.297291            -10.785663           -7.994181
| 70>   H                      -0.589992            -11.475941           -9.246630
| 71> *
| 72>
| 73>                          ****END OF INPUT****
 Total Charge           Charge          ....    0
 Multiplicity           Mult            ....    1
 Number of Electrons    NEL             ....   36
Dispersion correction           -0.000748029
FINAL SINGLE POINT ENERGY      -231.453637805358
Dispersion correction           -0.000193654
FINAL SINGLE POINT ENERGY      -115.729596371064

CARTESIAN COORDINATES (ANGSTROEM)
---------------------------------
  C     -5.734501  -10.192023   -5.611026
  O     -4.666098   -9.342436   -5.831175
  H     -5.044080   -8.663797   -6.404960
  H     -6.608225   -9.629141   -5.369410
  H     -5.796766  -10.794661   -6.500832
  H     -5.543738  -10.761625   -4.659608
  C     -1.109808  -10.595405   -9.059613
  O     -2.281222  -10.218537   -9.794893
  H     -2.926858  -10.739720   -9.263907
  H     -0.354203   -9.784968   -9.105502
  H     -1.297291  -10.785663   -7.994181
  H     -0.589992  -11.475941   -9.246630

 Multiplicity           Mult            ....    1
 Number of Electrons    NEL             ....   18
 Basis Dimension        Dim             ....  172

ORBITAL ENERGIES
----------------

  NO   OCC          E(Eh)            E(eV)
   0   2.0000     -19.242252      -523.6083
   1   2.0000     -10.311740      -280.5967
   2   2.0000      -1.136116       -30.9153
   3   2.0000      -0.799687       -21.7606
   4   2.0000      -0.612814       -16.6755
   5   2.0000      -0.533904       -14.5283
   6   2.0000      -0.522159       -14.2087
   7   2.0000      -0.448494       -12.2041
   8   2.0000      -0.377516       -10.2727
   9   0.0000       0.075539         2.0555
  10   0.0000       0.112839         3.0705
  11   0.0000       0.148059         4.0289
  12   0.0000       0.167912         4.5691
  13   0.0000       0.187022         5.0891

MULLIKEN ATOMIC CHARGES
-----------------------
   0 C :    0.000031
   1 O :   -0.000012
   2 H :   -0.000116
   3 H :   -0.000001
   4 H :   -0.000069
   5 H :   -0.000000
   6 C :   -0.195563
   7 O :   -0.451702
   8 H :    0.318136
   9 H :    0.117292
  10 H :    0.101746
  11 H :    0.110258
Sum of atomic charges:   -0.0000000

LOEWDIN ATOMIC CHARGES
----------------------
   0 C :   -0.000033
   1 O :   -0.000035
   2 H :   -0.000075
   3 H :   -0.000000
   4 H :   -0.000042
   5 H :   -0.000000
   6 C :   -0.390272
   7 O :   -0.090992
   8 H :    0.190837
   9 H :    0.109947
  10 H :    0.097725
  11 H :    0.082941

  Mayer bond orders larger than 0.1
B(  6-C ,  7-O ) :   1.0148 B(  6-C ,  9-H ) :   0.9818 B(  6-C , 10-H ) :   0.9851
B(  6-C , 11-H ) :   0.9611 B(  7-O ,  8-H ) :   0.9002

Dispersion correction           -0.000247851
FINAL SINGLE POINT ENERGY      -115.723032027856

DIPOLE MOMENT
-------------
                                X             Y             Z
Electronic contribution:     -1.53365       0.55754      -1.27132
Nuclear contribution   :      1.58867      -1.03507       1.88724
                        -----------------------------------------
Total Dipole Moment    :      0.05503      -0.47753       0.61592
                        -----------------------------------------
Magnitude (a.u.)       :      0.78129
Magnitude (Debye)      :      1.98589

Rotational constants in cm-1:     4.453843     0.817215     0.772270
Rotational constants in MHz : 133522.847781 24499.498990 23152.071038

                             ****ORCA TERMINATED NORMALLY****
TOTAL RUN TIME: 0 days 0 hours 1 minutes 3 seconds 958 msec
