                         Program Version 4.1.2  - RELEASE  -
|  1> #Run DFT-D3 single point of the dimer
|  2> ! wB97X-D3 def2-TZVP TIGHTSCF CHELPG PMODEL PAL8
|  3>
|  4> %base "4-28_DFT_AB"
|  5>
|  6> %scf
|  7> MaxIter 1000
|  8> end
|  9>
| 10> * xyz 0 1
| 11>   C                      -5.192736            -2.225288            6.637700
| 12>   O                      -5.408181            -1.507434            5.386835
| 13>   H                      -4.517370            -1.420161            5.041826
| 14>   H                      -4.838058            -1.544956            7.408872
| 15>   H                      -6.004383            -2.688830            7.117625
| 16>   H                      -4.338427            -2.918640            6.592779
| 17>   C                      -1.655024            -2.622084            6.139946
| 18>   O                      -1.531129            -1.834300            7.361114
| 19>   H                      -1.541727            -0.877771            7.056035
| 20>   H                      -0.878289            -3.404570            6.044544
| 21>   H                      -2.657406            -3.054466            5.974632
| 22>   H                      -1.310091            -2.022872            5.289386
| 23> *
| 24>
| 25> #Run DFT-D3 single point of the molecule with dimer basis set
| 26> $new_job
| 27> %base "4-28_DFT_A"
| 28> ! wB97X-D3 def2-TZVP TIGHTSCF CHELPG PMODEL
| 29>
| 30> %scf
| 31> MaxIter 1000
| 32> end
| 33>
| 34> * xyz 0 1
| 35>   C                      -5.192736            -2.225288            6.637700
| 36>   O                      -5.408181            -1.507434            5.386835
| 37>   H                      -4.517370            -1.420161            5.041826
| 38>   H                      -4.838058            -1.544956            7.408872
| 39>   H                      -6.004383            -2.688830            7.117625
| 40>   H                      -4.338427            -2.918640            6.592779
| 41>   C                    : -1.655024            -2.622084            6.139946
| 42>   O                    : -1.531129            -1.834300            7.361114
| 43>   H                    : -1.541727            -0.877771            7.056035
| 44>   H                    : -0.878289            -3.404570            6.044544
| 45>   H                    : -2.657406            -3.054466            5.974632
| 46>   H                    : -1.310091            -2.022872            5.289386
| 47> *
| 48>
| 49> #Run DFT-D3 single point of the particle with dimer basis set
| 50> $new_job
| 51> %base "4-28_DFT_B"
| 52> ! wB97X-D3 def2-TZVP TIGHTSCF CHELPG PMODEL
| 53>
| 54> %scf
| 55> MaxIter 1000
| 56> end
| 57>
| 58> * xyz 0 1
| 59>   C                    : -5.192736            -2.225288            6.637700
| 60>   O                    : -5.408181            -1.507434            5.386835
| 61>   H                    : -4.517370            -1.420161            5.041826
| 62>   H                    : -4.838058            -1.544956            7.408872
| 63>   H                    : -6.004383            -2.688830            7.117625
| 64>   H                    : -4.338427            -2.918640            6.592779
| 65>   C                      -1.655024            -2.622084            6.139946
| 66>   O                      -1.531129            -1.834300            7.361114
| 67>   H                      -1.541727            -0.877771            7.056035
| 68>   H                      -0.878289            -3.404570            6.044544
| 69>   H                      -2.657406            -3.054466            5.974632
| 70>   H                      -1.310091            -2.022872            5.289386
| 71> *
| 72>
| 73>                          ****END OF INPUT****
 Total Charge           Charge          ....    0
 Multiplicity           Mult            ....    1
 Number of Electrons    NEL             ....   36
Dispersion correction           -0.002147435
FINAL SINGLE POINT ENERGY      -231.453998802042
Dispersion correction           -0.000252548
FINAL SINGLE POINT ENERGY      -115.727016000198

CARTESIAN COORDINATES (ANGSTROEM)
---------------------------------
  C     -5.192736   -2.225288    6.637700
  O     -5.408181   -1.507434    5.386835
  H     -4.517370   -1.420161    5.041826
  H     -4.838058   -1.544956    7.408872
  H     -6.004383   -2.688830    7.117625
  H     -4.338427   -2.918640    6.592779
  C     -1.655024   -2.622084    6.139946
  O     -1.531129   -1.834300    7.361114
  H     -1.541727   -0.877771    7.056035
  H     -0.878289   -3.404570    6.044544
  H     -2.657406   -3.054466    5.974632
  H     -1.310091   -2.022872    5.289386

 Multiplicity           Mult            ....    1
 Number of Electrons    NEL             ....   18
 Basis Dimension        Dim             ....  172

ORBITAL ENERGIES
----------------

  NO   OCC          E(Eh)            E(eV)
   0   2.0000     -19.237227      -523.4716
   1   2.0000     -10.319912      -280.8191
   2   2.0000      -1.117873       -30.4189
   3   2.0000      -0.793197       -21.5840
   4   2.0000      -0.597978       -16.2718
   5   2.0000      -0.543330       -14.7848
   6   2.0000      -0.516990       -14.0680
   7   2.0000      -0.427894       -11.6436
   8   2.0000      -0.379189       -10.3183
   9   0.0000       0.085816         2.3352
  10   0.0000       0.118021         3.2115
  11   0.0000       0.145600         3.9620
  12   0.0000       0.167957         4.5703
  13   0.0000       0.195941         5.3318

MULLIKEN ATOMIC CHARGES
-----------------------
   0 C :    0.000824
   1 O :   -0.000566
   2 H :   -0.000217
   3 H :   -0.004514
   4 H :    0.000408
   5 H :    0.009101
   6 C :   -0.189808
   7 O :   -0.474338
   8 H :    0.321726
   9 H :    0.123271
  10 H :    0.101154
  11 H :    0.112957
Sum of atomic charges:    0.0000000

LOEWDIN ATOMIC CHARGES
----------------------
   0 C :   -0.008699
   1 O :   -0.000145
   2 H :   -0.001664
   3 H :   -0.001970
   4 H :   -0.000029
   5 H :   -0.013617
   6 C :   -0.362184
   7 O :   -0.122858
   8 H :    0.194201
   9 H :    0.106677
  10 H :    0.110131
  11 H :    0.100159

  Mayer bond orders larger than 0.1
B(  6-C ,  7-O ) :   1.0135 B(  6-C ,  9-H ) :   0.9774 B(  6-C , 10-H ) :   0.9689
B(  6-C , 11-H ) :   0.9901 B(  7-O ,  8-H ) :   0.8952

Dispersion correction           -0.000273963
FINAL SINGLE POINT ENERGY      -115.727768252492

DIPOLE MOMENT
-------------
                                X             Y             Z
Electronic contribution:      0.02632       0.82782       1.72935
Nuclear contribution   :     -0.04060      -0.54519      -2.43914
                        -----------------------------------------
Total Dipole Moment    :     -0.01428       0.28263      -0.70979
                        -----------------------------------------
Magnitude (a.u.)       :      0.76412
Magnitude (Debye)      :      1.94225

Rotational constants in cm-1:     4.214095     0.778856     0.759999
Rotational constants in MHz : 126335.377322 23349.528049 22784.186426

                             ****ORCA TERMINATED NORMALLY****
TOTAL RUN TIME: 0 days 0 hours 1 minutes 34 seconds 404 msec
