                         Program Version 4.1.2  - RELEASE  -
|  1> #Run DFT-D3 single point of the dimer
|  2> ! wB97X-D3 def2-TZVP TIGHTSCF CHELPG PMODEL PAL8
|  3>
|  4> %base "17-14_DFT_AB"
|  5>
|  6> %scf
|  7> MaxIter 1000
|  8> end
|  9>
| 10> * xyz 0 1
| 11>   C                      -4.021581            2.799748             -3.951247
| 12>   O                      -3.968984            3.408857             -2.693875
| 13>   H                      -3.428997            4.133400             -2.976944
| 14>   H                      -4.837682            2.116741             -4.115847
| 15>   H                      -4.388551            3.544017             -4.698766
| 16>   H                      -3.031499            2.512948             -4.232440
| 17>   C                      -7.895082            -0.450816            -3.438418
| 18>   O                      -6.790914            -1.236352            -2.968042
| 19>   H                      -6.962837            -1.616194            -2.049960
| 20>   H                      -8.781143            -1.121909            -3.639668
| 21>   H                      -8.113031            0.359831             -2.751344
| 22>   H                      -7.681932            -0.008726            -4.411791
| 23> *
| 24>
| 25> #Run DFT-D3 single point of the molecule with dimer basis set
| 26> $new_job
| 27> %base "17-14_DFT_A"
| 28> ! wB97X-D3 def2-TZVP TIGHTSCF CHELPG PMODEL
| 29>
| 30> %scf
| 31> MaxIter 1000
| 32> end
| 33>
| 34> * xyz 0 1
| 35>   C                      -4.021581            2.799748             -3.951247
| 36>   O                      -3.968984            3.408857             -2.693875
| 37>   H                      -3.428997            4.133400             -2.976944
| 38>   H                      -4.837682            2.116741             -4.115847
| 39>   H                      -4.388551            3.544017             -4.698766
| 40>   H                      -3.031499            2.512948             -4.232440
| 41>   C                    : -7.895082            -0.450816            -3.438418
| 42>   O                    : -6.790914            -1.236352            -2.968042
| 43>   H                    : -6.962837            -1.616194            -2.049960
| 44>   H                    : -8.781143            -1.121909            -3.639668
| 45>   H                    : -8.113031            0.359831             -2.751344
| 46>   H                    : -7.681932            -0.008726            -4.411791
| 47> *
| 48>
| 49> #Run DFT-D3 single point of the particle with dimer basis set
| 50> $new_job
| 51> %base "17-14_DFT_B"
| 52> ! wB97X-D3 def2-TZVP TIGHTSCF CHELPG PMODEL
| 53>
| 54> %scf
| 55> MaxIter 1000
| 56> end
| 57>
| 58> * xyz 0 1
| 59>   C                    : -4.021581            2.799748             -3.951247
| 60>   O                    : -3.968984            3.408857             -2.693875
| 61>   H                    : -3.428997            4.133400             -2.976944
| 62>   H                    : -4.837682            2.116741             -4.115847
| 63>   H                    : -4.388551            3.544017             -4.698766
| 64>   H                    : -3.031499            2.512948             -4.232440
| 65>   C                      -7.895082            -0.450816            -3.438418
| 66>   O                      -6.790914            -1.236352            -2.968042
| 67>   H                      -6.962837            -1.616194            -2.049960
| 68>   H                      -8.781143            -1.121909            -3.639668
| 69>   H                      -8.113031            0.359831             -2.751344
| 70>   H                      -7.681932            -0.008726            -4.411791
| 71> *
| 72>
| 73>                          ****END OF INPUT****
 Total Charge           Charge          ....    0
 Multiplicity           Mult            ....    1
 Number of Electrons    NEL             ....   36
Dispersion correction           -0.000789219
FINAL SINGLE POINT ENERGY      -231.454190691474
Dispersion correction           -0.000191094
FINAL SINGLE POINT ENERGY      -115.721566908144

CARTESIAN COORDINATES (ANGSTROEM)
---------------------------------
  C     -4.021581    2.799748   -3.951247
  O     -3.968984    3.408857   -2.693875
  H     -3.428997    4.133400   -2.976944
  H     -4.837682    2.116741   -4.115847
  H     -4.388551    3.544017   -4.698766
  H     -3.031499    2.512948   -4.232440
  C     -7.895082   -0.450816   -3.438418
  O     -6.790914   -1.236352   -2.968042
  H     -6.962837   -1.616194   -2.049960
  H     -8.781143   -1.121909   -3.639668
  H     -8.113031    0.359831   -2.751344
  H     -7.681932   -0.008726   -4.411791

 Multiplicity           Mult            ....    1
 Number of Electrons    NEL             ....   18
 Basis Dimension        Dim             ....  172

ORBITAL ENERGIES
----------------

  NO   OCC          E(Eh)            E(eV)
   0   2.0000     -19.231430      -523.3138
   1   2.0000     -10.317101      -280.7426
   2   2.0000      -1.117950       -30.4210
   3   2.0000      -0.792079       -21.5536
   4   2.0000      -0.597274       -16.2526
   5   2.0000      -0.542329       -14.7575
   6   2.0000      -0.524844       -14.2817
   7   2.0000      -0.423812       -11.5325
   8   2.0000      -0.372340       -10.1319
   9   0.0000       0.090686         2.4677
  10   0.0000       0.110777         3.0144
  11   0.0000       0.145775         3.9667
  12   0.0000       0.174611         4.7514
  13   0.0000       0.195720         5.3258

MULLIKEN ATOMIC CHARGES
-----------------------
   0 C :   -0.000167
   1 O :    0.000015
   2 H :    0.000001
   3 H :   -0.000033
   4 H :    0.000010
   5 H :    0.000024
   6 C :   -0.158706
   7 O :   -0.496256
   8 H :    0.320202
   9 H :    0.104366
  10 H :    0.108938
  11 H :    0.121605
Sum of atomic charges:    0.0000000

LOEWDIN ATOMIC CHARGES
----------------------
   0 C :   -0.000125
   1 O :   -0.000005
   2 H :   -0.000000
   3 H :   -0.000197
   4 H :   -0.000003
   5 H :   -0.000001
   6 C :   -0.376423
   7 O :   -0.119021
   8 H :    0.193263
   9 H :    0.101929
  10 H :    0.093424
  11 H :    0.107158

  Mayer bond orders larger than 0.1
B(  6-C ,  7-O ) :   0.9893 B(  6-C ,  9-H ) :   0.9777 B(  6-C , 10-H ) :   0.9753
B(  6-C , 11-H ) :   0.9710 B(  7-O ,  8-H ) :   0.8876

Dispersion correction           -0.000265219
FINAL SINGLE POINT ENERGY      -115.732193636159

DIPOLE MOMENT
-------------
                                X             Y             Z
Electronic contribution:      1.47244      -0.88458       0.50471
Nuclear contribution   :     -2.02687       0.98764      -0.13946
                        -----------------------------------------
Total Dipole Moment    :     -0.55443       0.10306       0.36525
                        -----------------------------------------
Magnitude (a.u.)       :      0.67188
Magnitude (Debye)      :      1.70779

Rotational constants in cm-1:     4.215488     0.799062     0.778904
Rotational constants in MHz : 126377.164935 23955.266502 23350.940537

                             ****ORCA TERMINATED NORMALLY****
TOTAL RUN TIME: 0 days 0 hours 1 minutes 7 seconds 496 msec
