                         Program Version 4.1.2  - RELEASE  -
|  1> #Run DFT-D3 single point of the dimer
|  2> ! wB97X-D3 def2-TZVP TIGHTSCF  CHELPG PAL8
|  3>
|  4> %base "43_charges"
|  5>
|  6> %scf
|  7> MaxIter 1000
|  8> end
|  9> %output
| 10>   Print[ P_Mayer ] 1
| 11>   Print[ P_NatPop ] 1
| 12>   Print[ P_Hirshfeld ] 1
| 13>   Print[ P_Mulliken ] 1
| 14>   Print [ P_Loewdin ] 1
| 15> end
| 16>
| 17> * xyz 0 1
| 18>   C                      10.538769            -11.833647           1.276454
| 19>   O                      9.190175             -11.804958           1.401057
| 20>   H                      8.884010             -11.609698           2.284324
| 21>   H                      10.999319            -12.680412           0.669984
| 22>   H                      11.005738            -10.876432           0.896081
| 23>   H                      11.001721            -11.967255           2.217853
| 24> *
| 25>
| 26>                          ****END OF INPUT****

CARTESIAN COORDINATES (ANGSTROEM)
---------------------------------
  C     10.538769  -11.833647    1.276454
  O      9.190175  -11.804958    1.401057
  H      8.884010  -11.609698    2.284324
  H     10.999319  -12.680412    0.669984
  H     11.005738  -10.876432    0.896081
  H     11.001721  -11.967255    2.217853

 Total Charge           Charge          ....    0
 Multiplicity           Mult            ....    1
 Number of Electrons    NEL             ....   18
 Basis Dimension        Dim             ....   86

ORBITAL ENERGIES
----------------

  NO   OCC          E(Eh)            E(eV)
   0   2.0000     -19.231923      -523.3272
   1   2.0000     -10.313131      -280.6346
   2   2.0000      -1.155281       -31.4368
   3   2.0000      -0.795760       -21.6537
   4   2.0000      -0.632965       -17.2238
   5   2.0000      -0.539087       -14.6693
   6   2.0000      -0.535504       -14.5718
   7   2.0000      -0.418835       -11.3971
   8   2.0000      -0.371490       -10.1087
   9   0.0000       0.114503         3.1158
  10   0.0000       0.148755         4.0478
  11   0.0000       0.206406         5.6166
  12   0.0000       0.208483         5.6731
  13   0.0000       0.236327         6.4308

MULLIKEN ATOMIC CHARGES
-----------------------
   0 C :   -0.156341
   1 O :   -0.467106
   2 H :    0.326089
   3 H :    0.107143
   4 H :    0.088720
   5 H :    0.101496
Sum of atomic charges:   -0.0000000

LOEWDIN ATOMIC CHARGES
----------------------
   0 C :   -0.441350
   1 O :   -0.027415
   2 H :    0.173395
   3 H :    0.110972
   4 H :    0.097842
   5 H :    0.086556

  Mayer bond orders larger than 0.1
B(  0-C ,  1-O ) :   1.0187 B(  0-C ,  3-H ) :   0.9683 B(  0-C ,  4-H ) :   0.9724
B(  0-C ,  5-H ) :   0.9890 B(  1-O ,  2-H ) :   0.8889

Dispersion correction           -0.000251150
FINAL SINGLE POINT ENERGY      -115.727341558982

DIPOLE MOMENT
-------------
                                X             Y             Z
Electronic contribution:     -2.01147      -0.01287       0.05232
Nuclear contribution   :      2.30035       0.11104       0.55630
                        -----------------------------------------
Total Dipole Moment    :      0.28888       0.09817       0.60863
                        -----------------------------------------
Magnitude (a.u.)       :      0.68082
Magnitude (Debye)      :      1.73051

Rotational constants in cm-1:     4.506046     0.858784     0.838302
Rotational constants in MHz : 135087.872346 25745.709487 25131.648081

                             ****ORCA TERMINATED NORMALLY****
TOTAL RUN TIME: 0 days 0 hours 0 minutes 40 seconds 585 msec
