                         Program Version 4.1.2  - RELEASE  -
|  1> #Run DFT-D3 single point of the dimer
|  2> ! wB97X-D3 def2-TZVP TIGHTSCF CHELPG PMODEL PAL8
|  3>
|  4> %base "13-98_DFT_AB"
|  5>
|  6> %scf
|  7> MaxIter 1000
|  8> end
|  9>
| 10> * xyz 0 1
| 11>   C                      -8.327295            -6.314122            3.863884
| 12>   O                      -7.013995            -6.096790            4.267801
| 13>   H                      -6.519497            -6.634224            3.582791
| 14>   H                      -8.460313            -6.122950            2.836673
| 15>   H                      -8.712477            -7.355026            4.012781
| 16>   H                      -9.101512            -5.635674            4.311855
| 17>   C                      -5.096008            -3.753451            3.326381
| 18>   O                      -5.380777            -2.400970            2.826767
| 19>   H                      -4.569839            -1.883165            2.985100
| 20>   H                      -5.602730            -3.811661            4.240219
| 21>   H                      -5.307437            -4.498748            2.542012
| 22>   H                      -4.063225            -3.850784            3.599259
| 23> *
| 24>
| 25> #Run DFT-D3 single point of the molecule with dimer basis set
| 26> $new_job
| 27> %base "13-98_DFT_A"
| 28> ! wB97X-D3 def2-TZVP TIGHTSCF CHELPG PMODEL
| 29>
| 30> %scf
| 31> MaxIter 1000
| 32> end
| 33>
| 34> * xyz 0 1
| 35>   C                      -8.327295            -6.314122            3.863884
| 36>   O                      -7.013995            -6.096790            4.267801
| 37>   H                      -6.519497            -6.634224            3.582791
| 38>   H                      -8.460313            -6.122950            2.836673
| 39>   H                      -8.712477            -7.355026            4.012781
| 40>   H                      -9.101512            -5.635674            4.311855
| 41>   C                    : -5.096008            -3.753451            3.326381
| 42>   O                    : -5.380777            -2.400970            2.826767
| 43>   H                    : -4.569839            -1.883165            2.985100
| 44>   H                    : -5.602730            -3.811661            4.240219
| 45>   H                    : -5.307437            -4.498748            2.542012
| 46>   H                    : -4.063225            -3.850784            3.599259
| 47> *
| 48>
| 49> #Run DFT-D3 single point of the particle with dimer basis set
| 50> $new_job
| 51> %base "13-98_DFT_B"
| 52> ! wB97X-D3 def2-TZVP TIGHTSCF CHELPG PMODEL
| 53>
| 54> %scf
| 55> MaxIter 1000
| 56> end
| 57>
| 58> * xyz 0 1
| 59>   C                    : -8.327295            -6.314122            3.863884
| 60>   O                    : -7.013995            -6.096790            4.267801
| 61>   H                    : -6.519497            -6.634224            3.582791
| 62>   H                    : -8.460313            -6.122950            2.836673
| 63>   H                    : -8.712477            -7.355026            4.012781
| 64>   H                    : -9.101512            -5.635674            4.311855
| 65>   C                      -5.096008            -3.753451            3.326381
| 66>   O                      -5.380777            -2.400970            2.826767
| 67>   H                      -4.569839            -1.883165            2.985100
| 68>   H                      -5.602730            -3.811661            4.240219
| 69>   H                      -5.307437            -4.498748            2.542012
| 70>   H                      -4.063225            -3.850784            3.599259
| 71> *
| 72>
| 73>                          ****END OF INPUT****
 Total Charge           Charge          ....    0
 Multiplicity           Mult            ....    1
 Number of Electrons    NEL             ....   36
Dispersion correction           -0.001669995
FINAL SINGLE POINT ENERGY      -231.457843052785
Dispersion correction           -0.000231840
FINAL SINGLE POINT ENERGY      -115.728699646637

CARTESIAN COORDINATES (ANGSTROEM)
---------------------------------
  C     -8.327295   -6.314122    3.863884
  O     -7.013995   -6.096790    4.267801
  H     -6.519497   -6.634224    3.582791
  H     -8.460313   -6.122950    2.836673
  H     -8.712477   -7.355026    4.012781
  H     -9.101512   -5.635674    4.311855
  C     -5.096008   -3.753451    3.326381
  O     -5.380777   -2.400970    2.826767
  H     -4.569839   -1.883165    2.985100
  H     -5.602730   -3.811661    4.240219
  H     -5.307437   -4.498748    2.542012
  H     -4.063225   -3.850784    3.599259

 Multiplicity           Mult            ....    1
 Number of Electrons    NEL             ....   18
 Basis Dimension        Dim             ....  172

ORBITAL ENERGIES
----------------

  NO   OCC          E(Eh)            E(eV)
   0   2.0000     -19.226938      -523.1916
   1   2.0000     -10.310508      -280.5632
   2   2.0000      -1.116171       -30.3726
   3   2.0000      -0.799259       -21.7489
   4   2.0000      -0.599893       -16.3239
   5   2.0000      -0.552658       -15.0386
   6   2.0000      -0.509015       -13.8510
   7   2.0000      -0.436665       -11.8823
   8   2.0000      -0.374782       -10.1983
   9   0.0000       0.086517         2.3542
  10   0.0000       0.112890         3.0719
  11   0.0000       0.146893         3.9972
  12   0.0000       0.178567         4.8591
  13   0.0000       0.184115         5.0100

MULLIKEN ATOMIC CHARGES
-----------------------
   0 C :    0.000938
   1 O :   -0.001099
   2 H :   -0.000051
   3 H :   -0.000266
   4 H :    0.000039
   5 H :   -0.000130
   6 C :   -0.181538
   7 O :   -0.485677
   8 H :    0.313568
   9 H :    0.121030
  10 H :    0.123171
  11 H :    0.110017
Sum of atomic charges:   -0.0000000

LOEWDIN ATOMIC CHARGES
----------------------
   0 C :   -0.001096
   1 O :   -0.005443
   2 H :   -0.002444
   3 H :   -0.000113
   4 H :   -0.000010
   5 H :   -0.000044
   6 C :   -0.334485
   7 O :   -0.127060
   8 H :    0.172418
   9 H :    0.094315
  10 H :    0.110170
  11 H :    0.093794

  Mayer bond orders larger than 0.1
B(  6-C ,  7-O ) :   0.9946 B(  6-C ,  9-H ) :   0.9769 B(  6-C , 10-H ) :   0.9695
B(  6-C , 11-H ) :   0.9825 B(  7-O ,  8-H ) :   0.9025

Dispersion correction           -0.000242624
FINAL SINGLE POINT ENERGY      -115.729077161369

DIPOLE MOMENT
-------------
                                X             Y             Z
Electronic contribution:     -0.55426       1.48267      -0.65137
Nuclear contribution   :      1.22065      -1.72962       0.98252
                        -----------------------------------------
Total Dipole Moment    :      0.66639      -0.24695       0.33115
                        -----------------------------------------
Magnitude (a.u.)       :      0.78404
Magnitude (Debye)      :      1.99287

Rotational constants in cm-1:     4.273572     0.790656     0.767653
Rotational constants in MHz : 128118.456599 23703.258853 23013.644064

                             ****ORCA TERMINATED NORMALLY****
TOTAL RUN TIME: 0 days 0 hours 1 minutes 7 seconds 700 msec
