                         Program Version 4.1.2  - RELEASE  -
|  1> #Run DFT-D3 single point of the dimer
|  2> ! wB97X-D3 def2-TZVP TIGHTSCF CHELPG PMODEL PAL8
|  3>
|  4> %base "13-5_DFT_AB"
|  5>
|  6> %scf
|  7> MaxIter 1000
|  8> end
|  9>
| 10> * xyz 0 1
| 11>   C                      -2.257604            -6.993449            -0.918277
| 12>   O                      -2.080523            -8.395982            -0.827367
| 13>   H                      -2.059170            -8.743386            0.111713
| 14>   H                      -1.423130            -6.407729            -0.539471
| 15>   H                      -2.370768            -6.724110            -2.003700
| 16>   H                      -3.147931            -6.621619            -0.383193
| 17>   C                      -3.229925            -9.058745            -4.313825
| 18>   O                      -4.099625            -8.482971            -5.210653
| 19>   H                      -4.230069            -7.588252            -4.890243
| 20>   H                      -2.302949            -8.511018            -4.397252
| 21>   H                      -3.675922            -8.894935            -3.326234
| 22>   H                      -3.092762            -10.182586           -4.421901
| 23> *
| 24>
| 25> #Run DFT-D3 single point of the molecule with dimer basis set
| 26> $new_job
| 27> %base "13-5_DFT_A"
| 28> ! wB97X-D3 def2-TZVP TIGHTSCF CHELPG PMODEL
| 29>
| 30> %scf
| 31> MaxIter 1000
| 32> end
| 33>
| 34> * xyz 0 1
| 35>   C                      -2.257604            -6.993449            -0.918277
| 36>   O                      -2.080523            -8.395982            -0.827367
| 37>   H                      -2.059170            -8.743386            0.111713
| 38>   H                      -1.423130            -6.407729            -0.539471
| 39>   H                      -2.370768            -6.724110            -2.003700
| 40>   H                      -3.147931            -6.621619            -0.383193
| 41>   C                    : -3.229925            -9.058745            -4.313825
| 42>   O                    : -4.099625            -8.482971            -5.210653
| 43>   H                    : -4.230069            -7.588252            -4.890243
| 44>   H                    : -2.302949            -8.511018            -4.397252
| 45>   H                    : -3.675922            -8.894935            -3.326234
| 46>   H                    : -3.092762            -10.182586           -4.421901
| 47> *
| 48>
| 49> #Run DFT-D3 single point of the particle with dimer basis set
| 50> $new_job
| 51> %base "13-5_DFT_B"
| 52> ! wB97X-D3 def2-TZVP TIGHTSCF CHELPG PMODEL
| 53>
| 54> %scf
| 55> MaxIter 1000
| 56> end
| 57>
| 58> * xyz 0 1
| 59>   C                    : -2.257604            -6.993449            -0.918277
| 60>   O                    : -2.080523            -8.395982            -0.827367
| 61>   H                    : -2.059170            -8.743386            0.111713
| 62>   H                    : -1.423130            -6.407729            -0.539471
| 63>   H                    : -2.370768            -6.724110            -2.003700
| 64>   H                    : -3.147931            -6.621619            -0.383193
| 65>   C                      -3.229925            -9.058745            -4.313825
| 66>   O                      -4.099625            -8.482971            -5.210653
| 67>   H                      -4.230069            -7.588252            -4.890243
| 68>   H                      -2.302949            -8.511018            -4.397252
| 69>   H                      -3.675922            -8.894935            -3.326234
| 70>   H                      -3.092762            -10.182586           -4.421901
| 71> *
| 72>
| 73>                          ****END OF INPUT****
 Total Charge           Charge          ....    0
 Multiplicity           Mult            ....    1
 Number of Electrons    NEL             ....   36
Dispersion correction           -0.001576197
FINAL SINGLE POINT ENERGY      -231.464329842331
Dispersion correction           -0.000274567
FINAL SINGLE POINT ENERGY      -115.733910044666

CARTESIAN COORDINATES (ANGSTROEM)
---------------------------------
  C     -2.257604   -6.993449   -0.918277
  O     -2.080523   -8.395982   -0.827367
  H     -2.059170   -8.743386    0.111713
  H     -1.423130   -6.407729   -0.539471
  H     -2.370768   -6.724110   -2.003700
  H     -3.147931   -6.621619   -0.383193
  C     -3.229925   -9.058745   -4.313825
  O     -4.099625   -8.482971   -5.210653
  H     -4.230069   -7.588252   -4.890243
  H     -2.302949   -8.511018   -4.397252
  H     -3.675922   -8.894935   -3.326234
  H     -3.092762  -10.182586   -4.421901

 Multiplicity           Mult            ....    1
 Number of Electrons    NEL             ....   18
 Basis Dimension        Dim             ....  172

ORBITAL ENERGIES
----------------

  NO   OCC          E(Eh)            E(eV)
   0   2.0000     -19.226308      -523.1744
   1   2.0000     -10.313012      -280.6313
   2   2.0000      -1.150679       -31.3116
   3   2.0000      -0.787150       -21.4194
   4   2.0000      -0.614191       -16.7130
   5   2.0000      -0.554887       -15.0992
   6   2.0000      -0.532196       -14.4818
   7   2.0000      -0.427131       -11.6228
   8   2.0000      -0.367647       -10.0042
   9   0.0000       0.076903         2.0926
  10   0.0000       0.114702         3.1212
  11   0.0000       0.154270         4.1979
  12   0.0000       0.164648         4.4803
  13   0.0000       0.183552         4.9947

MULLIKEN ATOMIC CHARGES
-----------------------
   0 C :   -0.001941
   1 O :   -0.000005
   2 H :   -0.000055
   3 H :    0.000026
   4 H :    0.000738
   5 H :    0.000016
   6 C :   -0.163519
   7 O :   -0.464701
   8 H :    0.316922
   9 H :    0.099223
  10 H :    0.096179
  11 H :    0.117116
Sum of atomic charges:   -0.0000000

LOEWDIN ATOMIC CHARGES
----------------------
   0 C :   -0.002920
   1 O :   -0.001427
   2 H :   -0.000096
   3 H :   -0.000033
   4 H :   -0.001418
   5 H :   -0.000061
   6 C :   -0.416556
   7 O :   -0.055062
   8 H :    0.174361
   9 H :    0.091898
  10 H :    0.095043
  11 H :    0.116270

  Mayer bond orders larger than 0.1
B(  6-C ,  7-O ) :   0.9890 B(  6-C ,  9-H ) :   0.9828 B(  6-C , 10-H ) :   0.9917
B(  6-C , 11-H ) :   0.9640 B(  7-O ,  8-H ) :   0.8975

Dispersion correction           -0.000196747
FINAL SINGLE POINT ENERGY      -115.729119450914

DIPOLE MOMENT
-------------
                                X             Y             Z
Electronic contribution:     -1.07759       0.55263      -1.31654
Nuclear contribution   :      1.31007      -0.20726       1.85387
                        -----------------------------------------
Total Dipole Moment    :      0.23248       0.34538       0.53733
                        -----------------------------------------
Magnitude (a.u.)       :      0.67974
Magnitude (Debye)      :      1.72777

Rotational constants in cm-1:     4.170646     0.880132     0.844442
Rotational constants in MHz : 125032.820738 26385.680753 25315.738679

                             ****ORCA TERMINATED NORMALLY****
TOTAL RUN TIME: 0 days 0 hours 1 minutes 9 seconds 335 msec
