                         Program Version 4.1.2  - RELEASE  -
|  1> #Run DFT-D3 single point of the dimer
|  2> ! wB97X-D3 def2-TZVP TIGHTSCF CHELPG PMODEL PAL8
|  3>
|  4> %base "4-12_DFT_AB"
|  5>
|  6> %scf
|  7> MaxIter 1000
|  8> end
|  9>
| 10> * xyz 0 1
| 11>   C                      -3.440480            1.608124             -5.363870
| 12>   O                      -4.023051            1.698251             -6.686188
| 13>   H                      -4.350094            0.892071             -7.073146
| 14>   H                      -4.299878            1.217766             -4.707092
| 15>   H                      -2.598717            0.960056             -5.139841
| 16>   H                      -3.210669            2.597576             -4.898620
| 17>   C                      -5.018905            -1.743590            -3.957946
| 18>   O                      -3.798393            -1.822754            -4.544813
| 19>   H                      -3.886663            -2.545437            -5.139754
| 20>   H                      -5.156204            -2.700977            -3.385999
| 21>   H                      -5.174287            -0.948263            -3.247359
| 22>   H                      -5.845175            -1.622907            -4.729732
| 23> *
| 24>
| 25> #Run DFT-D3 single point of the molecule with dimer basis set
| 26> $new_job
| 27> %base "4-12_DFT_A"
| 28> ! wB97X-D3 def2-TZVP TIGHTSCF CHELPG PMODEL
| 29>
| 30> %scf
| 31> MaxIter 1000
| 32> end
| 33>
| 34> * xyz 0 1
| 35>   C                      -3.440480            1.608124             -5.363870
| 36>   O                      -4.023051            1.698251             -6.686188
| 37>   H                      -4.350094            0.892071             -7.073146
| 38>   H                      -4.299878            1.217766             -4.707092
| 39>   H                      -2.598717            0.960056             -5.139841
| 40>   H                      -3.210669            2.597576             -4.898620
| 41>   C                    : -5.018905            -1.743590            -3.957946
| 42>   O                    : -3.798393            -1.822754            -4.544813
| 43>   H                    : -3.886663            -2.545437            -5.139754
| 44>   H                    : -5.156204            -2.700977            -3.385999
| 45>   H                    : -5.174287            -0.948263            -3.247359
| 46>   H                    : -5.845175            -1.622907            -4.729732
| 47> *
| 48>
| 49> #Run DFT-D3 single point of the particle with dimer basis set
| 50> $new_job
| 51> %base "4-12_DFT_B"
| 52> ! wB97X-D3 def2-TZVP TIGHTSCF CHELPG PMODEL
| 53>
| 54> %scf
| 55> MaxIter 1000
| 56> end
| 57>
| 58> * xyz 0 1
| 59>   C                    : -3.440480            1.608124             -5.363870
| 60>   O                    : -4.023051            1.698251             -6.686188
| 61>   H                    : -4.350094            0.892071             -7.073146
| 62>   H                    : -4.299878            1.217766             -4.707092
| 63>   H                    : -2.598717            0.960056             -5.139841
| 64>   H                    : -3.210669            2.597576             -4.898620
| 65>   C                      -5.018905            -1.743590            -3.957946
| 66>   O                      -3.798393            -1.822754            -4.544813
| 67>   H                      -3.886663            -2.545437            -5.139754
| 68>   H                      -5.156204            -2.700977            -3.385999
| 69>   H                      -5.174287            -0.948263            -3.247359
| 70>   H                      -5.845175            -1.622907            -4.729732
| 71> *
| 72>
| 73>                          ****END OF INPUT****
 Total Charge           Charge          ....    0
 Multiplicity           Mult            ....    1
 Number of Electrons    NEL             ....   36
Dispersion correction           -0.001831225
FINAL SINGLE POINT ENERGY      -231.455240277910
Dispersion correction           -0.000299515
FINAL SINGLE POINT ENERGY      -115.724250147677

CARTESIAN COORDINATES (ANGSTROEM)
---------------------------------
  C     -3.440480    1.608124   -5.363870
  O     -4.023051    1.698251   -6.686188
  H     -4.350094    0.892071   -7.073146
  H     -4.299878    1.217766   -4.707092
  H     -2.598717    0.960056   -5.139841
  H     -3.210669    2.597576   -4.898620
  C     -5.018905   -1.743590   -3.957946
  O     -3.798393   -1.822754   -4.544813
  H     -3.886663   -2.545437   -5.139754
  H     -5.156204   -2.700977   -3.385999
  H     -5.174287   -0.948263   -3.247359
  H     -5.845175   -1.622907   -4.729732

 Multiplicity           Mult            ....    1
 Number of Electrons    NEL             ....   18
 Basis Dimension        Dim             ....  172

ORBITAL ENERGIES
----------------

  NO   OCC          E(Eh)            E(eV)
   0   2.0000     -19.231059      -523.3037
   1   2.0000     -10.315490      -280.6987
   2   2.0000      -1.164587       -31.6900
   3   2.0000      -0.790019       -21.4975
   4   2.0000      -0.620142       -16.8749
   5   2.0000      -0.550406       -14.9773
   6   2.0000      -0.542859       -14.7719
   7   2.0000      -0.429527       -11.6880
   8   2.0000      -0.369370       -10.0511
   9   0.0000       0.091527         2.4906
  10   0.0000       0.125482         3.4145
  11   0.0000       0.155180         4.2227
  12   0.0000       0.165316         4.4985
  13   0.0000       0.197694         5.3795

MULLIKEN ATOMIC CHARGES
-----------------------
   0 C :    0.001799
   1 O :   -0.000161
   2 H :   -0.001069
   3 H :    0.000052
   4 H :   -0.003511
   5 H :   -0.000094
   6 C :   -0.173287
   7 O :   -0.449739
   8 H :    0.317129
   9 H :    0.097552
  10 H :    0.120997
  11 H :    0.090331
Sum of atomic charges:    0.0000000

LOEWDIN ATOMIC CHARGES
----------------------
   0 C :   -0.005667
   1 O :   -0.000054
   2 H :   -0.000511
   3 H :   -0.001774
   4 H :   -0.002935
   5 H :   -0.000062
   6 C :   -0.438162
   7 O :   -0.018340
   8 H :    0.167176
   9 H :    0.099321
  10 H :    0.102933
  11 H :    0.098074

  Mayer bond orders larger than 0.1
B(  6-C ,  7-O ) :   0.9919 B(  6-C ,  9-H ) :   0.9820 B(  6-C , 10-H ) :   0.9710
B(  6-C , 11-H ) :   0.9792 B(  7-O ,  8-H ) :   0.8997

Dispersion correction           -0.000204830
FINAL SINGLE POINT ENERGY      -115.729200231005

DIPOLE MOMENT
-------------
                                X             Y             Z
Electronic contribution:      1.79659       0.13073      -0.69278
Nuclear contribution   :     -2.26703      -0.54340       0.54527
                        -----------------------------------------
Total Dipole Moment    :     -0.47045      -0.41267      -0.14751
                        -----------------------------------------
Magnitude (a.u.)       :      0.64294
Magnitude (Debye)      :      1.63424

Rotational constants in cm-1:     4.224903     0.884577     0.860391
Rotational constants in MHz : 126659.406239 26518.958129 25793.866529

                             ****ORCA TERMINATED NORMALLY****
TOTAL RUN TIME: 0 days 0 hours 1 minutes 31 seconds 200 msec
