                         Program Version 4.1.2  - RELEASE  -
|  1> #Run DFT-D3 single point of the dimer
|  2> ! wB97X-D3 def2-TZVP TIGHTSCF CHELPG PMODEL PAL8
|  3>
|  4> %base "6-2_DFT_AB"
|  5>
|  6> %scf
|  7> MaxIter 1000
|  8> end
|  9>
| 10> * xyz 0 1
| 11>   C                      3.221137             7.634066             8.195643
| 12>   O                      3.982834             7.118366             9.205529
| 13>   H                      4.894659             7.152275             8.965242
| 14>   H                      3.626544             8.552249             7.826368
| 15>   H                      3.290289             6.915142             7.335799
| 16>   H                      2.201108             7.700457             8.443460
| 17>   C                      3.347516             2.510579             7.905746
| 18>   O                      2.922121             1.520003             7.053050
| 19>   H                      3.423921             0.693581             7.132739
| 20>   H                      4.440464             2.763975             7.918784
| 21>   H                      2.761968             3.416181             7.826046
| 22>   H                      3.109263             2.132877             8.914459
| 23> *
| 24>
| 25> #Run DFT-D3 single point of the molecule with dimer basis set
| 26> $new_job
| 27> %base "6-2_DFT_A"
| 28> ! wB97X-D3 def2-TZVP TIGHTSCF CHELPG PMODEL
| 29>
| 30> %scf
| 31> MaxIter 1000
| 32> end
| 33>
| 34> * xyz 0 1
| 35>   C                      3.221137             7.634066             8.195643
| 36>   O                      3.982834             7.118366             9.205529
| 37>   H                      4.894659             7.152275             8.965242
| 38>   H                      3.626544             8.552249             7.826368
| 39>   H                      3.290289             6.915142             7.335799
| 40>   H                      2.201108             7.700457             8.443460
| 41>   C                    : 3.347516             2.510579             7.905746
| 42>   O                    : 2.922121             1.520003             7.053050
| 43>   H                    : 3.423921             0.693581             7.132739
| 44>   H                    : 4.440464             2.763975             7.918784
| 45>   H                    : 2.761968             3.416181             7.826046
| 46>   H                    : 3.109263             2.132877             8.914459
| 47> *
| 48>
| 49> #Run DFT-D3 single point of the particle with dimer basis set
| 50> $new_job
| 51> %base "6-2_DFT_B"
| 52> ! wB97X-D3 def2-TZVP TIGHTSCF CHELPG PMODEL
| 53>
| 54> %scf
| 55> MaxIter 1000
| 56> end
| 57>
| 58> * xyz 0 1
| 59>   C                    : 3.221137             7.634066             8.195643
| 60>   O                    : 3.982834             7.118366             9.205529
| 61>   H                    : 4.894659             7.152275             8.965242
| 62>   H                    : 3.626544             8.552249             7.826368
| 63>   H                    : 3.290289             6.915142             7.335799
| 64>   H                    : 2.201108             7.700457             8.443460
| 65>   C                      3.347516             2.510579             7.905746
| 66>   O                      2.922121             1.520003             7.053050
| 67>   H                      3.423921             0.693581             7.132739
| 68>   H                      4.440464             2.763975             7.918784
| 69>   H                      2.761968             3.416181             7.826046
| 70>   H                      3.109263             2.132877             8.914459
| 71> *
| 72>
| 73>                          ****END OF INPUT****
 Total Charge           Charge          ....    0
 Multiplicity           Mult            ....    1
 Number of Electrons    NEL             ....   36
Dispersion correction           -0.000785392
FINAL SINGLE POINT ENERGY      -231.462824676682
Dispersion correction           -0.000203949
FINAL SINGLE POINT ENERGY      -115.731372010750

CARTESIAN COORDINATES (ANGSTROEM)
---------------------------------
  C      3.221137    7.634066    8.195643
  O      3.982834    7.118366    9.205529
  H      4.894659    7.152275    8.965242
  H      3.626544    8.552249    7.826368
  H      3.290289    6.915142    7.335799
  H      2.201108    7.700457    8.443460
  C      3.347516    2.510579    7.905746
  O      2.922121    1.520003    7.053050
  H      3.423921    0.693581    7.132739
  H      4.440464    2.763975    7.918784
  H      2.761968    3.416181    7.826046
  H      3.109263    2.132877    8.914459

 Multiplicity           Mult            ....    1
 Number of Electrons    NEL             ....   18
 Basis Dimension        Dim             ....  172

ORBITAL ENERGIES
----------------

  NO   OCC          E(Eh)            E(eV)
   0   2.0000     -19.229331      -523.2567
   1   2.0000     -10.312506      -280.6175
   2   2.0000      -1.144008       -31.1300
   3   2.0000      -0.794836       -21.6286
   4   2.0000      -0.617628       -16.8065
   5   2.0000      -0.539481       -14.6800
   6   2.0000      -0.537838       -14.6353
   7   2.0000      -0.425078       -11.5670
   8   2.0000      -0.365999        -9.9593
   9   0.0000       0.083776         2.2797
  10   0.0000       0.115077         3.1314
  11   0.0000       0.149989         4.0814
  12   0.0000       0.162174         4.4130
  13   0.0000       0.192763         5.2453

MULLIKEN ATOMIC CHARGES
-----------------------
   0 C :    0.000084
   1 O :    0.000005
   2 H :   -0.000018
   3 H :   -0.000006
   4 H :   -0.000206
   5 H :   -0.000021
   6 C :   -0.149338
   7 O :   -0.478616
   8 H :    0.322016
   9 H :    0.094738
  10 H :    0.120940
  11 H :    0.090423
Sum of atomic charges:    0.0000000

LOEWDIN ATOMIC CHARGES
----------------------
   0 C :   -0.000165
   1 O :   -0.000013
   2 H :   -0.000016
   3 H :   -0.000002
   4 H :   -0.000177
   5 H :   -0.000008
   6 C :   -0.419986
   7 O :   -0.055029
   8 H :    0.177996
   9 H :    0.096513
  10 H :    0.106170
  11 H :    0.094715

  Mayer bond orders larger than 0.1
B(  6-C ,  7-O ) :   1.0020 B(  6-C ,  9-H ) :   0.9670 B(  6-C , 10-H ) :   0.9692
B(  6-C , 11-H ) :   0.9922 B(  7-O ,  8-H ) :   0.8885

Dispersion correction           -0.000242431
FINAL SINGLE POINT ENERGY      -115.730851994165

DIPOLE MOMENT
-------------
                                X             Y             Z
Electronic contribution:     -0.61153      -1.15785      -1.35071
Nuclear contribution   :      1.07718       0.99986       1.73001
                        -----------------------------------------
Total Dipole Moment    :      0.46564      -0.15799       0.37929
                        -----------------------------------------
Magnitude (a.u.)       :      0.62101
Magnitude (Debye)      :      1.57847

Rotational constants in cm-1:     4.379919     0.856989     0.825838
Rotational constants in MHz : 131306.681390 25691.873368 24757.996974

                             ****ORCA TERMINATED NORMALLY****
TOTAL RUN TIME: 0 days 0 hours 0 minutes 54 seconds 928 msec
