                         Program Version 4.1.2  - RELEASE  -
|  1> #Run DFT-D3 single point of the dimer
|  2> ! wB97X-D3 def2-TZVP TIGHTSCF CHELPG PMODEL PAL8
|  3>
|  4> %base "6-10_DFT_AB"
|  5>
|  6> %scf
|  7> MaxIter 1000
|  8> end
|  9>
| 10> * xyz 0 1
| 11>   C                      -8.943252            -7.348248            2.064146
| 12>   O                      -8.854877            -8.616783            1.511822
| 13>   H                      -9.785357            -8.938947            1.557192
| 14>   H                      -7.983475            -6.876313            1.956709
| 15>   H                      -9.635888            -6.670991            1.500144
| 16>   H                      -9.236388            -7.364689            3.074729
| 17>   C                      -9.719189            -10.032494           4.830573
| 18>   O                      -11.066356           -10.337419           5.061166
| 19>   H                      -11.654622           -9.662701            4.681708
| 20>   H                      -9.196766            -10.910601           4.378142
| 21>   H                      -9.503730            -9.203898            4.141991
| 22>   H                      -9.222030            -9.818260            5.799815
| 23> *
| 24>
| 25> #Run DFT-D3 single point of the molecule with dimer basis set
| 26> $new_job
| 27> %base "6-10_DFT_A"
| 28> ! wB97X-D3 def2-TZVP TIGHTSCF CHELPG PMODEL
| 29>
| 30> %scf
| 31> MaxIter 1000
| 32> end
| 33>
| 34> * xyz 0 1
| 35>   C                      -8.943252            -7.348248            2.064146
| 36>   O                      -8.854877            -8.616783            1.511822
| 37>   H                      -9.785357            -8.938947            1.557192
| 38>   H                      -7.983475            -6.876313            1.956709
| 39>   H                      -9.635888            -6.670991            1.500144
| 40>   H                      -9.236388            -7.364689            3.074729
| 41>   C                    : -9.719189            -10.032494           4.830573
| 42>   O                    : -11.066356           -10.337419           5.061166
| 43>   H                    : -11.654622           -9.662701            4.681708
| 44>   H                    : -9.196766            -10.910601           4.378142
| 45>   H                    : -9.503730            -9.203898            4.141991
| 46>   H                    : -9.222030            -9.818260            5.799815
| 47> *
| 48>
| 49> #Run DFT-D3 single point of the particle with dimer basis set
| 50> $new_job
| 51> %base "6-10_DFT_B"
| 52> ! wB97X-D3 def2-TZVP TIGHTSCF CHELPG PMODEL
| 53>
| 54> %scf
| 55> MaxIter 1000
| 56> end
| 57>
| 58> * xyz 0 1
| 59>   C                    : -8.943252            -7.348248            2.064146
| 60>   O                    : -8.854877            -8.616783            1.511822
| 61>   H                    : -9.785357            -8.938947            1.557192
| 62>   H                    : -7.983475            -6.876313            1.956709
| 63>   H                    : -9.635888            -6.670991            1.500144
| 64>   H                    : -9.236388            -7.364689            3.074729
| 65>   C                      -9.719189            -10.032494           4.830573
| 66>   O                      -11.066356           -10.337419           5.061166
| 67>   H                      -11.654622           -9.662701            4.681708
| 68>   H                      -9.196766            -10.910601           4.378142
| 69>   H                      -9.503730            -9.203898            4.141991
| 70>   H                      -9.222030            -9.818260            5.799815
| 71> *
| 72>
| 73>                          ****END OF INPUT****
 Total Charge           Charge          ....    0
 Multiplicity           Mult            ....    1
 Number of Electrons    NEL             ....   36
Dispersion correction           -0.001740018
FINAL SINGLE POINT ENERGY      -231.468237842062
Dispersion correction           -0.000214062
FINAL SINGLE POINT ENERGY      -115.733700373996

CARTESIAN COORDINATES (ANGSTROEM)
---------------------------------
  C     -8.943252   -7.348248    2.064146
  O     -8.854877   -8.616783    1.511822
  H     -9.785357   -8.938947    1.557192
  H     -7.983475   -6.876313    1.956709
  H     -9.635888   -6.670991    1.500144
  H     -9.236388   -7.364689    3.074729
  C     -9.719189  -10.032494    4.830573
  O    -11.066356  -10.337419    5.061166
  H    -11.654622   -9.662701    4.681708
  H     -9.196766  -10.910601    4.378142
  H     -9.503730   -9.203898    4.141991
  H     -9.222030   -9.818260    5.799815

 Multiplicity           Mult            ....    1
 Number of Electrons    NEL             ....   18
 Basis Dimension        Dim             ....  172

ORBITAL ENERGIES
----------------

  NO   OCC          E(Eh)            E(eV)
   0   2.0000     -19.231446      -523.3142
   1   2.0000     -10.315858      -280.7088
   2   2.0000      -1.136477       -30.9251
   3   2.0000      -0.792503       -21.5651
   4   2.0000      -0.615594       -16.7512
   5   2.0000      -0.537196       -14.6179
   6   2.0000      -0.523907       -14.2562
   7   2.0000      -0.430724       -11.7206
   8   2.0000      -0.370582       -10.0840
   9   0.0000       0.078114         2.1256
  10   0.0000       0.121629         3.3097
  11   0.0000       0.153098         4.1660
  12   0.0000       0.166462         4.5297
  13   0.0000       0.188499         5.1293

MULLIKEN ATOMIC CHARGES
-----------------------
   0 C :   -0.002528
   1 O :    0.000405
   2 H :    0.000624
   3 H :    0.000170
   4 H :   -0.000033
   5 H :    0.002688
   6 C :   -0.160272
   7 O :   -0.475005
   8 H :    0.320175
   9 H :    0.108692
  10 H :    0.097567
  11 H :    0.107518
Sum of atomic charges:    0.0000000

LOEWDIN ATOMIC CHARGES
----------------------
   0 C :   -0.007437
   1 O :   -0.001584
   2 H :   -0.001384
   3 H :   -0.000064
   4 H :   -0.000066
   5 H :   -0.006527
   6 C :   -0.399917
   7 O :   -0.072187
   8 H :    0.177207
   9 H :    0.106526
  10 H :    0.103609
  11 H :    0.101822

  Mayer bond orders larger than 0.1
B(  6-C ,  7-O ) :   1.0110 B(  6-C ,  9-H ) :   0.9761 B(  6-C , 10-H ) :   0.9790
B(  6-C , 11-H ) :   0.9782 B(  7-O ,  8-H ) :   0.8944

Dispersion correction           -0.000266113
FINAL SINGLE POINT ENERGY      -115.734324502996

DIPOLE MOMENT
-------------
                                X             Y             Z
Electronic contribution:     -1.81206      -0.43439       0.33627
Nuclear contribution   :      1.94023       1.00722      -0.69318
                        -----------------------------------------
Total Dipole Moment    :      0.12817       0.57284      -0.35692
                        -----------------------------------------
Magnitude (a.u.)       :      0.68699
Magnitude (Debye)      :      1.74619

Rotational constants in cm-1:     4.290753     0.829492     0.802935
Rotational constants in MHz : 128633.553138 24867.557813 24071.374156

                             ****ORCA TERMINATED NORMALLY****
TOTAL RUN TIME: 0 days 0 hours 1 minutes 5 seconds 398 msec
