                         Program Version 4.1.2  - RELEASE  -
|  1> #Run DFT-D3 single point of the dimer
|  2> ! wB97X-D3 def2-TZVP TIGHTSCF  CHELPG PAL8
|  3>
|  4> %base "149_charges"
|  5>
|  6> %scf
|  7> MaxIter 1000
|  8> end
|  9> %output
| 10>   Print[ P_Mayer ] 1
| 11>   Print[ P_NatPop ] 1
| 12>   Print[ P_Hirshfeld ] 1
| 13>   Print[ P_Mulliken ] 1
| 14>   Print [ P_Loewdin ] 1
| 15> end
| 16>
| 17> * xyz 0 1
| 18>   C                      0.458252             -11.962927           2.044743
| 19>   O                      0.408073             -10.551158           1.904166
| 20>   H                      0.825263             -10.298181           1.069362
| 21>   H                      0.107949             -12.287318           3.062980
| 22>   H                      -0.154144            -12.583286           1.277080
| 23>   H                      1.518287             -12.283146           1.852584
| 24> *
| 25>
| 26>                          ****END OF INPUT****

CARTESIAN COORDINATES (ANGSTROEM)
---------------------------------
  C      0.458252  -11.962927    2.044743
  O      0.408073  -10.551158    1.904166
  H      0.825263  -10.298181    1.069362
  H      0.107949  -12.287318    3.062980
  H     -0.154144  -12.583286    1.277080
  H      1.518287  -12.283146    1.852584

 Total Charge           Charge          ....    0
 Multiplicity           Mult            ....    1
 Number of Electrons    NEL             ....   18
 Basis Dimension        Dim             ....   86

ORBITAL ENERGIES
----------------

  NO   OCC          E(Eh)            E(eV)
   0   2.0000     -19.233747      -523.3769
   1   2.0000     -10.328664      -281.0572
   2   2.0000      -1.134604       -30.8741
   3   2.0000      -0.786877       -21.4120
   4   2.0000      -0.610099       -16.6016
   5   2.0000      -0.534052       -14.5323
   6   2.0000      -0.521373       -14.1873
   7   2.0000      -0.433959       -11.8086
   8   2.0000      -0.370609       -10.0848
   9   0.0000       0.112408         3.0588
  10   0.0000       0.148601         4.0437
  11   0.0000       0.195771         5.3272
  12   0.0000       0.199512         5.4290
  13   0.0000       0.224556         6.1105

MULLIKEN ATOMIC CHARGES
-----------------------
   0 C :   -0.162562
   1 O :   -0.470936
   2 H :    0.317949
   3 H :    0.123638
   4 H :    0.092320
   5 H :    0.099591
Sum of atomic charges:   -0.0000000

LOEWDIN ATOMIC CHARGES
----------------------
   0 C :   -0.398770
   1 O :   -0.085214
   2 H :    0.173075
   3 H :    0.113284
   4 H :    0.099909
   5 H :    0.097716

  Mayer bond orders larger than 0.1
B(  0-C ,  1-O ) :   0.9999 B(  0-C ,  3-H ) :   0.9702 B(  0-C ,  4-H ) :   0.9638
B(  0-C ,  5-H ) :   0.9825 B(  1-O ,  2-H ) :   0.8946

Dispersion correction           -0.000268917
FINAL SINGLE POINT ENERGY      -115.731312705273

DIPOLE MOMENT
-------------
                                X             Y             Z
Electronic contribution:     -0.17724       1.92878       0.02493
Nuclear contribution   :      0.47426      -2.30721      -0.48923
                        -----------------------------------------
Total Dipole Moment    :      0.29702      -0.37843      -0.46430
                        -----------------------------------------
Magnitude (a.u.)       :      0.66858
Magnitude (Debye)      :      1.69940

Rotational constants in cm-1:     4.096146     0.813999     0.779370
Rotational constants in MHz : 122799.371935 24403.061990 23364.935719

                             ****ORCA TERMINATED NORMALLY****
TOTAL RUN TIME: 0 days 0 hours 0 minutes 42 seconds 645 msec
