                         Program Version 4.1.2  - RELEASE  -
|  1> #Run DFT-D3 single point of the dimer
|  2> ! wB97X-D3 def2-TZVP TIGHTSCF CHELPG PMODEL PAL8
|  3>
|  4> %base "17-196_DFT_AB"
|  5>
|  6> %scf
|  7> MaxIter 1000
|  8> end
|  9>
| 10> * xyz 0 1
| 11>   C                      -5.611025            -4.715949            -7.451382
| 12>   O                      -5.543660            -5.230908            -6.116349
| 13>   H                      -6.192667            -4.679153            -5.690467
| 14>   H                      -4.662600            -5.000865            -8.036909
| 15>   H                      -6.562087            -4.983999            -7.957618
| 16>   H                      -5.580742            -3.587623            -7.504509
| 17>   C                      -7.888713            -5.727000            -3.737415
| 18>   O                      -8.341273            -5.141352            -4.937260
| 19>   H                      -8.252618            -5.898438            -5.536439
| 20>   H                      -8.623522            -6.521317            -3.411328
| 21>   H                      -6.856428            -6.102302            -3.832403
| 22>   H                      -7.939163            -4.972137            -2.941490
| 23> *
| 24>
| 25> #Run DFT-D3 single point of the molecule with dimer basis set
| 26> $new_job
| 27> %base "17-196_DFT_A"
| 28> ! wB97X-D3 def2-TZVP TIGHTSCF CHELPG PMODEL
| 29>
| 30> %scf
| 31> MaxIter 1000
| 32> end
| 33>
| 34> * xyz 0 1
| 35>   C                      -5.611025            -4.715949            -7.451382
| 36>   O                      -5.543660            -5.230908            -6.116349
| 37>   H                      -6.192667            -4.679153            -5.690467
| 38>   H                      -4.662600            -5.000865            -8.036909
| 39>   H                      -6.562087            -4.983999            -7.957618
| 40>   H                      -5.580742            -3.587623            -7.504509
| 41>   C                    : -7.888713            -5.727000            -3.737415
| 42>   O                    : -8.341273            -5.141352            -4.937260
| 43>   H                    : -8.252618            -5.898438            -5.536439
| 44>   H                    : -8.623522            -6.521317            -3.411328
| 45>   H                    : -6.856428            -6.102302            -3.832403
| 46>   H                    : -7.939163            -4.972137            -2.941490
| 47> *
| 48>
| 49> #Run DFT-D3 single point of the particle with dimer basis set
| 50> $new_job
| 51> %base "17-196_DFT_B"
| 52> ! wB97X-D3 def2-TZVP TIGHTSCF CHELPG PMODEL
| 53>
| 54> %scf
| 55> MaxIter 1000
| 56> end
| 57>
| 58> * xyz 0 1
| 59>   C                    : -5.611025            -4.715949            -7.451382
| 60>   O                    : -5.543660            -5.230908            -6.116349
| 61>   H                    : -6.192667            -4.679153            -5.690467
| 62>   H                    : -4.662600            -5.000865            -8.036909
| 63>   H                    : -6.562087            -4.983999            -7.957618
| 64>   H                    : -5.580742            -3.587623            -7.504509
| 65>   C                      -7.888713            -5.727000            -3.737415
| 66>   O                      -8.341273            -5.141352            -4.937260
| 67>   H                      -8.252618            -5.898438            -5.536439
| 68>   H                      -8.623522            -6.521317            -3.411328
| 69>   H                      -6.856428            -6.102302            -3.832403
| 70>   H                      -7.939163            -4.972137            -2.941490
| 71> *
| 72>
| 73>                          ****END OF INPUT****
 Total Charge           Charge          ....    0
 Multiplicity           Mult            ....    1
 Number of Electrons    NEL             ....   36
Dispersion correction           -0.001917166
FINAL SINGLE POINT ENERGY      -231.471509623226
Dispersion correction           -0.000249577
FINAL SINGLE POINT ENERGY      -115.730697630548

CARTESIAN COORDINATES (ANGSTROEM)
---------------------------------
  C     -5.611025   -4.715949   -7.451382
  O     -5.543660   -5.230908   -6.116349
  H     -6.192667   -4.679153   -5.690467
  H     -4.662600   -5.000865   -8.036909
  H     -6.562087   -4.983999   -7.957618
  H     -5.580742   -3.587623   -7.504509
  C     -7.888713   -5.727000   -3.737415
  O     -8.341273   -5.141352   -4.937260
  H     -8.252618   -5.898438   -5.536439
  H     -8.623522   -6.521317   -3.411328
  H     -6.856428   -6.102302   -3.832403
  H     -7.939163   -4.972137   -2.941490

 Multiplicity           Mult            ....    1
 Number of Electrons    NEL             ....   18
 Basis Dimension        Dim             ....  172

ORBITAL ENERGIES
----------------

  NO   OCC          E(Eh)            E(eV)
   0   2.0000     -19.234608      -523.4003
   1   2.0000     -10.318020      -280.7676
   2   2.0000      -1.142685       -31.0940
   3   2.0000      -0.787020       -21.4159
   4   2.0000      -0.606968       -16.5164
   5   2.0000      -0.547380       -14.8950
   6   2.0000      -0.524980       -14.2854
   7   2.0000      -0.438466       -11.9313
   8   2.0000      -0.374974       -10.2036
   9   0.0000       0.085451         2.3252
  10   0.0000       0.125752         3.4219
  11   0.0000       0.152106         4.1390
  12   0.0000       0.181322         4.9340
  13   0.0000       0.194452         5.2913

MULLIKEN ATOMIC CHARGES
-----------------------
   0 C :   -0.001167
   1 O :   -0.002995
   2 H :   -0.003124
   3 H :   -0.000127
   4 H :   -0.001265
   5 H :   -0.000043
   6 C :   -0.181976
   7 O :   -0.454456
   8 H :    0.316498
   9 H :    0.105475
  10 H :    0.107516
  11 H :    0.115662
Sum of atomic charges:    0.0000000

LOEWDIN ATOMIC CHARGES
----------------------
   0 C :   -0.003045
   1 O :   -0.005127
   2 H :   -0.017700
   3 H :   -0.000049
   4 H :   -0.000739
   5 H :   -0.000072
   6 C :   -0.399891
   7 O :   -0.060219
   8 H :    0.180260
   9 H :    0.101755
  10 H :    0.097199
  11 H :    0.107627

  Mayer bond orders larger than 0.1
B(  6-C ,  7-O ) :   0.9954 B(  6-C ,  9-H ) :   0.9779 B(  6-C , 10-H ) :   0.9725
B(  6-C , 11-H ) :   0.9763 B(  7-O ,  8-H ) :   0.9009

Dispersion correction           -0.000219115
FINAL SINGLE POINT ENERGY      -115.734207841403

DIPOLE MOMENT
-------------
                                X             Y             Z
Electronic contribution:     -0.53799       0.91151      -1.50507
Nuclear contribution   :      0.74884      -1.57351       1.60658
                        -----------------------------------------
Total Dipole Moment    :      0.21085      -0.66201       0.10152
                        -----------------------------------------
Magnitude (a.u.)       :      0.70215
Magnitude (Debye)      :      1.78473

Rotational constants in cm-1:     4.066090     0.842750     0.816033
Rotational constants in MHz : 121898.304299 25265.001490 24464.048875

                             ****ORCA TERMINATED NORMALLY****
TOTAL RUN TIME: 0 days 0 hours 1 minutes 12 seconds 814 msec
