                         Program Version 4.1.2  - RELEASE  -
|  1> #Run DFT-D3 single point of the dimer
|  2> ! wB97X-D3 def2-TZVP TIGHTSCF CHELPG PMODEL PAL8
|  3>
|  4> %base "12-95_DFT_AB"
|  5>
|  6> %scf
|  7> MaxIter 1000
|  8> end
|  9>
| 10> * xyz 0 1
| 11>   C                      7.069487             6.948817             1.348319
| 12>   O                      6.833436             7.462442             0.067141
| 13>   H                      6.469724             6.786522             -0.512093
| 14>   H                      6.543788             6.020128             1.325691
| 15>   H                      8.106300             6.629288             1.569079
| 16>   H                      6.689718             7.616708             2.082214
| 17>   C                      9.593647             9.761217             -0.123887
| 18>   O                      8.529113             9.505773             -1.008125
| 19>   H                      7.909642             8.855972             -0.683073
| 20>   H                      9.488921             9.329439             0.871033
| 21>   H                      10.485594            9.475938             -0.574217
| 22>   H                      9.706793             10.836368            0.068840
| 23> *
| 24>
| 25> #Run DFT-D3 single point of the molecule with dimer basis set
| 26> $new_job
| 27> %base "12-95_DFT_A"
| 28> ! wB97X-D3 def2-TZVP TIGHTSCF CHELPG PMODEL
| 29>
| 30> %scf
| 31> MaxIter 1000
| 32> end
| 33>
| 34> * xyz 0 1
| 35>   C                      7.069487             6.948817             1.348319
| 36>   O                      6.833436             7.462442             0.067141
| 37>   H                      6.469724             6.786522             -0.512093
| 38>   H                      6.543788             6.020128             1.325691
| 39>   H                      8.106300             6.629288             1.569079
| 40>   H                      6.689718             7.616708             2.082214
| 41>   C                    : 9.593647             9.761217             -0.123887
| 42>   O                    : 8.529113             9.505773             -1.008125
| 43>   H                    : 7.909642             8.855972             -0.683073
| 44>   H                    : 9.488921             9.329439             0.871033
| 45>   H                    : 10.485594            9.475938             -0.574217
| 46>   H                    : 9.706793             10.836368            0.068840
| 47> *
| 48>
| 49> #Run DFT-D3 single point of the particle with dimer basis set
| 50> $new_job
| 51> %base "12-95_DFT_B"
| 52> ! wB97X-D3 def2-TZVP TIGHTSCF CHELPG PMODEL
| 53>
| 54> %scf
| 55> MaxIter 1000
| 56> end
| 57>
| 58> * xyz 0 1
| 59>   C                    : 7.069487             6.948817             1.348319
| 60>   O                    : 6.833436             7.462442             0.067141
| 61>   H                    : 6.469724             6.786522             -0.512093
| 62>   H                    : 6.543788             6.020128             1.325691
| 63>   H                    : 8.106300             6.629288             1.569079
| 64>   H                    : 6.689718             7.616708             2.082214
| 65>   C                      9.593647             9.761217             -0.123887
| 66>   O                      8.529113             9.505773             -1.008125
| 67>   H                      7.909642             8.855972             -0.683073
| 68>   H                      9.488921             9.329439             0.871033
| 69>   H                      10.485594            9.475938             -0.574217
| 70>   H                      9.706793             10.836368            0.068840
| 71> *
| 72>
| 73>                          ****END OF INPUT****
 Total Charge           Charge          ....    0
 Multiplicity           Mult            ....    1
 Number of Electrons    NEL             ....   36
Dispersion correction           -0.001863569
FINAL SINGLE POINT ENERGY      -231.470938085128
Dispersion correction           -0.000230809
FINAL SINGLE POINT ENERGY      -115.729389801671

CARTESIAN COORDINATES (ANGSTROEM)
---------------------------------
  C      7.069487    6.948817    1.348319
  O      6.833436    7.462442    0.067141
  H      6.469724    6.786522   -0.512093
  H      6.543788    6.020128    1.325691
  H      8.106300    6.629288    1.569079
  H      6.689718    7.616708    2.082214
  C      9.593647    9.761217   -0.123887
  O      8.529113    9.505773   -1.008125
  H      7.909642    8.855972   -0.683073
  H      9.488921    9.329439    0.871033
  H     10.485594    9.475938   -0.574217
  H      9.706793   10.836368    0.068840

 Multiplicity           Mult            ....    1
 Number of Electrons    NEL             ....   18
 Basis Dimension        Dim             ....  172

ORBITAL ENERGIES
----------------

  NO   OCC          E(Eh)            E(eV)
   0   2.0000     -19.227585      -523.2092
   1   2.0000     -10.306132      -280.4441
   2   2.0000      -1.135068       -30.8868
   3   2.0000      -0.803554       -21.8658
   4   2.0000      -0.616071       -16.7641
   5   2.0000      -0.545008       -14.8304
   6   2.0000      -0.528131       -14.3712
   7   2.0000      -0.429755       -11.6942
   8   2.0000      -0.371839       -10.1182
   9   0.0000       0.068237         1.8568
  10   0.0000       0.139205         3.7880
  11   0.0000       0.143036         3.8922
  12   0.0000       0.173078         4.7097
  13   0.0000       0.189258         5.1500

MULLIKEN ATOMIC CHARGES
-----------------------
   0 C :   -0.002679
   1 O :   -0.003751
   2 H :   -0.000315
   3 H :   -0.000004
   4 H :    0.000050
   5 H :    0.000199
   6 C :   -0.150505
   7 O :   -0.481605
   8 H :    0.317442
   9 H :    0.103704
  10 H :    0.111749
  11 H :    0.105715
Sum of atomic charges:   -0.0000000

LOEWDIN ATOMIC CHARGES
----------------------
   0 C :   -0.004528
   1 O :   -0.021080
   2 H :   -0.001377
   3 H :   -0.000086
   4 H :   -0.000437
   5 H :   -0.000145
   6 C :   -0.378158
   7 O :   -0.058237
   8 H :    0.174697
   9 H :    0.097844
  10 H :    0.088031
  11 H :    0.103477

  Mayer bond orders larger than 0.1
B(  6-C ,  7-O ) :   0.9934 B(  6-C ,  9-H ) :   0.9761 B(  6-C , 10-H ) :   0.9825
B(  6-C , 11-H ) :   0.9774 B(  7-O ,  8-H ) :   0.9059

Dispersion correction           -0.000255638
FINAL SINGLE POINT ENERGY      -115.732657163848

DIPOLE MOMENT
-------------
                                X             Y             Z
Electronic contribution:     -1.31526      -0.35514      -1.21039
Nuclear contribution   :      1.34450       0.02828       1.79632
                        -----------------------------------------
Total Dipole Moment    :      0.02924      -0.32686       0.58593
                        -----------------------------------------
Magnitude (a.u.)       :      0.67157
Magnitude (Debye)      :      1.70700

Rotational constants in cm-1:     4.562048     0.831627     0.800507
Rotational constants in MHz : 136766.755707 24931.557925 23998.608613

                             ****ORCA TERMINATED NORMALLY****
TOTAL RUN TIME: 0 days 0 hours 0 minutes 48 seconds 423 msec
