                         Program Version 4.1.2  - RELEASE  -
|  1> #Run DFT-D3 single point of the dimer
|  2> ! wB97X-D3 def2-TZVP TIGHTSCF CHELPG PMODEL PAL8
|  3>
|  4> %base "1-72_DFT_AB"
|  5>
|  6> %scf
|  7> MaxIter 1000
|  8> end
|  9>
| 10> * xyz 0 1
| 11>   C                      5.651281             -6.607152            -7.131808
| 12>   O                      4.421029             -6.172387            -6.635053
| 13>   H                      3.846128             -6.941923            -6.443546
| 14>   H                      6.331579             -5.736460            -7.229165
| 15>   H                      6.041744             -7.382705            -6.519006
| 16>   H                      5.543523             -7.079936            -8.062609
| 17>   C                      3.949247             -5.063685            -2.075325
| 18>   O                      3.851596             -3.781010            -1.452229
| 19>   H                      4.393191             -3.186122            -1.967115
| 20>   H                      3.015160             -5.583303            -2.177818
| 21>   H                      4.433456             -5.015239            -3.024332
| 22>   H                      4.566095             -5.591695            -1.365824
| 23> *
| 24>
| 25> #Run DFT-D3 single point of the molecule with dimer basis set
| 26> $new_job
| 27> %base "1-72_DFT_A"
| 28> ! wB97X-D3 def2-TZVP TIGHTSCF CHELPG PMODEL
| 29>
| 30> %scf
| 31> MaxIter 1000
| 32> end
| 33>
| 34> * xyz 0 1
| 35>   C                      5.651281             -6.607152            -7.131808
| 36>   O                      4.421029             -6.172387            -6.635053
| 37>   H                      3.846128             -6.941923            -6.443546
| 38>   H                      6.331579             -5.736460            -7.229165
| 39>   H                      6.041744             -7.382705            -6.519006
| 40>   H                      5.543523             -7.079936            -8.062609
| 41>   C                    : 3.949247             -5.063685            -2.075325
| 42>   O                    : 3.851596             -3.781010            -1.452229
| 43>   H                    : 4.393191             -3.186122            -1.967115
| 44>   H                    : 3.015160             -5.583303            -2.177818
| 45>   H                    : 4.433456             -5.015239            -3.024332
| 46>   H                    : 4.566095             -5.591695            -1.365824
| 47> *
| 48>
| 49> #Run DFT-D3 single point of the particle with dimer basis set
| 50> $new_job
| 51> %base "1-72_DFT_B"
| 52> ! wB97X-D3 def2-TZVP TIGHTSCF CHELPG PMODEL
| 53>
| 54> %scf
| 55> MaxIter 1000
| 56> end
| 57>
| 58> * xyz 0 1
| 59>   C                    : 5.651281             -6.607152            -7.131808
| 60>   O                    : 4.421029             -6.172387            -6.635053
| 61>   H                    : 3.846128             -6.941923            -6.443546
| 62>   H                    : 6.331579             -5.736460            -7.229165
| 63>   H                    : 6.041744             -7.382705            -6.519006
| 64>   H                    : 5.543523             -7.079936            -8.062609
| 65>   C                      3.949247             -5.063685            -2.075325
| 66>   O                      3.851596             -3.781010            -1.452229
| 67>   H                      4.393191             -3.186122            -1.967115
| 68>   H                      3.015160             -5.583303            -2.177818
| 69>   H                      4.433456             -5.015239            -3.024332
| 70>   H                      4.566095             -5.591695            -1.365824
| 71> *
| 72>
| 73>                          ****END OF INPUT****
 Total Charge           Charge          ....    0
 Multiplicity           Mult            ....    1
 Number of Electrons    NEL             ....   36
Dispersion correction           -0.000722607
FINAL SINGLE POINT ENERGY      -231.464790665541
Dispersion correction           -0.000217693
FINAL SINGLE POINT ENERGY      -115.732647723488

CARTESIAN COORDINATES (ANGSTROEM)
---------------------------------
  C      5.651281   -6.607152   -7.131808
  O      4.421029   -6.172387   -6.635053
  H      3.846128   -6.941923   -6.443546
  H      6.331579   -5.736460   -7.229165
  H      6.041744   -7.382705   -6.519006
  H      5.543523   -7.079936   -8.062609
  C      3.949247   -5.063685   -2.075325
  O      3.851596   -3.781010   -1.452229
  H      4.393191   -3.186122   -1.967115
  H      3.015160   -5.583303   -2.177818
  H      4.433456   -5.015239   -3.024332
  H      4.566095   -5.591695   -1.365824

 Multiplicity           Mult            ....    1
 Number of Electrons    NEL             ....   18
 Basis Dimension        Dim             ....  172

ORBITAL ENERGIES
----------------

  NO   OCC          E(Eh)            E(eV)
   0   2.0000     -19.225476      -523.1518
   1   2.0000     -10.306508      -280.4543
   2   2.0000      -1.131735       -30.7961
   3   2.0000      -0.799087       -21.7443
   4   2.0000      -0.610441       -16.6109
   5   2.0000      -0.543693       -14.7946
   6   2.0000      -0.526185       -14.3182
   7   2.0000      -0.439167       -11.9503
   8   2.0000      -0.369100       -10.0437
   9   0.0000       0.079307         2.1581
  10   0.0000       0.115433         3.1411
  11   0.0000       0.147124         4.0035
  12   0.0000       0.171850         4.6763
  13   0.0000       0.181171         4.9299

MULLIKEN ATOMIC CHARGES
-----------------------
   0 C :   -0.000067
   1 O :    0.000010
   2 H :   -0.000052
   3 H :    0.000003
   4 H :   -0.000004
   5 H :   -0.000003
   6 C :   -0.170502
   7 O :   -0.476930
   8 H :    0.312086
   9 H :    0.114459
  10 H :    0.108878
  11 H :    0.112123
Sum of atomic charges:    0.0000000

LOEWDIN ATOMIC CHARGES
----------------------
   0 C :   -0.000078
   1 O :   -0.000093
   2 H :   -0.000060
   3 H :   -0.000003
   4 H :   -0.000006
   5 H :   -0.000002
   6 C :   -0.363979
   7 O :   -0.090602
   8 H :    0.163912
   9 H :    0.098779
  10 H :    0.091921
  11 H :    0.100212

  Mayer bond orders larger than 0.1
B(  6-C ,  7-O ) :   0.9961 B(  6-C ,  9-H ) :   0.9704 B(  6-C , 10-H ) :   0.9825
B(  6-C , 11-H ) :   0.9880 B(  7-O ,  8-H ) :   0.9047

Dispersion correction           -0.000228410
FINAL SINGLE POINT ENERGY      -115.731250548453

DIPOLE MOMENT
-------------
                                X             Y             Z
Electronic contribution:     -0.29111       1.53280       0.75349
Nuclear contribution   :      0.68299      -1.67398      -1.35456
                        -----------------------------------------
Total Dipole Moment    :      0.39188      -0.14118      -0.60107
                        -----------------------------------------
Magnitude (a.u.)       :      0.73129
Magnitude (Debye)      :      1.85880

Rotational constants in cm-1:     4.388331     0.829250     0.798199
Rotational constants in MHz : 131558.865494 24860.289671 23929.403253

                             ****ORCA TERMINATED NORMALLY****
TOTAL RUN TIME: 0 days 0 hours 6 minutes 11 seconds 339 msec
