                         Program Version 4.1.2  - RELEASE  -
|  1> #Run DFT-D3 single point of the dimer
|  2> ! wB97X-D3 def2-TZVP TIGHTSCF CHELPG PMODEL PAL8
|  3>
|  4> %base "14-7_DFT_AB"
|  5>
|  6> %scf
|  7> MaxIter 1000
|  8> end
|  9>
| 10> * xyz 0 1
| 11>   C                      2.263257             -4.148155            5.412082
| 12>   O                      2.954997             -4.750595            6.535683
| 13>   H                      3.854224             -4.751128            6.203519
| 14>   H                      2.189910             -3.055356            5.686844
| 15>   H                      2.686634             -4.323060            4.395248
| 16>   H                      1.297417             -4.690642            5.387383
| 17>   C                      0.607011             -7.194764            7.583531
| 18>   O                      -0.015900            -7.070037            8.815631
| 19>   H                      0.676511             -6.625302            9.362851
| 20>   H                      1.573130             -7.713759            7.717677
| 21>   H                      -0.049744            -7.504817            6.721387
| 22>   H                      0.908719             -6.242453            7.211065
| 23> *
| 24>
| 25> #Run DFT-D3 single point of the molecule with dimer basis set
| 26> $new_job
| 27> %base "14-7_DFT_A"
| 28> ! wB97X-D3 def2-TZVP TIGHTSCF CHELPG PMODEL
| 29>
| 30> %scf
| 31> MaxIter 1000
| 32> end
| 33>
| 34> * xyz 0 1
| 35>   C                      2.263257             -4.148155            5.412082
| 36>   O                      2.954997             -4.750595            6.535683
| 37>   H                      3.854224             -4.751128            6.203519
| 38>   H                      2.189910             -3.055356            5.686844
| 39>   H                      2.686634             -4.323060            4.395248
| 40>   H                      1.297417             -4.690642            5.387383
| 41>   C                    : 0.607011             -7.194764            7.583531
| 42>   O                    : -0.015900            -7.070037            8.815631
| 43>   H                    : 0.676511             -6.625302            9.362851
| 44>   H                    : 1.573130             -7.713759            7.717677
| 45>   H                    : -0.049744            -7.504817            6.721387
| 46>   H                    : 0.908719             -6.242453            7.211065
| 47> *
| 48>
| 49> #Run DFT-D3 single point of the particle with dimer basis set
| 50> $new_job
| 51> %base "14-7_DFT_B"
| 52> ! wB97X-D3 def2-TZVP TIGHTSCF CHELPG PMODEL
| 53>
| 54> %scf
| 55> MaxIter 1000
| 56> end
| 57>
| 58> * xyz 0 1
| 59>   C                    : 2.263257             -4.148155            5.412082
| 60>   O                    : 2.954997             -4.750595            6.535683
| 61>   H                    : 3.854224             -4.751128            6.203519
| 62>   H                    : 2.189910             -3.055356            5.686844
| 63>   H                    : 2.686634             -4.323060            4.395248
| 64>   H                    : 1.297417             -4.690642            5.387383
| 65>   C                      0.607011             -7.194764            7.583531
| 66>   O                      -0.015900            -7.070037            8.815631
| 67>   H                      0.676511             -6.625302            9.362851
| 68>   H                      1.573130             -7.713759            7.717677
| 69>   H                      -0.049744            -7.504817            6.721387
| 70>   H                      0.908719             -6.242453            7.211065
| 71> *
| 72>
| 73>                          ****END OF INPUT****
 Total Charge           Charge          ....    0
 Multiplicity           Mult            ....    1
 Number of Electrons    NEL             ....   36
Dispersion correction           -0.001589231
FINAL SINGLE POINT ENERGY      -231.456211258873
Dispersion correction           -0.000245725
FINAL SINGLE POINT ENERGY      -115.728650976638

CARTESIAN COORDINATES (ANGSTROEM)
---------------------------------
  C      2.263257   -4.148155    5.412082
  O      2.954997   -4.750595    6.535683
  H      3.854224   -4.751128    6.203519
  H      2.189910   -3.055356    5.686844
  H      2.686634   -4.323060    4.395248
  H      1.297417   -4.690642    5.387383
  C      0.607011   -7.194764    7.583531
  O     -0.015900   -7.070037    8.815631
  H      0.676511   -6.625302    9.362851
  H      1.573130   -7.713759    7.717677
  H     -0.049744   -7.504817    6.721387
  H      0.908719   -6.242453    7.211065

 Multiplicity           Mult            ....    1
 Number of Electrons    NEL             ....   18
 Basis Dimension        Dim             ....  172

ORBITAL ENERGIES
----------------

  NO   OCC          E(Eh)            E(eV)
   0   2.0000     -19.234402      -523.3947
   1   2.0000     -10.312485      -280.6170
   2   2.0000      -1.144672       -31.1481
   3   2.0000      -0.789636       -21.4871
   4   2.0000      -0.615479       -16.7480
   5   2.0000      -0.551588       -15.0095
   6   2.0000      -0.522048       -14.2057
   7   2.0000      -0.435400       -11.8478
   8   2.0000      -0.367754       -10.0071
   9   0.0000       0.080877         2.2008
  10   0.0000       0.112379         3.0580
  11   0.0000       0.154187         4.1956
  12   0.0000       0.163885         4.4595
  13   0.0000       0.190286         5.1780

MULLIKEN ATOMIC CHARGES
-----------------------
   0 C :    0.001107
   1 O :   -0.000302
   2 H :   -0.000092
   3 H :   -0.000198
   4 H :   -0.000022
   5 H :   -0.002361
   6 C :   -0.169048
   7 O :   -0.461123
   8 H :    0.318981
   9 H :    0.100689
  10 H :    0.119564
  11 H :    0.092804
Sum of atomic charges:   -0.0000000

LOEWDIN ATOMIC CHARGES
----------------------
   0 C :   -0.004767
   1 O :   -0.004301
   2 H :   -0.000235
   3 H :   -0.000074
   4 H :   -0.000044
   5 H :   -0.004117
   6 C :   -0.419942
   7 O :   -0.067511
   8 H :    0.193577
   9 H :    0.098348
  10 H :    0.118492
  11 H :    0.090575

  Mayer bond orders larger than 0.1
B(  6-C ,  7-O ) :   0.9917 B(  6-C ,  9-H ) :   0.9842 B(  6-C , 10-H ) :   0.9633
B(  6-C , 11-H ) :   0.9839 B(  7-O ,  8-H ) :   0.8938

Dispersion correction           -0.000211582
FINAL SINGLE POINT ENERGY      -115.725528011282

DIPOLE MOMENT
-------------
                                X             Y             Z
Electronic contribution:     -1.07025      -0.06046       1.60991
Nuclear contribution   :      1.72042       0.33501      -1.74313
                        -----------------------------------------
Total Dipole Moment    :      0.65017       0.27455      -0.13322
                        -----------------------------------------
Magnitude (a.u.)       :      0.71822
Magnitude (Debye)      :      1.82557

Rotational constants in cm-1:     4.240240     0.866172     0.817705
Rotational constants in MHz : 127119.195286 25967.172471 24514.193636

                             ****ORCA TERMINATED NORMALLY****
TOTAL RUN TIME: 0 days 0 hours 0 minutes 57 seconds 210 msec
