                         Program Version 4.1.2  - RELEASE  -
|  1> #Run DFT-D3 single point of the dimer
|  2> ! wB97X-D3 def2-TZVP TIGHTSCF CHELPG PMODEL PAL8
|  3>
|  4> %base "21-117_DFT_AB"
|  5>
|  6> %scf
|  7> MaxIter 1000
|  8> end
|  9>
| 10> * xyz 0 1
| 11>   C                      -8.129989            -1.571884            -2.225522
| 12>   O                      -8.222759            -0.794738            -3.392782
| 13>   H                      -9.121631            -0.441350            -3.413433
| 14>   H                      -9.139452            -1.760697            -1.839982
| 15>   H                      -7.694498            -2.543217            -2.506022
| 16>   H                      -7.554481            -1.152967            -1.411598
| 17>   C                      -10.777602           1.030449             -1.777996
| 18>   O                      -10.678284           0.377406             -2.983869
| 19>   H                      -11.158741           0.888158             -3.630139
| 20>   H                      -10.704947           2.088159             -1.815619
| 21>   H                      -11.597081           0.684501             -1.143351
| 22>   H                      -9.859059            0.880859             -1.216230
| 23> *
| 24>
| 25> #Run DFT-D3 single point of the molecule with dimer basis set
| 26> $new_job
| 27> %base "21-117_DFT_A"
| 28> ! wB97X-D3 def2-TZVP TIGHTSCF CHELPG PMODEL
| 29>
| 30> %scf
| 31> MaxIter 1000
| 32> end
| 33>
| 34> * xyz 0 1
| 35>   C                      -8.129989            -1.571884            -2.225522
| 36>   O                      -8.222759            -0.794738            -3.392782
| 37>   H                      -9.121631            -0.441350            -3.413433
| 38>   H                      -9.139452            -1.760697            -1.839982
| 39>   H                      -7.694498            -2.543217            -2.506022
| 40>   H                      -7.554481            -1.152967            -1.411598
| 41>   C                    : -10.777602           1.030449             -1.777996
| 42>   O                    : -10.678284           0.377406             -2.983869
| 43>   H                    : -11.158741           0.888158             -3.630139
| 44>   H                    : -10.704947           2.088159             -1.815619
| 45>   H                    : -11.597081           0.684501             -1.143351
| 46>   H                    : -9.859059            0.880859             -1.216230
| 47> *
| 48>
| 49> #Run DFT-D3 single point of the particle with dimer basis set
| 50> $new_job
| 51> %base "21-117_DFT_B"
| 52> ! wB97X-D3 def2-TZVP TIGHTSCF CHELPG PMODEL
| 53>
| 54> %scf
| 55> MaxIter 1000
| 56> end
| 57>
| 58> * xyz 0 1
| 59>   C                    : -8.129989            -1.571884            -2.225522
| 60>   O                    : -8.222759            -0.794738            -3.392782
| 61>   H                    : -9.121631            -0.441350            -3.413433
| 62>   H                    : -9.139452            -1.760697            -1.839982
| 63>   H                    : -7.694498            -2.543217            -2.506022
| 64>   H                    : -7.554481            -1.152967            -1.411598
| 65>   C                      -10.777602           1.030449             -1.777996
| 66>   O                      -10.678284           0.377406             -2.983869
| 67>   H                      -11.158741           0.888158             -3.630139
| 68>   H                      -10.704947           2.088159             -1.815619
| 69>   H                      -11.597081           0.684501             -1.143351
| 70>   H                      -9.859059            0.880859             -1.216230
| 71> *
| 72>
| 73>                          ****END OF INPUT****
 Total Charge           Charge          ....    0
 Multiplicity           Mult            ....    1
 Number of Electrons    NEL             ....   36
Dispersion correction           -0.002177144
FINAL SINGLE POINT ENERGY      -231.474605471462
Dispersion correction           -0.000239609
FINAL SINGLE POINT ENERGY      -115.734709221265

CARTESIAN COORDINATES (ANGSTROEM)
---------------------------------
  C     -8.129989   -1.571884   -2.225522
  O     -8.222759   -0.794738   -3.392782
  H     -9.121631   -0.441350   -3.413433
  H     -9.139452   -1.760697   -1.839982
  H     -7.694498   -2.543217   -2.506022
  H     -7.554481   -1.152967   -1.411598
  C    -10.777602    1.030449   -1.777996
  O    -10.678284    0.377406   -2.983869
  H    -11.158741    0.888158   -3.630139
  H    -10.704947    2.088159   -1.815619
  H    -11.597081    0.684501   -1.143351
  H     -9.859059    0.880859   -1.216230

 Multiplicity           Mult            ....    1
 Number of Electrons    NEL             ....   18
 Basis Dimension        Dim             ....  172

ORBITAL ENERGIES
----------------

  NO   OCC          E(Eh)            E(eV)
   0   2.0000     -19.232836      -523.3521
   1   2.0000     -10.304067      -280.3879
   2   2.0000      -1.151521       -31.3345
   3   2.0000      -0.800813       -21.7912
   4   2.0000      -0.622374       -16.9357
   5   2.0000      -0.554371       -15.0852
   6   2.0000      -0.528180       -14.3725
   7   2.0000      -0.424849       -11.5607
   8   2.0000      -0.378033       -10.2868
   9   0.0000       0.099365         2.7039
  10   0.0000       0.128070         3.4850
  11   0.0000       0.153614         4.1800
  12   0.0000       0.192183         5.2296
  13   0.0000       0.201556         5.4846

MULLIKEN ATOMIC CHARGES
-----------------------
   0 C :    0.004093
   1 O :   -0.000856
   2 H :   -0.009863
   3 H :   -0.001305
   4 H :   -0.000026
   5 H :   -0.000754
   6 C :   -0.172319
   7 O :   -0.456981
   8 H :    0.314953
   9 H :    0.109272
  10 H :    0.103376
  11 H :    0.110411
Sum of atomic charges:   -0.0000000

LOEWDIN ATOMIC CHARGES
----------------------
   0 C :   -0.006117
   1 O :   -0.007415
   2 H :   -0.055577
   3 H :   -0.002163
   4 H :   -0.000025
   5 H :   -0.000435
   6 C :   -0.414973
   7 O :    0.017267
   8 H :    0.170331
   9 H :    0.091756
  10 H :    0.097502
  11 H :    0.109850

  Mayer bond orders larger than 0.1
B(  6-C ,  7-O ) :   0.9985 B(  6-C ,  9-H ) :   0.9739 B(  6-C , 10-H ) :   0.9742
B(  6-C , 11-H ) :   0.9809 B(  7-O ,  8-H ) :   0.8978

Dispersion correction           -0.000237397
FINAL SINGLE POINT ENERGY      -115.731187703668

DIPOLE MOMENT
-------------
                                X             Y             Z
Electronic contribution:      0.04792      -0.96190      -1.65063
Nuclear contribution   :     -0.35702       1.56298       1.68229
                        -----------------------------------------
Total Dipole Moment    :     -0.30909       0.60107       0.03166
                        -----------------------------------------
Magnitude (a.u.)       :      0.67663
Magnitude (Debye)      :      1.71986

Rotational constants in cm-1:     4.522705     0.855999     0.841200
Rotational constants in MHz : 135587.269886 25662.209839 25218.528213

                             ****ORCA TERMINATED NORMALLY****
TOTAL RUN TIME: 0 days 0 hours 1 minutes 3 seconds 212 msec
