                         Program Version 4.1.2  - RELEASE  -
|  1> #Run DFT-D3 single point of the dimer
|  2> ! wB97X-D3 def2-TZVP TIGHTSCF CHELPG PMODEL PAL8
|  3>
|  4> %base "3-84_DFT_AB"
|  5>
|  6> %scf
|  7> MaxIter 1000
|  8> end
|  9>
| 10> * xyz 0 1
| 11>   C                      -1.179622            -0.680025            6.462159
| 12>   O                      -1.994517            0.038928             7.405688
| 13>   H                      -2.109912            0.907878             7.079844
| 14>   H                      -0.109920            -0.503745            6.727623
| 15>   H                      -1.354234            -1.756892            6.522703
| 16>   H                      -1.366128            -0.313220            5.402350
| 17>   C                      1.467480             2.436894             2.519463
| 18>   O                      1.532638             3.667263             1.792435
| 19>   H                      1.815579             3.425079             0.869417
| 20>   H                      1.252288             2.512821             3.585320
| 21>   H                      0.686186             1.727678             2.137464
| 22>   H                      2.382609             1.925820             2.485749
| 23> *
| 24>
| 25> #Run DFT-D3 single point of the molecule with dimer basis set
| 26> $new_job
| 27> %base "3-84_DFT_A"
| 28> ! wB97X-D3 def2-TZVP TIGHTSCF CHELPG PMODEL
| 29>
| 30> %scf
| 31> MaxIter 1000
| 32> end
| 33>
| 34> * xyz 0 1
| 35>   C                      -1.179622            -0.680025            6.462159
| 36>   O                      -1.994517            0.038928             7.405688
| 37>   H                      -2.109912            0.907878             7.079844
| 38>   H                      -0.109920            -0.503745            6.727623
| 39>   H                      -1.354234            -1.756892            6.522703
| 40>   H                      -1.366128            -0.313220            5.402350
| 41>   C                    : 1.467480             2.436894             2.519463
| 42>   O                    : 1.532638             3.667263             1.792435
| 43>   H                    : 1.815579             3.425079             0.869417
| 44>   H                    : 1.252288             2.512821             3.585320
| 45>   H                    : 0.686186             1.727678             2.137464
| 46>   H                    : 2.382609             1.925820             2.485749
| 47> *
| 48>
| 49> #Run DFT-D3 single point of the particle with dimer basis set
| 50> $new_job
| 51> %base "3-84_DFT_B"
| 52> ! wB97X-D3 def2-TZVP TIGHTSCF CHELPG PMODEL
| 53>
| 54> %scf
| 55> MaxIter 1000
| 56> end
| 57>
| 58> * xyz 0 1
| 59>   C                    : -1.179622            -0.680025            6.462159
| 60>   O                    : -1.994517            0.038928             7.405688
| 61>   H                    : -2.109912            0.907878             7.079844
| 62>   H                    : -0.109920            -0.503745            6.727623
| 63>   H                    : -1.354234            -1.756892            6.522703
| 64>   H                    : -1.366128            -0.313220            5.402350
| 65>   C                      1.467480             2.436894             2.519463
| 66>   O                      1.532638             3.667263             1.792435
| 67>   H                      1.815579             3.425079             0.869417
| 68>   H                      1.252288             2.512821             3.585320
| 69>   H                      0.686186             1.727678             2.137464
| 70>   H                      2.382609             1.925820             2.485749
| 71> *
| 72>
| 73>                          ****END OF INPUT****
 Total Charge           Charge          ....    0
 Multiplicity           Mult            ....    1
 Number of Electrons    NEL             ....   36
Dispersion correction           -0.000660308
FINAL SINGLE POINT ENERGY      -231.464654993625
Dispersion correction           -0.000253585
FINAL SINGLE POINT ENERGY      -115.733812898774

CARTESIAN COORDINATES (ANGSTROEM)
---------------------------------
  C     -1.179622   -0.680025    6.462159
  O     -1.994517    0.038928    7.405688
  H     -2.109912    0.907878    7.079844
  H     -0.109920   -0.503745    6.727623
  H     -1.354234   -1.756892    6.522703
  H     -1.366128   -0.313220    5.402350
  C      1.467480    2.436894    2.519463
  O      1.532638    3.667263    1.792435
  H      1.815579    3.425079    0.869417
  H      1.252288    2.512821    3.585320
  H      0.686186    1.727678    2.137464
  H      2.382609    1.925820    2.485749

 Multiplicity           Mult            ....    1
 Number of Electrons    NEL             ....   18
 Basis Dimension        Dim             ....  172

ORBITAL ENERGIES
----------------

  NO   OCC          E(Eh)            E(eV)
   0   2.0000     -19.236191      -523.4434
   1   2.0000     -10.311723      -280.5963
   2   2.0000      -1.126614       -30.6567
   3   2.0000      -0.797087       -21.6898
   4   2.0000      -0.604341       -16.4450
   5   2.0000      -0.538757       -14.6603
   6   2.0000      -0.528160       -14.3720
   7   2.0000      -0.433617       -11.7993
   8   2.0000      -0.374817       -10.1993
   9   0.0000       0.083423         2.2700
  10   0.0000       0.112032         3.0486
  11   0.0000       0.143006         3.8914
  12   0.0000       0.164360         4.4725
  13   0.0000       0.191571         5.2129

MULLIKEN ATOMIC CHARGES
-----------------------
   0 C :    0.000020
   1 O :    0.000001
   2 H :   -0.000003
   3 H :   -0.000009
   4 H :   -0.000003
   5 H :   -0.000073
   6 C :   -0.183951
   7 O :   -0.475974
   8 H :    0.320581
   9 H :    0.123688
  10 H :    0.101128
  11 H :    0.114595
Sum of atomic charges:    0.0000000

LOEWDIN ATOMIC CHARGES
----------------------
   0 C :   -0.000021
   1 O :   -0.000001
   2 H :   -0.000001
   3 H :   -0.000006
   4 H :   -0.000000
   5 H :   -0.000040
   6 C :   -0.382602
   7 O :   -0.102561
   8 H :    0.191534
   9 H :    0.108312
  10 H :    0.099694
  11 H :    0.085691

  Mayer bond orders larger than 0.1
B(  6-C ,  7-O ) :   0.9980 B(  6-C ,  9-H ) :   0.9717 B(  6-C , 10-H ) :   0.9752
B(  6-C , 11-H ) :   0.9780 B(  7-O ,  8-H ) :   0.8922

Dispersion correction           -0.000253736
FINAL SINGLE POINT ENERGY      -115.730738652821

DIPOLE MOMENT
-------------
                                X             Y             Z
Electronic contribution:      0.07633       1.77628      -0.79637
Nuclear contribution   :      0.09703      -2.42434       0.53733
                        -----------------------------------------
Total Dipole Moment    :      0.17336      -0.64806      -0.25905
                        -----------------------------------------
Magnitude (a.u.)       :      0.71912
Magnitude (Debye)      :      1.82786

Rotational constants in cm-1:     4.412674     0.804936     0.776933
Rotational constants in MHz : 132288.628282 24131.368396 23291.869881

                             ****ORCA TERMINATED NORMALLY****
TOTAL RUN TIME: 0 days 0 hours 6 minutes 15 seconds 118 msec
