                         Program Version 4.1.2  - RELEASE  -
|  1> #Run DFT-D3 single point of the dimer
|  2> ! wB97X-D3 def2-TZVP TIGHTSCF CHELPG PMODEL PAL8
|  3>
|  4> %base "16-132_DFT_AB"
|  5>
|  6> %scf
|  7> MaxIter 1000
|  8> end
|  9>
| 10> * xyz 0 1
| 11>   C                      -5.763177            10.794706            6.945043
| 12>   O                      -5.893133            10.454738            8.266319
| 13>   H                      -6.478443            11.113643            8.738808
| 14>   H                      -6.778517            10.830846            6.337616
| 15>   H                      -5.163623            11.696294            6.813743
| 16>   H                      -5.224453            9.985906             6.412803
| 17>   C                      -9.920008            8.883950             6.843420
| 18>   O                      -9.676618            10.235881            6.367285
| 19>   H                      -10.460500           10.736840            6.502971
| 20>   H                      -10.574296           8.794333             7.667369
| 21>   H                      -10.354068           8.266734             6.057869
| 22>   H                      -8.961995            8.431970             7.171665
| 23> *
| 24>
| 25> #Run DFT-D3 single point of the molecule with dimer basis set
| 26> $new_job
| 27> %base "16-132_DFT_A"
| 28> ! wB97X-D3 def2-TZVP TIGHTSCF CHELPG PMODEL
| 29>
| 30> %scf
| 31> MaxIter 1000
| 32> end
| 33>
| 34> * xyz 0 1
| 35>   C                      -5.763177            10.794706            6.945043
| 36>   O                      -5.893133            10.454738            8.266319
| 37>   H                      -6.478443            11.113643            8.738808
| 38>   H                      -6.778517            10.830846            6.337616
| 39>   H                      -5.163623            11.696294            6.813743
| 40>   H                      -5.224453            9.985906             6.412803
| 41>   C                    : -9.920008            8.883950             6.843420
| 42>   O                    : -9.676618            10.235881            6.367285
| 43>   H                    : -10.460500           10.736840            6.502971
| 44>   H                    : -10.574296           8.794333             7.667369
| 45>   H                    : -10.354068           8.266734             6.057869
| 46>   H                    : -8.961995            8.431970             7.171665
| 47> *
| 48>
| 49> #Run DFT-D3 single point of the particle with dimer basis set
| 50> $new_job
| 51> %base "16-132_DFT_B"
| 52> ! wB97X-D3 def2-TZVP TIGHTSCF CHELPG PMODEL
| 53>
| 54> %scf
| 55> MaxIter 1000
| 56> end
| 57>
| 58> * xyz 0 1
| 59>   C                    : -5.763177            10.794706            6.945043
| 60>   O                    : -5.893133            10.454738            8.266319
| 61>   H                    : -6.478443            11.113643            8.738808
| 62>   H                    : -6.778517            10.830846            6.337616
| 63>   H                    : -5.163623            11.696294            6.813743
| 64>   H                    : -5.224453            9.985906             6.412803
| 65>   C                      -9.920008            8.883950             6.843420
| 66>   O                      -9.676618            10.235881            6.367285
| 67>   H                      -10.460500           10.736840            6.502971
| 68>   H                      -10.574296           8.794333             7.667369
| 69>   H                      -10.354068           8.266734             6.057869
| 70>   H                      -8.961995            8.431970             7.171665
| 71> *
| 72>
| 73>                          ****END OF INPUT****
 Total Charge           Charge          ....    0
 Multiplicity           Mult            ....    1
 Number of Electrons    NEL             ....   36
Dispersion correction           -0.001365526
FINAL SINGLE POINT ENERGY      -231.465487108990
Dispersion correction           -0.000259392
FINAL SINGLE POINT ENERGY      -115.729860118522

CARTESIAN COORDINATES (ANGSTROEM)
---------------------------------
  C     -5.763177   10.794706    6.945043
  O     -5.893133   10.454738    8.266319
  H     -6.478443   11.113643    8.738808
  H     -6.778517   10.830846    6.337616
  H     -5.163623   11.696294    6.813743
  H     -5.224453    9.985906    6.412803
  C     -9.920008    8.883950    6.843420
  O     -9.676618   10.235881    6.367285
  H    -10.460500   10.736840    6.502971
  H    -10.574296    8.794333    7.667369
  H    -10.354068    8.266734    6.057869
  H     -8.961995    8.431970    7.171665

 Multiplicity           Mult            ....    1
 Number of Electrons    NEL             ....   18
 Basis Dimension        Dim             ....  172

ORBITAL ENERGIES
----------------

  NO   OCC          E(Eh)            E(eV)
   0   2.0000     -19.229915      -523.2726
   1   2.0000     -10.313889      -280.6552
   2   2.0000      -1.128986       -30.7213
   3   2.0000      -0.802430       -21.8352
   4   2.0000      -0.611375       -16.6363
   5   2.0000      -0.537490       -14.6258
   6   2.0000      -0.518776       -14.1166
   7   2.0000      -0.441040       -12.0013
   8   2.0000      -0.376991       -10.2584
   9   0.0000       0.094808         2.5798
  10   0.0000       0.123484         3.3602
  11   0.0000       0.150837         4.1045
  12   0.0000       0.172805         4.7023
  13   0.0000       0.187229         5.0948

MULLIKEN ATOMIC CHARGES
-----------------------
   0 C :    0.000859
   1 O :   -0.000115
   2 H :   -0.000343
   3 H :   -0.004526
   4 H :   -0.000031
   5 H :   -0.000059
   6 C :   -0.174418
   7 O :   -0.470751
   8 H :    0.307865
   9 H :    0.112557
  10 H :    0.109807
  11 H :    0.119155
Sum of atomic charges:    0.0000000

LOEWDIN ATOMIC CHARGES
----------------------
   0 C :   -0.001255
   1 O :   -0.000062
   2 H :   -0.000212
   3 H :   -0.004230
   4 H :   -0.000004
   5 H :   -0.000016
   6 C :   -0.353404
   7 O :   -0.088793
   8 H :    0.151944
   9 H :    0.087730
  10 H :    0.096696
  11 H :    0.111607

  Mayer bond orders larger than 0.1
B(  6-C ,  7-O ) :   0.9968 B(  6-C ,  9-H ) :   0.9730 B(  6-C , 10-H ) :   0.9753
B(  6-C , 11-H ) :   0.9766 B(  7-O ,  8-H ) :   0.9054

Dispersion correction           -0.000263407
FINAL SINGLE POINT ENERGY      -115.733638518022

DIPOLE MOMENT
-------------
                                X             Y             Z
Electronic contribution:      0.37489       1.70794      -0.59884
Nuclear contribution   :     -1.00410      -1.95430       0.91011
                        -----------------------------------------
Total Dipole Moment    :     -0.62921      -0.24636       0.31128
                        -----------------------------------------
Magnitude (a.u.)       :      0.74397
Magnitude (Debye)      :      1.89102

Rotational constants in cm-1:     4.445876     0.790948     0.765334
Rotational constants in MHz : 133284.002909 23712.025604 22944.135164

                             ****ORCA TERMINATED NORMALLY****
TOTAL RUN TIME: 0 days 0 hours 1 minutes 5 seconds 887 msec
