                         Program Version 4.1.2  - RELEASE  -
|  1> #Run DFT-D3 single point of the dimer
|  2> ! wB97X-D3 def2-TZVP TIGHTSCF CHELPG PMODEL PAL8
|  3>
|  4> %base "4-108_DFT_AB"
|  5>
|  6> %scf
|  7> MaxIter 1000
|  8> end
|  9>
| 10> * xyz 0 1
| 11>   C                      -2.198624            9.615270             1.579089
| 12>   O                      -2.591249            8.515751             2.357670
| 13>   H                      -3.042198            8.817431             3.150511
| 14>   H                      -2.964768            10.342810            1.400862
| 15>   H                      -1.380174            10.190098            2.092665
| 16>   H                      -1.801923            9.420872             0.610234
| 17>   C                      -4.882683            6.632485             0.494128
| 18>   O                      -3.610325            6.722490             -0.101202
| 19>   H                      -3.030682            7.278502             0.443916
| 20>   H                      -5.590360            7.436227             0.262674
| 21>   H                      -5.379244            5.714653             0.160698
| 22>   H                      -4.821567            6.530011             1.589619
| 23> *
| 24>
| 25> #Run DFT-D3 single point of the molecule with dimer basis set
| 26> $new_job
| 27> %base "4-108_DFT_A"
| 28> ! wB97X-D3 def2-TZVP TIGHTSCF CHELPG PMODEL
| 29>
| 30> %scf
| 31> MaxIter 1000
| 32> end
| 33>
| 34> * xyz 0 1
| 35>   C                      -2.198624            9.615270             1.579089
| 36>   O                      -2.591249            8.515751             2.357670
| 37>   H                      -3.042198            8.817431             3.150511
| 38>   H                      -2.964768            10.342810            1.400862
| 39>   H                      -1.380174            10.190098            2.092665
| 40>   H                      -1.801923            9.420872             0.610234
| 41>   C                    : -4.882683            6.632485             0.494128
| 42>   O                    : -3.610325            6.722490             -0.101202
| 43>   H                    : -3.030682            7.278502             0.443916
| 44>   H                    : -5.590360            7.436227             0.262674
| 45>   H                    : -5.379244            5.714653             0.160698
| 46>   H                    : -4.821567            6.530011             1.589619
| 47> *
| 48>
| 49> #Run DFT-D3 single point of the particle with dimer basis set
| 50> $new_job
| 51> %base "4-108_DFT_B"
| 52> ! wB97X-D3 def2-TZVP TIGHTSCF CHELPG PMODEL
| 53>
| 54> %scf
| 55> MaxIter 1000
| 56> end
| 57>
| 58> * xyz 0 1
| 59>   C                    : -2.198624            9.615270             1.579089
| 60>   O                    : -2.591249            8.515751             2.357670
| 61>   H                    : -3.042198            8.817431             3.150511
| 62>   H                    : -2.964768            10.342810            1.400862
| 63>   H                    : -1.380174            10.190098            2.092665
| 64>   H                    : -1.801923            9.420872             0.610234
| 65>   C                      -4.882683            6.632485             0.494128
| 66>   O                      -3.610325            6.722490             -0.101202
| 67>   H                      -3.030682            7.278502             0.443916
| 68>   H                      -5.590360            7.436227             0.262674
| 69>   H                      -5.379244            5.714653             0.160698
| 70>   H                      -4.821567            6.530011             1.589619
| 71> *
| 72>
| 73>                          ****END OF INPUT****
 Total Charge           Charge          ....    0
 Multiplicity           Mult            ....    1
 Number of Electrons    NEL             ....   36
Dispersion correction           -0.001968397
FINAL SINGLE POINT ENERGY      -231.474067339133
Dispersion correction           -0.000249903
FINAL SINGLE POINT ENERGY      -115.732287169684

CARTESIAN COORDINATES (ANGSTROEM)
---------------------------------
  C     -2.198624    9.615270    1.579089
  O     -2.591249    8.515751    2.357670
  H     -3.042198    8.817431    3.150511
  H     -2.964768   10.342810    1.400862
  H     -1.380174   10.190098    2.092665
  H     -1.801923    9.420872    0.610234
  C     -4.882683    6.632485    0.494128
  O     -3.610325    6.722490   -0.101202
  H     -3.030682    7.278502    0.443916
  H     -5.590360    7.436227    0.262674
  H     -5.379244    5.714653    0.160698
  H     -4.821567    6.530011    1.589619

 Multiplicity           Mult            ....    1
 Number of Electrons    NEL             ....   18
 Basis Dimension        Dim             ....  172

ORBITAL ENERGIES
----------------

  NO   OCC          E(Eh)            E(eV)
   0   2.0000     -19.234006      -523.3839
   1   2.0000     -10.313789      -280.6525
   2   2.0000      -1.136425       -30.9237
   3   2.0000      -0.795921       -21.6581
   4   2.0000      -0.612904       -16.6780
   5   2.0000      -0.540661       -14.7121
   6   2.0000      -0.527797       -14.3621
   7   2.0000      -0.429708       -11.6930
   8   2.0000      -0.375891       -10.2285
   9   0.0000       0.067901         1.8477
  10   0.0000       0.134453         3.6587
  11   0.0000       0.145321         3.9544
  12   0.0000       0.162399         4.4191
  13   0.0000       0.190879         5.1941

MULLIKEN ATOMIC CHARGES
-----------------------
   0 C :   -0.005613
   1 O :   -0.000639
   2 H :   -0.000026
   3 H :    0.000670
   4 H :   -0.000216
   5 H :   -0.000658
   6 C :   -0.172189
   7 O :   -0.471372
   8 H :    0.318850
   9 H :    0.105568
  10 H :    0.119807
  11 H :    0.105819
Sum of atomic charges:    0.0000000

LOEWDIN ATOMIC CHARGES
----------------------
   0 C :   -0.007534
   1 O :   -0.006439
   2 H :   -0.000404
   3 H :   -0.000143
   4 H :   -0.000137
   5 H :   -0.001865
   6 C :   -0.395936
   7 O :   -0.066511
   8 H :    0.178862
   9 H :    0.094653
  10 H :    0.108258
  11 H :    0.097198

  Mayer bond orders larger than 0.1
B(  6-C ,  7-O ) :   0.9971 B(  6-C ,  9-H ) :   0.9675 B(  6-C , 10-H ) :   0.9770
B(  6-C , 11-H ) :   0.9810 B(  7-O ,  8-H ) :   0.9018

Dispersion correction           -0.000259273
FINAL SINGLE POINT ENERGY      -115.736104079722

DIPOLE MOMENT
-------------
                                X             Y             Z
Electronic contribution:      1.66263       0.10614      -0.92002
Nuclear contribution   :     -1.79366       0.18402       1.50487
                        -----------------------------------------
Total Dipole Moment    :     -0.13103       0.29016       0.58484
                        -----------------------------------------
Magnitude (a.u.)       :      0.66588
Magnitude (Debye)      :      1.69254

Rotational constants in cm-1:     4.375256     0.824961     0.797829
Rotational constants in MHz : 131166.863531 24731.722232 23918.305538

                             ****ORCA TERMINATED NORMALLY****
TOTAL RUN TIME: 0 days 0 hours 1 minutes 35 seconds 992 msec
