                         Program Version 4.1.2  - RELEASE  -
|  1> #Run DFT-D3 single point of the dimer
|  2> ! wB97X-D3 def2-TZVP TIGHTSCF CHELPG PMODEL PAL8
|  3>
|  4> %base "19-76_DFT_AB"
|  5>
|  6> %scf
|  7> MaxIter 1000
|  8> end
|  9>
| 10> * xyz 0 1
| 11>   C                      -4.824653            -10.147423           5.995258
| 12>   O                      -3.540694            -9.794573            6.520729
| 13>   H                      -3.402781            -8.849417            6.277806
| 14>   H                      -5.412021            -9.291457            5.854448
| 15>   H                      -4.591156            -10.588656           5.073679
| 16>   H                      -5.447185            -10.807198           6.600243
| 17>   C                      -7.193107            -8.624817            10.539829
| 18>   O                      -6.738471            -9.928603            10.459314
| 19>   H                      -5.824871            -9.846630            10.505111
| 20>   H                      -6.547825            -7.901192            10.145275
| 21>   H                      -8.168304            -8.562995            10.055341
| 22>   H                      -7.328694            -8.438198            11.617668
| 23> *
| 24>
| 25> #Run DFT-D3 single point of the molecule with dimer basis set
| 26> $new_job
| 27> %base "19-76_DFT_A"
| 28> ! wB97X-D3 def2-TZVP TIGHTSCF CHELPG PMODEL
| 29>
| 30> %scf
| 31> MaxIter 1000
| 32> end
| 33>
| 34> * xyz 0 1
| 35>   C                      -4.824653            -10.147423           5.995258
| 36>   O                      -3.540694            -9.794573            6.520729
| 37>   H                      -3.402781            -8.849417            6.277806
| 38>   H                      -5.412021            -9.291457            5.854448
| 39>   H                      -4.591156            -10.588656           5.073679
| 40>   H                      -5.447185            -10.807198           6.600243
| 41>   C                    : -7.193107            -8.624817            10.539829
| 42>   O                    : -6.738471            -9.928603            10.459314
| 43>   H                    : -5.824871            -9.846630            10.505111
| 44>   H                    : -6.547825            -7.901192            10.145275
| 45>   H                    : -8.168304            -8.562995            10.055341
| 46>   H                    : -7.328694            -8.438198            11.617668
| 47> *
| 48>
| 49> #Run DFT-D3 single point of the particle with dimer basis set
| 50> $new_job
| 51> %base "19-76_DFT_B"
| 52> ! wB97X-D3 def2-TZVP TIGHTSCF CHELPG PMODEL
| 53>
| 54> %scf
| 55> MaxIter 1000
| 56> end
| 57>
| 58> * xyz 0 1
| 59>   C                    : -4.824653            -10.147423           5.995258
| 60>   O                    : -3.540694            -9.794573            6.520729
| 61>   H                    : -3.402781            -8.849417            6.277806
| 62>   H                    : -5.412021            -9.291457            5.854448
| 63>   H                    : -4.591156            -10.588656           5.073679
| 64>   H                    : -5.447185            -10.807198           6.600243
| 65>   C                      -7.193107            -8.624817            10.539829
| 66>   O                      -6.738471            -9.928603            10.459314
| 67>   H                      -5.824871            -9.846630            10.505111
| 68>   H                      -6.547825            -7.901192            10.145275
| 69>   H                      -8.168304            -8.562995            10.055341
| 70>   H                      -7.328694            -8.438198            11.617668
| 71> *
| 72>
| 73>                          ****END OF INPUT****
 Total Charge           Charge          ....    0
 Multiplicity           Mult            ....    1
 Number of Electrons    NEL             ....   36
Dispersion correction           -0.000728351
FINAL SINGLE POINT ENERGY      -231.458971887648
Dispersion correction           -0.000224396
FINAL SINGLE POINT ENERGY      -115.727940083344

CARTESIAN COORDINATES (ANGSTROEM)
---------------------------------
  C     -4.824653  -10.147423    5.995258
  O     -3.540694   -9.794573    6.520729
  H     -3.402781   -8.849417    6.277806
  H     -5.412021   -9.291457    5.854448
  H     -4.591156  -10.588656    5.073679
  H     -5.447185  -10.807198    6.600243
  C     -7.193107   -8.624817   10.539829
  O     -6.738471   -9.928603   10.459314
  H     -5.824871   -9.846630   10.505111
  H     -6.547825   -7.901192   10.145275
  H     -8.168304   -8.562995   10.055341
  H     -7.328694   -8.438198   11.617668

 Multiplicity           Mult            ....    1
 Number of Electrons    NEL             ....   18
 Basis Dimension        Dim             ....  172

ORBITAL ENERGIES
----------------

  NO   OCC          E(Eh)            E(eV)
   0   2.0000     -19.224507      -523.1254
   1   2.0000     -10.304767      -280.4070
   2   2.0000      -1.157018       -31.4841
   3   2.0000      -0.798078       -21.7168
   4   2.0000      -0.625299       -17.0152
   5   2.0000      -0.547226       -14.8908
   6   2.0000      -0.529422       -14.4063
   7   2.0000      -0.443765       -12.0755
   8   2.0000      -0.368980       -10.0404
   9   0.0000       0.085161         2.3174
  10   0.0000       0.120928         3.2906
  11   0.0000       0.161111         4.3840
  12   0.0000       0.167070         4.5462
  13   0.0000       0.198240         5.3944

MULLIKEN ATOMIC CHARGES
-----------------------
   0 C :   -0.000077
   1 O :    0.000065
   2 H :    0.000008
   3 H :    0.000083
   4 H :   -0.000074
   5 H :   -0.001154
   6 C :   -0.160721
   7 O :   -0.454275
   8 H :    0.303286
   9 H :    0.106384
  10 H :    0.111441
  11 H :    0.095036
Sum of atomic charges:    0.0000000

LOEWDIN ATOMIC CHARGES
----------------------
   0 C :   -0.000346
   1 O :   -0.000008
   2 H :   -0.000002
   3 H :   -0.000008
   4 H :   -0.000019
   5 H :   -0.000489
   6 C :   -0.398787
   7 O :   -0.035066
   8 H :    0.144818
   9 H :    0.084470
  10 H :    0.107038
  11 H :    0.098399

  Mayer bond orders larger than 0.1
B(  6-C ,  7-O ) :   0.9981 B(  6-C ,  9-H ) :   0.9777 B(  6-C , 10-H ) :   0.9756
B(  6-C , 11-H ) :   0.9862 B(  7-O ,  8-H ) :   0.9142

Dispersion correction           -0.000200834
FINAL SINGLE POINT ENERGY      -115.730149428360

DIPOLE MOMENT
-------------
                                X             Y             Z
Electronic contribution:      0.53802      -1.67510      -0.24290
Nuclear contribution   :     -0.10859       2.22864       0.28476
                        -----------------------------------------
Total Dipole Moment    :      0.42943       0.55354       0.04186
                        -----------------------------------------
Magnitude (a.u.)       :      0.70183
Magnitude (Debye)      :      1.78391

Rotational constants in cm-1:     4.371080     0.877858     0.846318
Rotational constants in MHz : 131041.677598 26317.524383 25371.986840

                             ****ORCA TERMINATED NORMALLY****
TOTAL RUN TIME: 0 days 0 hours 1 minutes 51 seconds 518 msec
