                         Program Version 4.1.2  - RELEASE  -
|  1> #Run DFT-D3 single point of the dimer
|  2> ! wB97X-D3 def2-TZVP TIGHTSCF CHELPG PMODEL PAL8
|  3>
|  4> %base "22-147_DFT_AB"
|  5>
|  6> %scf
|  7> MaxIter 1000
|  8> end
|  9>
| 10> * xyz 0 1
| 11>   C                      4.711376             -9.401158            3.653627
| 12>   O                      4.517502             -8.654134            4.790164
| 13>   H                      4.547553             -9.274433            5.562109
| 14>   H                      4.063894             -10.339325           3.744388
| 15>   H                      4.302707             -8.863721            2.769714
| 16>   H                      5.778902             -9.594835            3.437364
| 17>   C                      3.075295             -2.827477            5.639292
| 18>   O                      3.897030             -3.892923            5.118715
| 19>   H                      3.291712             -4.647159            5.201886
| 20>   H                      2.228805             -3.120906            6.294508
| 21>   H                      3.704886             -2.050128            6.061457
| 22>   H                      2.606120             -2.342759            4.806780
| 23> *
| 24>
| 25> #Run DFT-D3 single point of the molecule with dimer basis set
| 26> $new_job
| 27> %base "22-147_DFT_A"
| 28> ! wB97X-D3 def2-TZVP TIGHTSCF CHELPG PMODEL
| 29>
| 30> %scf
| 31> MaxIter 1000
| 32> end
| 33>
| 34> * xyz 0 1
| 35>   C                      4.711376             -9.401158            3.653627
| 36>   O                      4.517502             -8.654134            4.790164
| 37>   H                      4.547553             -9.274433            5.562109
| 38>   H                      4.063894             -10.339325           3.744388
| 39>   H                      4.302707             -8.863721            2.769714
| 40>   H                      5.778902             -9.594835            3.437364
| 41>   C                    : 3.075295             -2.827477            5.639292
| 42>   O                    : 3.897030             -3.892923            5.118715
| 43>   H                    : 3.291712             -4.647159            5.201886
| 44>   H                    : 2.228805             -3.120906            6.294508
| 45>   H                    : 3.704886             -2.050128            6.061457
| 46>   H                    : 2.606120             -2.342759            4.806780
| 47> *
| 48>
| 49> #Run DFT-D3 single point of the particle with dimer basis set
| 50> $new_job
| 51> %base "22-147_DFT_B"
| 52> ! wB97X-D3 def2-TZVP TIGHTSCF CHELPG PMODEL
| 53>
| 54> %scf
| 55> MaxIter 1000
| 56> end
| 57>
| 58> * xyz 0 1
| 59>   C                    : 4.711376             -9.401158            3.653627
| 60>   O                    : 4.517502             -8.654134            4.790164
| 61>   H                    : 4.547553             -9.274433            5.562109
| 62>   H                    : 4.063894             -10.339325           3.744388
| 63>   H                    : 4.302707             -8.863721            2.769714
| 64>   H                    : 5.778902             -9.594835            3.437364
| 65>   C                      3.075295             -2.827477            5.639292
| 66>   O                      3.897030             -3.892923            5.118715
| 67>   H                      3.291712             -4.647159            5.201886
| 68>   H                      2.228805             -3.120906            6.294508
| 69>   H                      3.704886             -2.050128            6.061457
| 70>   H                      2.606120             -2.342759            4.806780
| 71> *
| 72>
| 73>                          ****END OF INPUT****
 Total Charge           Charge          ....    0
 Multiplicity           Mult            ....    1
 Number of Electrons    NEL             ....   36
Dispersion correction           -0.000604428
FINAL SINGLE POINT ENERGY      -231.462767721073
Dispersion correction           -0.000232962
FINAL SINGLE POINT ENERGY      -115.731603019749

CARTESIAN COORDINATES (ANGSTROEM)
---------------------------------
  C      4.711376   -9.401158    3.653627
  O      4.517502   -8.654134    4.790164
  H      4.547553   -9.274433    5.562109
  H      4.063894  -10.339325    3.744388
  H      4.302707   -8.863721    2.769714
  H      5.778902   -9.594835    3.437364
  C      3.075295   -2.827477    5.639292
  O      3.897030   -3.892923    5.118715
  H      3.291712   -4.647159    5.201886
  H      2.228805   -3.120906    6.294508
  H      3.704886   -2.050128    6.061457
  H      2.606120   -2.342759    4.806780

 Multiplicity           Mult            ....    1
 Number of Electrons    NEL             ....   18
 Basis Dimension        Dim             ....  172

ORBITAL ENERGIES
----------------

  NO   OCC          E(Eh)            E(eV)
   0   2.0000     -19.233486      -523.3697
   1   2.0000     -10.312962      -280.6300
   2   2.0000      -1.130349       -30.7583
   3   2.0000      -0.795370       -21.6431
   4   2.0000      -0.606692       -16.5089
   5   2.0000      -0.531346       -14.4587
   6   2.0000      -0.523535       -14.2461
   7   2.0000      -0.450932       -12.2705
   8   2.0000      -0.371178       -10.1003
   9   0.0000       0.085763         2.3337
  10   0.0000       0.111800         3.0422
  11   0.0000       0.151542         4.1237
  12   0.0000       0.166717         4.5366
  13   0.0000       0.190733         5.1901

MULLIKEN ATOMIC CHARGES
-----------------------
   0 C :   -0.000012
   1 O :   -0.000009
   2 H :   -0.000001
   3 H :    0.000000
   4 H :   -0.000002
   5 H :    0.000000
   6 C :   -0.188274
   7 O :   -0.465400
   8 H :    0.313245
   9 H :    0.110601
  10 H :    0.121731
  11 H :    0.108120
Sum of atomic charges:   -0.0000000

LOEWDIN ATOMIC CHARGES
----------------------
   0 C :   -0.000006
   1 O :   -0.000018
   2 H :   -0.000003
   3 H :   -0.000000
   4 H :   -0.000001
   5 H :   -0.000000
   6 C :   -0.373616
   7 O :   -0.100614
   8 H :    0.176165
   9 H :    0.100700
  10 H :    0.104925
  11 H :    0.092468

  Mayer bond orders larger than 0.1
B(  6-C ,  7-O ) :   1.0019 B(  6-C ,  9-H ) :   0.9745 B(  6-C , 10-H ) :   0.9763
B(  6-C , 11-H ) :   0.9788 B(  7-O ,  8-H ) :   0.9037

Dispersion correction           -0.000243810
FINAL SINGLE POINT ENERGY      -115.730776900873

DIPOLE MOMENT
-------------
                                X             Y             Z
Electronic contribution:      1.20711      -1.32144      -0.57090
Nuclear contribution   :     -1.91862       1.29095       0.81378
                        -----------------------------------------
Total Dipole Moment    :     -0.71151      -0.03048       0.24287
                        -----------------------------------------
Magnitude (a.u.)       :      0.75243
Magnitude (Debye)      :      1.91254

Rotational constants in cm-1:     4.277529     0.817041     0.773611
Rotational constants in MHz : 128237.091407 24494.282620 23192.279532

                             ****ORCA TERMINATED NORMALLY****
TOTAL RUN TIME: 0 days 0 hours 0 minutes 52 seconds 125 msec
