                         Program Version 4.1.2  - RELEASE  -
|  1> #Run DFT-D3 single point of the dimer
|  2> ! wB97X-D3 def2-TZVP TIGHTSCF CHELPG PMODEL PAL8
|  3>
|  4> %base "21-27_DFT_AB"
|  5>
|  6> %scf
|  7> MaxIter 1000
|  8> end
|  9>
| 10> * xyz 0 1
| 11>   C                      -3.092686            -1.451874            10.711364
| 12>   O                      -2.273163            -2.540808            10.545648
| 13>   H                      -2.684214            -3.268882            11.063944
| 14>   H                      -4.148534            -1.721086            10.677316
| 15>   H                      -2.829864            -0.967831            11.633750
| 16>   H                      -2.944506            -0.806253            9.884226
| 17>   C                      -3.176130            2.800931             11.688578
| 18>   O                      -3.653896            3.525081             10.601959
| 19>   H                      -4.002284            2.830228             10.011412
| 20>   H                      -2.122953            2.613890             11.649572
| 21>   H                      -3.325112            3.347833             12.639008
| 22>   H                      -3.590923            1.782619             11.774052
| 23> *
| 24>
| 25> #Run DFT-D3 single point of the molecule with dimer basis set
| 26> $new_job
| 27> %base "21-27_DFT_A"
| 28> ! wB97X-D3 def2-TZVP TIGHTSCF CHELPG PMODEL
| 29>
| 30> %scf
| 31> MaxIter 1000
| 32> end
| 33>
| 34> * xyz 0 1
| 35>   C                      -3.092686            -1.451874            10.711364
| 36>   O                      -2.273163            -2.540808            10.545648
| 37>   H                      -2.684214            -3.268882            11.063944
| 38>   H                      -4.148534            -1.721086            10.677316
| 39>   H                      -2.829864            -0.967831            11.633750
| 40>   H                      -2.944506            -0.806253            9.884226
| 41>   C                    : -3.176130            2.800931             11.688578
| 42>   O                    : -3.653896            3.525081             10.601959
| 43>   H                    : -4.002284            2.830228             10.011412
| 44>   H                    : -2.122953            2.613890             11.649572
| 45>   H                    : -3.325112            3.347833             12.639008
| 46>   H                    : -3.590923            1.782619             11.774052
| 47> *
| 48>
| 49> #Run DFT-D3 single point of the particle with dimer basis set
| 50> $new_job
| 51> %base "21-27_DFT_B"
| 52> ! wB97X-D3 def2-TZVP TIGHTSCF CHELPG PMODEL
| 53>
| 54> %scf
| 55> MaxIter 1000
| 56> end
| 57>
| 58> * xyz 0 1
| 59>   C                    : -3.092686            -1.451874            10.711364
| 60>   O                    : -2.273163            -2.540808            10.545648
| 61>   H                    : -2.684214            -3.268882            11.063944
| 62>   H                    : -4.148534            -1.721086            10.677316
| 63>   H                    : -2.829864            -0.967831            11.633750
| 64>   H                    : -2.944506            -0.806253            9.884226
| 65>   C                      -3.176130            2.800931             11.688578
| 66>   O                      -3.653896            3.525081             10.601959
| 67>   H                      -4.002284            2.830228             10.011412
| 68>   H                      -2.122953            2.613890             11.649572
| 69>   H                      -3.325112            3.347833             12.639008
| 70>   H                      -3.590923            1.782619             11.774052
| 71> *
| 72>
| 73>                          ****END OF INPUT****
 Total Charge           Charge          ....    0
 Multiplicity           Mult            ....    1
 Number of Electrons    NEL             ....   36
Dispersion correction           -0.001149385
FINAL SINGLE POINT ENERGY      -231.465739595302
Dispersion correction           -0.000205283
FINAL SINGLE POINT ENERGY      -115.732822511836

CARTESIAN COORDINATES (ANGSTROEM)
---------------------------------
  C     -3.092686   -1.451874   10.711364
  O     -2.273163   -2.540808   10.545648
  H     -2.684214   -3.268882   11.063944
  H     -4.148534   -1.721086   10.677316
  H     -2.829864   -0.967831   11.633750
  H     -2.944506   -0.806253    9.884226
  C     -3.176130    2.800931   11.688578
  O     -3.653896    3.525081   10.601959
  H     -4.002284    2.830228   10.011412
  H     -2.122953    2.613890   11.649572
  H     -3.325112    3.347833   12.639008
  H     -3.590923    1.782619   11.774052

 Multiplicity           Mult            ....    1
 Number of Electrons    NEL             ....   18
 Basis Dimension        Dim             ....  172

ORBITAL ENERGIES
----------------

  NO   OCC          E(Eh)            E(eV)
   0   2.0000     -19.235429      -523.4226
   1   2.0000     -10.310188      -280.5545
   2   2.0000      -1.145383       -31.1674
   3   2.0000      -0.792670       -21.5697
   4   2.0000      -0.617856       -16.8127
   5   2.0000      -0.537743       -14.6327
   6   2.0000      -0.531237       -14.4557
   7   2.0000      -0.439893       -11.9701
   8   2.0000      -0.371508       -10.1093
   9   0.0000       0.074385         2.0241
  10   0.0000       0.113378         3.0852
  11   0.0000       0.149217         4.0604
  12   0.0000       0.175066         4.7638
  13   0.0000       0.183311         4.9882

MULLIKEN ATOMIC CHARGES
-----------------------
   0 C :    0.000860
   1 O :    0.000007
   2 H :   -0.000001
   3 H :   -0.000136
   4 H :   -0.001094
   5 H :   -0.000024
   6 C :   -0.174017
   7 O :   -0.458880
   8 H :    0.319239
   9 H :    0.102284
  10 H :    0.112636
  11 H :    0.099126
Sum of atomic charges:    0.0000000

LOEWDIN ATOMIC CHARGES
----------------------
   0 C :   -0.001740
   1 O :   -0.000009
   2 H :   -0.000003
   3 H :   -0.000051
   4 H :   -0.001285
   5 H :   -0.000197
   6 C :   -0.413164
   7 O :   -0.063259
   8 H :    0.185887
   9 H :    0.089394
  10 H :    0.106850
  11 H :    0.097575

  Mayer bond orders larger than 0.1
B(  6-C ,  7-O ) :   1.0162 B(  6-C ,  9-H ) :   0.9733 B(  6-C , 10-H ) :   0.9759
B(  6-C , 11-H ) :   0.9854 B(  7-O ,  8-H ) :   0.8983

Dispersion correction           -0.000235325
FINAL SINGLE POINT ENERGY      -115.732462955894

DIPOLE MOMENT
-------------
                                X             Y             Z
Electronic contribution:     -0.65462       1.15160      -1.44355
Nuclear contribution   :      0.61567      -1.86722       1.47045
                        -----------------------------------------
Total Dipole Moment    :     -0.03895      -0.71562       0.02689
                        -----------------------------------------
Magnitude (a.u.)       :      0.71719
Magnitude (Debye)      :      1.82295

Rotational constants in cm-1:     4.329573     0.856938     0.813125
Rotational constants in MHz : 129797.321657 25690.364440 24376.860576

                             ****ORCA TERMINATED NORMALLY****
TOTAL RUN TIME: 0 days 0 hours 1 minutes 1 seconds 735 msec
