                         Program Version 4.1.2  - RELEASE  -
|  1> #Run DFT-D3 single point of the dimer
|  2> ! wB97X-D3 def2-TZVP TIGHTSCF CHELPG PMODEL PAL8
|  3>
|  4> %base "17-25_DFT_AB"
|  5>
|  6> %scf
|  7> MaxIter 1000
|  8> end
|  9>
| 10> * xyz 0 1
| 11>   C                      -1.552654            -0.347999            4.263472
| 12>   O                      -0.675985            -0.786314            3.238730
| 13>   H                      -1.311521            -0.903148            2.507645
| 14>   H                      -1.893925            0.644904             3.934240
| 15>   H                      -2.420135            -0.936720            4.503697
| 16>   H                      -1.047543            -0.169033            5.200596
| 17>   C                      -0.007571            2.884202             0.553842
| 18>   O                      -0.961278            2.596705             -0.447890
| 19>   H                      -1.309672            3.448110             -0.727636
| 20>   H                      -0.458122            3.474589             1.324680
| 21>   H                      0.421138             2.083740             1.150053
| 22>   H                      0.747337             3.588553             0.238310
| 23> *
| 24>
| 25> #Run DFT-D3 single point of the molecule with dimer basis set
| 26> $new_job
| 27> %base "17-25_DFT_A"
| 28> ! wB97X-D3 def2-TZVP TIGHTSCF CHELPG PMODEL
| 29>
| 30> %scf
| 31> MaxIter 1000
| 32> end
| 33>
| 34> * xyz 0 1
| 35>   C                      -1.552654            -0.347999            4.263472
| 36>   O                      -0.675985            -0.786314            3.238730
| 37>   H                      -1.311521            -0.903148            2.507645
| 38>   H                      -1.893925            0.644904             3.934240
| 39>   H                      -2.420135            -0.936720            4.503697
| 40>   H                      -1.047543            -0.169033            5.200596
| 41>   C                    : -0.007571            2.884202             0.553842
| 42>   O                    : -0.961278            2.596705             -0.447890
| 43>   H                    : -1.309672            3.448110             -0.727636
| 44>   H                    : -0.458122            3.474589             1.324680
| 45>   H                    : 0.421138             2.083740             1.150053
| 46>   H                    : 0.747337             3.588553             0.238310
| 47> *
| 48>
| 49> #Run DFT-D3 single point of the particle with dimer basis set
| 50> $new_job
| 51> %base "17-25_DFT_B"
| 52> ! wB97X-D3 def2-TZVP TIGHTSCF CHELPG PMODEL
| 53>
| 54> %scf
| 55> MaxIter 1000
| 56> end
| 57>
| 58> * xyz 0 1
| 59>   C                    : -1.552654            -0.347999            4.263472
| 60>   O                    : -0.675985            -0.786314            3.238730
| 61>   H                    : -1.311521            -0.903148            2.507645
| 62>   H                    : -1.893925            0.644904             3.934240
| 63>   H                    : -2.420135            -0.936720            4.503697
| 64>   H                    : -1.047543            -0.169033            5.200596
| 65>   C                      -0.007571            2.884202             0.553842
| 66>   O                      -0.961278            2.596705             -0.447890
| 67>   H                      -1.309672            3.448110             -0.727636
| 68>   H                      -0.458122            3.474589             1.324680
| 69>   H                      0.421138             2.083740             1.150053
| 70>   H                      0.747337             3.588553             0.238310
| 71> *
| 72>
| 73>                          ****END OF INPUT****
 Total Charge           Charge          ....    0
 Multiplicity           Mult            ....    1
 Number of Electrons    NEL             ....   36
Dispersion correction           -0.000872425
FINAL SINGLE POINT ENERGY      -231.459384338987
Dispersion correction           -0.000224197
FINAL SINGLE POINT ENERGY      -115.731008976242

CARTESIAN COORDINATES (ANGSTROEM)
---------------------------------
  C     -1.552654   -0.347999    4.263472
  O     -0.675985   -0.786314    3.238730
  H     -1.311521   -0.903148    2.507645
  H     -1.893925    0.644904    3.934240
  H     -2.420135   -0.936720    4.503697
  H     -1.047543   -0.169033    5.200596
  C     -0.007571    2.884202    0.553842
  O     -0.961278    2.596705   -0.447890
  H     -1.309672    3.448110   -0.727636
  H     -0.458122    3.474589    1.324680
  H      0.421138    2.083740    1.150053
  H      0.747337    3.588553    0.238310

 Multiplicity           Mult            ....    1
 Number of Electrons    NEL             ....   18
 Basis Dimension        Dim             ....  172

ORBITAL ENERGIES
----------------

  NO   OCC          E(Eh)            E(eV)
   0   2.0000     -19.233218      -523.3625
   1   2.0000     -10.308278      -280.5025
   2   2.0000      -1.138847       -30.9896
   3   2.0000      -0.801677       -21.8147
   4   2.0000      -0.616692       -16.7811
   5   2.0000      -0.542797       -14.7703
   6   2.0000      -0.526969       -14.3396
   7   2.0000      -0.438456       -11.9310
   8   2.0000      -0.370132       -10.0718
   9   0.0000       0.085402         2.3239
  10   0.0000       0.115125         3.1327
  11   0.0000       0.147888         4.0242
  12   0.0000       0.166458         4.5296
  13   0.0000       0.193522         5.2660

MULLIKEN ATOMIC CHARGES
-----------------------
   0 C :   -0.000185
   1 O :    0.000024
   2 H :    0.000017
   3 H :    0.000102
   4 H :    0.000001
   5 H :    0.000006
   6 C :   -0.189432
   7 O :   -0.468343
   8 H :    0.318831
   9 H :    0.104335
  10 H :    0.127407
  11 H :    0.107237
Sum of atomic charges:    0.0000000

LOEWDIN ATOMIC CHARGES
----------------------
   0 C :   -0.000078
   1 O :   -0.000082
   2 H :   -0.000061
   3 H :   -0.000031
   4 H :   -0.000001
   5 H :   -0.000001
   6 C :   -0.394315
   7 O :   -0.074538
   8 H :    0.174775
   9 H :    0.091685
  10 H :    0.109552
  11 H :    0.093094

  Mayer bond orders larger than 0.1
B(  6-C ,  7-O ) :   0.9939 B(  6-C ,  9-H ) :   0.9831 B(  6-C , 10-H ) :   0.9705
B(  6-C , 11-H ) :   0.9775 B(  7-O ,  8-H ) :   0.8963

Dispersion correction           -0.000231028
FINAL SINGLE POINT ENERGY      -115.727068601682

DIPOLE MOMENT
-------------
                                X             Y             Z
Electronic contribution:     -1.16957      -0.73468      -1.42601
Nuclear contribution   :      1.31356       1.40392       1.68112
                        -----------------------------------------
Total Dipole Moment    :      0.14399       0.66925       0.25511
                        -----------------------------------------
Magnitude (a.u.)       :      0.73055
Magnitude (Debye)      :      1.85691

Rotational constants in cm-1:     4.581917     0.829273     0.790148
Rotational constants in MHz : 137362.429434 24860.984085 23688.036578

                             ****ORCA TERMINATED NORMALLY****
TOTAL RUN TIME: 0 days 0 hours 0 minutes 59 seconds 556 msec
