                         Program Version 4.1.2  - RELEASE  -
|  1> #Run DFT-D3 single point of the dimer
|  2> ! wB97X-D3 def2-TZVP TIGHTSCF CHELPG PMODEL PAL8
|  3>
|  4> %base "3-144_DFT_AB"
|  5>
|  6> %scf
|  7> MaxIter 1000
|  8> end
|  9>
| 10> * xyz 0 1
| 11>   C                      -3.609709            -6.212238            11.084964
| 12>   O                      -4.364734            -5.445713            10.082139
| 13>   H                      -4.900436            -4.779414            10.518448
| 14>   H                      -3.996064            -6.014864            12.063790
| 15>   H                      -3.631724            -7.334633            10.985328
| 16>   H                      -2.523652            -5.863047            11.239573
| 17>   C                      -3.648083            -3.106244            7.444514
| 18>   O                      -2.585159            -3.555691            8.296022
| 19>   H                      -2.618639            -3.061493            9.095974
| 20>   H                      -4.637331            -3.557674            7.707565
| 21>   H                      -3.848473            -2.049444            7.504523
| 22>   H                      -3.362883            -3.143375            6.377812
| 23> *
| 24>
| 25> #Run DFT-D3 single point of the molecule with dimer basis set
| 26> $new_job
| 27> %base "3-144_DFT_A"
| 28> ! wB97X-D3 def2-TZVP TIGHTSCF CHELPG PMODEL
| 29>
| 30> %scf
| 31> MaxIter 1000
| 32> end
| 33>
| 34> * xyz 0 1
| 35>   C                      -3.609709            -6.212238            11.084964
| 36>   O                      -4.364734            -5.445713            10.082139
| 37>   H                      -4.900436            -4.779414            10.518448
| 38>   H                      -3.996064            -6.014864            12.063790
| 39>   H                      -3.631724            -7.334633            10.985328
| 40>   H                      -2.523652            -5.863047            11.239573
| 41>   C                    : -3.648083            -3.106244            7.444514
| 42>   O                    : -2.585159            -3.555691            8.296022
| 43>   H                    : -2.618639            -3.061493            9.095974
| 44>   H                    : -4.637331            -3.557674            7.707565
| 45>   H                    : -3.848473            -2.049444            7.504523
| 46>   H                    : -3.362883            -3.143375            6.377812
| 47> *
| 48>
| 49> #Run DFT-D3 single point of the particle with dimer basis set
| 50> $new_job
| 51> %base "3-144_DFT_B"
| 52> ! wB97X-D3 def2-TZVP TIGHTSCF CHELPG PMODEL
| 53>
| 54> %scf
| 55> MaxIter 1000
| 56> end
| 57>
| 58> * xyz 0 1
| 59>   C                    : -3.609709            -6.212238            11.084964
| 60>   O                    : -4.364734            -5.445713            10.082139
| 61>   H                    : -4.900436            -4.779414            10.518448
| 62>   H                    : -3.996064            -6.014864            12.063790
| 63>   H                    : -3.631724            -7.334633            10.985328
| 64>   H                    : -2.523652            -5.863047            11.239573
| 65>   C                      -3.648083            -3.106244            7.444514
| 66>   O                      -2.585159            -3.555691            8.296022
| 67>   H                      -2.618639            -3.061493            9.095974
| 68>   H                      -4.637331            -3.557674            7.707565
| 69>   H                      -3.848473            -2.049444            7.504523
| 70>   H                      -3.362883            -3.143375            6.377812
| 71> *
| 72>
| 73>                          ****END OF INPUT****
 Total Charge           Charge          ....    0
 Multiplicity           Mult            ....    1
 Number of Electrons    NEL             ....   36
Dispersion correction           -0.001749308
FINAL SINGLE POINT ENERGY      -231.454722180459
Dispersion correction           -0.000298218
FINAL SINGLE POINT ENERGY      -115.726193368521

CARTESIAN COORDINATES (ANGSTROEM)
---------------------------------
  C     -3.609709   -6.212238   11.084964
  O     -4.364734   -5.445713   10.082139
  H     -4.900436   -4.779414   10.518448
  H     -3.996064   -6.014864   12.063790
  H     -3.631724   -7.334633   10.985328
  H     -2.523652   -5.863047   11.239573
  C     -3.648083   -3.106244    7.444514
  O     -2.585159   -3.555691    8.296022
  H     -2.618639   -3.061493    9.095974
  H     -4.637331   -3.557674    7.707565
  H     -3.848473   -2.049444    7.504523
  H     -3.362883   -3.143375    6.377812

 Multiplicity           Mult            ....    1
 Number of Electrons    NEL             ....   18
 Basis Dimension        Dim             ....  172

ORBITAL ENERGIES
----------------

  NO   OCC          E(Eh)            E(eV)
   0   2.0000     -19.232156      -523.3336
   1   2.0000     -10.317758      -280.7605
   2   2.0000      -1.135555       -30.9000
   3   2.0000      -0.799713       -21.7613
   4   2.0000      -0.614928       -16.7330
   5   2.0000      -0.545521       -14.8444
   6   2.0000      -0.514169       -13.9912
   7   2.0000      -0.432982       -11.7820
   8   2.0000      -0.378728       -10.3057
   9   0.0000       0.084783         2.3070
  10   0.0000       0.124961         3.4004
  11   0.0000       0.147183         4.0051
  12   0.0000       0.168991         4.5985
  13   0.0000       0.196379         5.3437

MULLIKEN ATOMIC CHARGES
-----------------------
   0 C :   -0.002540
   1 O :   -0.000724
   2 H :   -0.000534
   3 H :    0.000041
   4 H :    0.000011
   5 H :   -0.000558
   6 C :   -0.184608
   7 O :   -0.469689
   8 H :    0.314297
   9 H :    0.106619
  10 H :    0.110978
  11 H :    0.126707
Sum of atomic charges:   -0.0000000

LOEWDIN ATOMIC CHARGES
----------------------
   0 C :   -0.002358
   1 O :   -0.004673
   2 H :   -0.000993
   3 H :   -0.000033
   4 H :   -0.000031
   5 H :   -0.000530
   6 C :   -0.380478
   7 O :   -0.073331
   8 H :    0.155989
   9 H :    0.101310
  10 H :    0.092672
  11 H :    0.112456

  Mayer bond orders larger than 0.1
B(  6-C ,  7-O ) :   1.0040 B(  6-C ,  9-H ) :   0.9695 B(  6-C , 10-H ) :   0.9770
B(  6-C , 11-H ) :   0.9728 B(  7-O ,  8-H ) :   0.9021

Dispersion correction           -0.000264671
FINAL SINGLE POINT ENERGY      -115.730635376621

DIPOLE MOMENT
-------------
                                X             Y             Z
Electronic contribution:      1.44654      -0.77279       1.00795
Nuclear contribution   :     -1.88135       1.34128      -0.84513
                        -----------------------------------------
Total Dipole Moment    :     -0.43481       0.56849       0.16282
                        -----------------------------------------
Magnitude (a.u.)       :      0.73399
Magnitude (Debye)      :      1.86566

Rotational constants in cm-1:     4.389140     0.799885     0.778518
Rotational constants in MHz : 131583.110598 23979.951679 23339.370352

                             ****ORCA TERMINATED NORMALLY****
TOTAL RUN TIME: 0 days 0 hours 6 minutes 19 seconds 395 msec
