                         Program Version 4.1.2  - RELEASE  -
|  1> #Run DFT-D3 single point of the dimer
|  2> ! wB97X-D3 def2-TZVP TIGHTSCF CHELPG PMODEL PAL8
|  3>
|  4> %base "7-176_DFT_AB"
|  5>
|  6> %scf
|  7> MaxIter 1000
|  8> end
|  9>
| 10> * xyz 0 1
| 11>   C                      -10.599318           -1.310426            -3.237180
| 12>   O                      -10.930935           -2.249234            -4.256486
| 13>   H                      -10.881077           -3.128684            -3.872417
| 14>   H                      -11.146237           -1.432774            -2.289674
| 15>   H                      -9.492810            -1.357726            -3.027608
| 16>   H                      -10.780233           -0.284010            -3.640808
| 17>   C                      -9.056601            -4.696970            -2.905237
| 18>   O                      -10.469205           -4.885071            -2.834021
| 19>   H                      -10.760776           -5.548628            -3.487887
| 20>   H                      -8.565681            -5.625733            -3.058847
| 21>   H                      -8.702360            -4.026400            -3.777340
| 22>   H                      -8.657834            -4.139194            -2.019599
| 23> *
| 24>
| 25> #Run DFT-D3 single point of the molecule with dimer basis set
| 26> $new_job
| 27> %base "7-176_DFT_A"
| 28> ! wB97X-D3 def2-TZVP TIGHTSCF CHELPG PMODEL
| 29>
| 30> %scf
| 31> MaxIter 1000
| 32> end
| 33>
| 34> * xyz 0 1
| 35>   C                      -10.599318           -1.310426            -3.237180
| 36>   O                      -10.930935           -2.249234            -4.256486
| 37>   H                      -10.881077           -3.128684            -3.872417
| 38>   H                      -11.146237           -1.432774            -2.289674
| 39>   H                      -9.492810            -1.357726            -3.027608
| 40>   H                      -10.780233           -0.284010            -3.640808
| 41>   C                    : -9.056601            -4.696970            -2.905237
| 42>   O                    : -10.469205           -4.885071            -2.834021
| 43>   H                    : -10.760776           -5.548628            -3.487887
| 44>   H                    : -8.565681            -5.625733            -3.058847
| 45>   H                    : -8.702360            -4.026400            -3.777340
| 46>   H                    : -8.657834            -4.139194            -2.019599
| 47> *
| 48>
| 49> #Run DFT-D3 single point of the particle with dimer basis set
| 50> $new_job
| 51> %base "7-176_DFT_B"
| 52> ! wB97X-D3 def2-TZVP TIGHTSCF CHELPG PMODEL
| 53>
| 54> %scf
| 55> MaxIter 1000
| 56> end
| 57>
| 58> * xyz 0 1
| 59>   C                    : -10.599318           -1.310426            -3.237180
| 60>   O                    : -10.930935           -2.249234            -4.256486
| 61>   H                    : -10.881077           -3.128684            -3.872417
| 62>   H                    : -11.146237           -1.432774            -2.289674
| 63>   H                    : -9.492810            -1.357726            -3.027608
| 64>   H                    : -10.780233           -0.284010            -3.640808
| 65>   C                      -9.056601            -4.696970            -2.905237
| 66>   O                      -10.469205           -4.885071            -2.834021
| 67>   H                      -10.760776           -5.548628            -3.487887
| 68>   H                      -8.565681            -5.625733            -3.058847
| 69>   H                      -8.702360            -4.026400            -3.777340
| 70>   H                      -8.657834            -4.139194            -2.019599
| 71> *
| 72>
| 73>                          ****END OF INPUT****
 Total Charge           Charge          ....    0
 Multiplicity           Mult            ....    1
 Number of Electrons    NEL             ....   36
Dispersion correction           -0.002236273
FINAL SINGLE POINT ENERGY      -231.475754094364
Dispersion correction           -0.000256231
FINAL SINGLE POINT ENERGY      -115.736327255762

CARTESIAN COORDINATES (ANGSTROEM)
---------------------------------
  C    -10.599318   -1.310426   -3.237180
  O    -10.930935   -2.249234   -4.256486
  H    -10.881077   -3.128684   -3.872417
  H    -11.146237   -1.432774   -2.289674
  H     -9.492810   -1.357726   -3.027608
  H    -10.780233   -0.284010   -3.640808
  C     -9.056601   -4.696970   -2.905237
  O    -10.469205   -4.885071   -2.834021
  H    -10.760776   -5.548628   -3.487887
  H     -8.565681   -5.625733   -3.058847
  H     -8.702360   -4.026400   -3.777340
  H     -8.657834   -4.139194   -2.019599

 Multiplicity           Mult            ....    1
 Number of Electrons    NEL             ....   18
 Basis Dimension        Dim             ....  172

ORBITAL ENERGIES
----------------

  NO   OCC          E(Eh)            E(eV)
   0   2.0000     -19.234634      -523.4010
   1   2.0000     -10.320869      -280.8451
   2   2.0000      -1.129828       -30.7442
   3   2.0000      -0.793243       -21.5852
   4   2.0000      -0.611709       -16.6454
   5   2.0000      -0.538664       -14.6578
   6   2.0000      -0.519176       -14.1275
   7   2.0000      -0.434845       -11.8327
   8   2.0000      -0.371373       -10.1056
   9   0.0000       0.093604         2.5471
  10   0.0000       0.122956         3.3458
  11   0.0000       0.148318         4.0359
  12   0.0000       0.177209         4.8221
  13   0.0000       0.194299         5.2871

MULLIKEN ATOMIC CHARGES
-----------------------
   0 C :    0.006511
   1 O :    0.000173
   2 H :   -0.014525
   3 H :   -0.001721
   4 H :   -0.001050
   5 H :    0.000051
   6 C :   -0.183325
   7 O :   -0.471487
   8 H :    0.319499
   9 H :    0.120954
  10 H :    0.097405
  11 H :    0.127517
Sum of atomic charges:    0.0000000

LOEWDIN ATOMIC CHARGES
----------------------
   0 C :   -0.003603
   1 O :   -0.003900
   2 H :   -0.032207
   3 H :   -0.000412
   4 H :   -0.001117
   5 H :   -0.000019
   6 C :   -0.380994
   7 O :   -0.065400
   8 H :    0.179128
   9 H :    0.088803
  10 H :    0.104558
  11 H :    0.115165

  Mayer bond orders larger than 0.1
B(  6-C ,  7-O ) :   0.9910 B(  6-C ,  9-H ) :   0.9749 B(  6-C , 10-H ) :   0.9714
B(  6-C , 11-H ) :   0.9724 B(  7-O ,  8-H ) :   0.8919

Dispersion correction           -0.000270398
FINAL SINGLE POINT ENERGY      -115.731536308252

DIPOLE MOMENT
-------------
                                X             Y             Z
Electronic contribution:     -1.86892      -0.27917       0.29946
Nuclear contribution   :      2.25920      -0.10145      -0.72530
                        -----------------------------------------
Total Dipole Moment    :      0.39028      -0.38062      -0.42584
                        -----------------------------------------
Magnitude (a.u.)       :      0.69176
Magnitude (Debye)      :      1.75831

Rotational constants in cm-1:     4.276673     0.806423     0.773757
Rotational constants in MHz : 128211.439226 24175.959745 23196.648171

                             ****ORCA TERMINATED NORMALLY****
TOTAL RUN TIME: 0 days 0 hours 1 minutes 13 seconds 811 msec
