                         Program Version 4.1.2  - RELEASE  -
|  1> #Run DFT-D3 single point of the dimer
|  2> ! wB97X-D3 def2-TZVP TIGHTSCF CHELPG PMODEL PAL8
|  3>
|  4> %base "21-102_DFT_AB"
|  5>
|  6> %scf
|  7> MaxIter 1000
|  8> end
|  9>
| 10> * xyz 0 1
| 11>   C                      3.968792             8.387656             10.579955
| 12>   O                      3.086890             7.272689             10.231642
| 13>   H                      2.188274             7.650745             10.307865
| 14>   H                      3.545260             8.992403             11.442318
| 15>   H                      4.988270             8.027184             10.820508
| 16>   H                      4.116574             8.997618             9.652648
| 17>   C                      1.420045             7.380939             7.427169
| 18>   O                      0.939324             8.125929             8.537015
| 19>   H                      0.306786             7.546973             8.938717
| 20>   H                      1.921516             8.051383             6.629556
| 21>   H                      2.251655             6.753293             7.666494
| 22>   H                      0.698540             6.672245             6.938021
| 23> *
| 24>
| 25> #Run DFT-D3 single point of the molecule with dimer basis set
| 26> $new_job
| 27> %base "21-102_DFT_A"
| 28> ! wB97X-D3 def2-TZVP TIGHTSCF CHELPG PMODEL
| 29>
| 30> %scf
| 31> MaxIter 1000
| 32> end
| 33>
| 34> * xyz 0 1
| 35>   C                      3.968792             8.387656             10.579955
| 36>   O                      3.086890             7.272689             10.231642
| 37>   H                      2.188274             7.650745             10.307865
| 38>   H                      3.545260             8.992403             11.442318
| 39>   H                      4.988270             8.027184             10.820508
| 40>   H                      4.116574             8.997618             9.652648
| 41>   C                    : 1.420045             7.380939             7.427169
| 42>   O                    : 0.939324             8.125929             8.537015
| 43>   H                    : 0.306786             7.546973             8.938717
| 44>   H                    : 1.921516             8.051383             6.629556
| 45>   H                    : 2.251655             6.753293             7.666494
| 46>   H                    : 0.698540             6.672245             6.938021
| 47> *
| 48>
| 49> #Run DFT-D3 single point of the particle with dimer basis set
| 50> $new_job
| 51> %base "21-102_DFT_B"
| 52> ! wB97X-D3 def2-TZVP TIGHTSCF CHELPG PMODEL
| 53>
| 54> %scf
| 55> MaxIter 1000
| 56> end
| 57>
| 58> * xyz 0 1
| 59>   C                    : 3.968792             8.387656             10.579955
| 60>   O                    : 3.086890             7.272689             10.231642
| 61>   H                    : 2.188274             7.650745             10.307865
| 62>   H                    : 3.545260             8.992403             11.442318
| 63>   H                    : 4.988270             8.027184             10.820508
| 64>   H                    : 4.116574             8.997618             9.652648
| 65>   C                      1.420045             7.380939             7.427169
| 66>   O                      0.939324             8.125929             8.537015
| 67>   H                      0.306786             7.546973             8.938717
| 68>   H                      1.921516             8.051383             6.629556
| 69>   H                      2.251655             6.753293             7.666494
| 70>   H                      0.698540             6.672245             6.938021
| 71> *
| 72>
| 73>                          ****END OF INPUT****
 Total Charge           Charge          ....    0
 Multiplicity           Mult            ....    1
 Number of Electrons    NEL             ....   36
Dispersion correction           -0.002019412
FINAL SINGLE POINT ENERGY      -231.464882368089
Dispersion correction           -0.000261526
FINAL SINGLE POINT ENERGY      -115.732485608229

CARTESIAN COORDINATES (ANGSTROEM)
---------------------------------
  C      3.968792    8.387656   10.579955
  O      3.086890    7.272689   10.231642
  H      2.188274    7.650745   10.307865
  H      3.545260    8.992403   11.442318
  H      4.988270    8.027184   10.820508
  H      4.116574    8.997618    9.652648
  C      1.420045    7.380939    7.427169
  O      0.939324    8.125929    8.537015
  H      0.306786    7.546973    8.938717
  H      1.921516    8.051383    6.629556
  H      2.251655    6.753293    7.666494
  H      0.698540    6.672245    6.938021

 Multiplicity           Mult            ....    1
 Number of Electrons    NEL             ....   18
 Basis Dimension        Dim             ....  172

ORBITAL ENERGIES
----------------

  NO   OCC          E(Eh)            E(eV)
   0   2.0000     -19.237702      -523.4845
   1   2.0000     -10.321233      -280.8550
   2   2.0000      -1.143622       -31.1195
   3   2.0000      -0.794073       -21.6078
   4   2.0000      -0.615894       -16.7593
   5   2.0000      -0.536147       -14.5893
   6   2.0000      -0.521537       -14.1917
   7   2.0000      -0.443006       -12.0548
   8   2.0000      -0.374855       -10.2003
   9   0.0000       0.093661         2.5486
  10   0.0000       0.125329         3.4104
  11   0.0000       0.145066         3.9475
  12   0.0000       0.182318         4.9611
  13   0.0000       0.189566         5.1583

MULLIKEN ATOMIC CHARGES
-----------------------
   0 C :    0.002749
   1 O :    0.005099
   2 H :   -0.017839
   3 H :   -0.000248
   4 H :   -0.000054
   5 H :   -0.001148
   6 C :   -0.197347
   7 O :   -0.448237
   8 H :    0.315477
   9 H :    0.117109
  10 H :    0.113136
  11 H :    0.111304
Sum of atomic charges:   -0.0000000

LOEWDIN ATOMIC CHARGES
----------------------
   0 C :   -0.002741
   1 O :   -0.007606
   2 H :   -0.023517
   3 H :   -0.000073
   4 H :   -0.000037
   5 H :   -0.000482
   6 C :   -0.398449
   7 O :   -0.042834
   8 H :    0.166254
   9 H :    0.119144
  10 H :    0.088684
  11 H :    0.101656

  Mayer bond orders larger than 0.1
B(  6-C ,  7-O ) :   1.0062 B(  6-C ,  9-H ) :   0.9755 B(  6-C , 10-H ) :   0.9709
B(  6-C , 11-H ) :   0.9742 B(  7-O ,  8-H ) :   0.9011

Dispersion correction           -0.000263731
FINAL SINGLE POINT ENERGY      -115.729330653542

DIPOLE MOMENT
-------------
                                X             Y             Z
Electronic contribution:     -0.68935       1.13112       1.52089
Nuclear contribution   :      0.48600      -1.80014      -1.69097
                        -----------------------------------------
Total Dipole Moment    :     -0.20336      -0.66902      -0.17009
                        -----------------------------------------
Magnitude (a.u.)       :      0.71963
Magnitude (Debye)      :      1.82916

Rotational constants in cm-1:     4.309715     0.819599     0.775626
Rotational constants in MHz : 129202.017342 24570.969900 23252.688739

                             ****ORCA TERMINATED NORMALLY****
TOTAL RUN TIME: 0 days 0 hours 1 minutes 3 seconds 138 msec
