                         Program Version 4.1.2  - RELEASE  -
|  1> #Run DFT-D3 single point of the dimer
|  2> ! wB97X-D3 def2-TZVP TIGHTSCF CHELPG PMODEL PAL8
|  3>
|  4> %base "15-3_DFT_AB"
|  5>
|  6> %scf
|  7> MaxIter 1000
|  8> end
|  9>
| 10> * xyz 0 1
| 11>   C                      -6.481891            -7.877271            7.250222
| 12>   O                      -6.198547            -6.565036            6.837370
| 13>   H                      -6.806889            -6.005382            7.336781
| 14>   H                      -7.552956            -8.073217            7.112625
| 15>   H                      -5.784904            -8.580147            6.772301
| 16>   H                      -6.373916            -7.930089            8.316778
| 17>   C                      -11.181573           -6.523769            8.983289
| 18>   O                      -10.070327           -5.877747            9.523657
| 19>   H                      -9.469174            -5.712060            8.772213
| 20>   H                      -12.071394           -5.910952            8.875676
| 21>   H                      -11.053050           -6.945512            7.970016
| 22>   H                      -11.536426           -7.355774            9.579766
| 23> *
| 24>
| 25> #Run DFT-D3 single point of the molecule with dimer basis set
| 26> $new_job
| 27> %base "15-3_DFT_A"
| 28> ! wB97X-D3 def2-TZVP TIGHTSCF CHELPG PMODEL
| 29>
| 30> %scf
| 31> MaxIter 1000
| 32> end
| 33>
| 34> * xyz 0 1
| 35>   C                      -6.481891            -7.877271            7.250222
| 36>   O                      -6.198547            -6.565036            6.837370
| 37>   H                      -6.806889            -6.005382            7.336781
| 38>   H                      -7.552956            -8.073217            7.112625
| 39>   H                      -5.784904            -8.580147            6.772301
| 40>   H                      -6.373916            -7.930089            8.316778
| 41>   C                    : -11.181573           -6.523769            8.983289
| 42>   O                    : -10.070327           -5.877747            9.523657
| 43>   H                    : -9.469174            -5.712060            8.772213
| 44>   H                    : -12.071394           -5.910952            8.875676
| 45>   H                    : -11.053050           -6.945512            7.970016
| 46>   H                    : -11.536426           -7.355774            9.579766
| 47> *
| 48>
| 49> #Run DFT-D3 single point of the particle with dimer basis set
| 50> $new_job
| 51> %base "15-3_DFT_B"
| 52> ! wB97X-D3 def2-TZVP TIGHTSCF CHELPG PMODEL
| 53>
| 54> %scf
| 55> MaxIter 1000
| 56> end
| 57>
| 58> * xyz 0 1
| 59>   C                    : -6.481891            -7.877271            7.250222
| 60>   O                    : -6.198547            -6.565036            6.837370
| 61>   H                    : -6.806889            -6.005382            7.336781
| 62>   H                    : -7.552956            -8.073217            7.112625
| 63>   H                    : -5.784904            -8.580147            6.772301
| 64>   H                    : -6.373916            -7.930089            8.316778
| 65>   C                      -11.181573           -6.523769            8.983289
| 66>   O                      -10.070327           -5.877747            9.523657
| 67>   H                      -9.469174            -5.712060            8.772213
| 68>   H                      -12.071394           -5.910952            8.875676
| 69>   H                      -11.053050           -6.945512            7.970016
| 70>   H                      -11.536426           -7.355774            9.579766
| 71> *
| 72>
| 73>                          ****END OF INPUT****
 Total Charge           Charge          ....    0
 Multiplicity           Mult            ....    1
 Number of Electrons    NEL             ....   36
Dispersion correction           -0.001046187
FINAL SINGLE POINT ENERGY      -231.465072932923
Dispersion correction           -0.000206335
FINAL SINGLE POINT ENERGY      -115.733096092184

CARTESIAN COORDINATES (ANGSTROEM)
---------------------------------
  C     -6.481891   -7.877271    7.250222
  O     -6.198547   -6.565036    6.837370
  H     -6.806889   -6.005382    7.336781
  H     -7.552956   -8.073217    7.112625
  H     -5.784904   -8.580147    6.772301
  H     -6.373916   -7.930089    8.316778
  C    -11.181573   -6.523769    8.983289
  O    -10.070327   -5.877747    9.523657
  H     -9.469174   -5.712060    8.772213
  H    -12.071394   -5.910952    8.875676
  H    -11.053050   -6.945512    7.970016
  H    -11.536426   -7.355774    9.579766

 Multiplicity           Mult            ....    1
 Number of Electrons    NEL             ....   18
 Basis Dimension        Dim             ....  172

ORBITAL ENERGIES
----------------

  NO   OCC          E(Eh)            E(eV)
   0   2.0000     -19.237492      -523.4788
   1   2.0000     -10.309885      -280.5462
   2   2.0000      -1.143051       -31.1040
   3   2.0000      -0.796324       -21.6691
   4   2.0000      -0.617703       -16.8086
   5   2.0000      -0.535814       -14.5802
   6   2.0000      -0.532890       -14.5007
   7   2.0000      -0.435565       -11.8523
   8   2.0000      -0.373879       -10.1738
   9   0.0000       0.071152         1.9362
  10   0.0000       0.123280         3.3546
  11   0.0000       0.144334         3.9275
  12   0.0000       0.173946         4.7333
  13   0.0000       0.190373         5.1803

MULLIKEN ATOMIC CHARGES
-----------------------
   0 C :   -0.000592
   1 O :    0.000164
   2 H :   -0.000339
   3 H :   -0.000161
   4 H :   -0.000075
   5 H :   -0.000085
   6 C :   -0.175154
   7 O :   -0.462577
   8 H :    0.323200
   9 H :    0.101834
  10 H :    0.100608
  11 H :    0.113175
Sum of atomic charges:    0.0000000

LOEWDIN ATOMIC CHARGES
----------------------
   0 C :   -0.000481
   1 O :   -0.000027
   2 H :   -0.000619
   3 H :   -0.000185
   4 H :   -0.000024
   5 H :   -0.000101
   6 C :   -0.412514
   7 O :   -0.063353
   8 H :    0.185438
   9 H :    0.093355
  10 H :    0.097896
  11 H :    0.100615

  Mayer bond orders larger than 0.1
B(  6-C ,  7-O ) :   1.0196 B(  6-C ,  9-H ) :   0.9754 B(  6-C , 10-H ) :   0.9826
B(  6-C , 11-H ) :   0.9762 B(  7-O ,  8-H ) :   0.8953

Dispersion correction           -0.000255966
FINAL SINGLE POINT ENERGY      -115.732617800662

DIPOLE MOMENT
-------------
                                X             Y             Z
Electronic contribution:      1.55087       0.91724       0.92118
Nuclear contribution   :     -1.58528      -1.06574      -1.61137
                        -----------------------------------------
Total Dipole Moment    :     -0.03441      -0.14849      -0.69019
                        -----------------------------------------
Magnitude (a.u.)       :      0.70682
Magnitude (Debye)      :      1.79660

Rotational constants in cm-1:     4.473948     0.838409     0.802990
Rotational constants in MHz : 134125.594319 25134.881129 24073.046564

                             ****ORCA TERMINATED NORMALLY****
TOTAL RUN TIME: 0 days 0 hours 1 minutes 0 seconds 312 msec
