                         Program Version 4.1.2  - RELEASE  -
|  1> #Run DFT-D3 single point of the dimer
|  2> ! wB97X-D3 def2-TZVP TIGHTSCF CHELPG PMODEL PAL8
|  3>
|  4> %base "21-46_DFT_AB"
|  5>
|  6> %scf
|  7> MaxIter 1000
|  8> end
|  9>
| 10> * xyz 0 1
| 11>   C                      -4.571858            -8.509217            7.080362
| 12>   O                      -3.583468            -7.449682            7.394431
| 13>   H                      -3.572475            -6.902586            6.640899
| 14>   H                      -4.180799            -9.176255            6.298429
| 15>   H                      -4.673121            -9.129860            7.950470
| 16>   H                      -5.476760            -8.065264            6.898514
| 17>   C                      -2.221058            -3.446689            6.998465
| 18>   O                      -1.873761            -3.179078            5.629325
| 19>   H                      -1.860094            -2.201635            5.512073
| 20>   H                      -2.621781            -4.400439            7.017455
| 21>   H                      -1.377824            -3.586597            7.742426
| 22>   H                      -3.018817            -2.859799            7.498066
| 23> *
| 24>
| 25> #Run DFT-D3 single point of the molecule with dimer basis set
| 26> $new_job
| 27> %base "21-46_DFT_A"
| 28> ! wB97X-D3 def2-TZVP TIGHTSCF CHELPG PMODEL
| 29>
| 30> %scf
| 31> MaxIter 1000
| 32> end
| 33>
| 34> * xyz 0 1
| 35>   C                      -4.571858            -8.509217            7.080362
| 36>   O                      -3.583468            -7.449682            7.394431
| 37>   H                      -3.572475            -6.902586            6.640899
| 38>   H                      -4.180799            -9.176255            6.298429
| 39>   H                      -4.673121            -9.129860            7.950470
| 40>   H                      -5.476760            -8.065264            6.898514
| 41>   C                    : -2.221058            -3.446689            6.998465
| 42>   O                    : -1.873761            -3.179078            5.629325
| 43>   H                    : -1.860094            -2.201635            5.512073
| 44>   H                    : -2.621781            -4.400439            7.017455
| 45>   H                    : -1.377824            -3.586597            7.742426
| 46>   H                    : -3.018817            -2.859799            7.498066
| 47> *
| 48>
| 49> #Run DFT-D3 single point of the particle with dimer basis set
| 50> $new_job
| 51> %base "21-46_DFT_B"
| 52> ! wB97X-D3 def2-TZVP TIGHTSCF CHELPG PMODEL
| 53>
| 54> %scf
| 55> MaxIter 1000
| 56> end
| 57>
| 58> * xyz 0 1
| 59>   C                    : -4.571858            -8.509217            7.080362
| 60>   O                    : -3.583468            -7.449682            7.394431
| 61>   H                    : -3.572475            -6.902586            6.640899
| 62>   H                    : -4.180799            -9.176255            6.298429
| 63>   H                    : -4.673121            -9.129860            7.950470
| 64>   H                    : -5.476760            -8.065264            6.898514
| 65>   C                      -2.221058            -3.446689            6.998465
| 66>   O                      -1.873761            -3.179078            5.629325
| 67>   H                      -1.860094            -2.201635            5.512073
| 68>   H                      -2.621781            -4.400439            7.017455
| 69>   H                      -1.377824            -3.586597            7.742426
| 70>   H                      -3.018817            -2.859799            7.498066
| 71> *
| 72>
| 73>                          ****END OF INPUT****
 Total Charge           Charge          ....    0
 Multiplicity           Mult            ....    1
 Number of Electrons    NEL             ....   36
Dispersion correction           -0.001042614
FINAL SINGLE POINT ENERGY      -231.457164642194
Dispersion correction           -0.000238914
FINAL SINGLE POINT ENERGY      -115.729759978113

CARTESIAN COORDINATES (ANGSTROEM)
---------------------------------
  C     -4.571858   -8.509217    7.080362
  O     -3.583468   -7.449682    7.394431
  H     -3.572475   -6.902586    6.640899
  H     -4.180799   -9.176255    6.298429
  H     -4.673121   -9.129860    7.950470
  H     -5.476760   -8.065264    6.898514
  C     -2.221058   -3.446689    6.998465
  O     -1.873761   -3.179078    5.629325
  H     -1.860094   -2.201635    5.512073
  H     -2.621781   -4.400439    7.017455
  H     -1.377824   -3.586597    7.742426
  H     -3.018817   -2.859799    7.498066

 Multiplicity           Mult            ....    1
 Number of Electrons    NEL             ....   18
 Basis Dimension        Dim             ....  172

ORBITAL ENERGIES
----------------

  NO   OCC          E(Eh)            E(eV)
   0   2.0000     -19.240062      -523.5487
   1   2.0000     -10.312860      -280.6272
   2   2.0000      -1.127753       -30.6877
   3   2.0000      -0.800956       -21.7951
   4   2.0000      -0.606605       -16.5066
   5   2.0000      -0.529506       -14.4086
   6   2.0000      -0.524249       -14.2655
   7   2.0000      -0.438302       -11.9268
   8   2.0000      -0.377382       -10.2691
   9   0.0000       0.089297         2.4299
  10   0.0000       0.115317         3.1379
  11   0.0000       0.140756         3.8302
  12   0.0000       0.167262         4.5514
  13   0.0000       0.200001         5.4423

MULLIKEN ATOMIC CHARGES
-----------------------
   0 C :   -0.000228
   1 O :   -0.000203
   2 H :    0.001144
   3 H :    0.000006
   4 H :   -0.000004
   5 H :    0.000019
   6 C :   -0.191105
   7 O :   -0.466297
   8 H :    0.317617
   9 H :    0.128331
  10 H :    0.099955
  11 H :    0.110767
Sum of atomic charges:   -0.0000000

LOEWDIN ATOMIC CHARGES
----------------------
   0 C :   -0.000025
   1 O :   -0.000542
   2 H :   -0.001804
   3 H :   -0.000001
   4 H :   -0.000000
   5 H :   -0.000001
   6 C :   -0.387328
   7 O :   -0.093090
   8 H :    0.182707
   9 H :    0.095234
  10 H :    0.103513
  11 H :    0.101337

  Mayer bond orders larger than 0.1
B(  6-C ,  7-O ) :   1.0264 B(  6-C ,  9-H ) :   0.9769 B(  6-C , 10-H ) :   0.9729
B(  6-C , 11-H ) :   0.9702 B(  7-O ,  8-H ) :   0.8975

Dispersion correction           -0.000299699
FINAL SINGLE POINT ENERGY      -115.726294083201

DIPOLE MOMENT
-------------
                                X             Y             Z
Electronic contribution:      0.47441       0.35862      -1.91880
Nuclear contribution   :     -0.64350       0.10568       2.37185
                        -----------------------------------------
Total Dipole Moment    :     -0.16909       0.46430       0.45305
                        -----------------------------------------
Magnitude (a.u.)       :      0.67039
Magnitude (Debye)      :      1.70400

Rotational constants in cm-1:     4.506576     0.789083     0.765544
Rotational constants in MHz : 135103.744650 23656.116505 22950.427205

                             ****ORCA TERMINATED NORMALLY****
TOTAL RUN TIME: 0 days 0 hours 0 minutes 53 seconds 828 msec
