                         Program Version 4.1.2  - RELEASE  -
|  1> #Run DFT-D3 single point of the dimer
|  2> ! wB97X-D3 def2-TZVP TIGHTSCF CHELPG PMODEL PAL8
|  3>
|  4> %base "11-7_DFT_AB"
|  5>
|  6> %scf
|  7> MaxIter 1000
|  8> end
|  9>
| 10> * xyz 0 1
| 11>   C                      -2.148013            2.129847             1.911966
| 12>   O                      -0.703100            2.202816             2.039990
| 13>   H                      -0.327344            2.930984             1.522731
| 14>   H                      -2.414317            2.238284             0.914172
| 15>   H                      -2.582117            1.155431             2.198879
| 16>   H                      -2.594961            2.946416             2.554262
| 17>   C                      -3.305806            2.350428             7.299162
| 18>   O                      -3.492513            3.717809             7.040741
| 19>   H                      -2.856496            4.083690             6.472353
| 20>   H                      -3.657650            1.660644             6.502851
| 21>   H                      -2.260319            2.065325             7.468942
| 22>   H                      -3.889548            1.933458             8.115113
| 23> *
| 24>
| 25> #Run DFT-D3 single point of the molecule with dimer basis set
| 26> $new_job
| 27> %base "11-7_DFT_A"
| 28> ! wB97X-D3 def2-TZVP TIGHTSCF CHELPG PMODEL
| 29>
| 30> %scf
| 31> MaxIter 1000
| 32> end
| 33>
| 34> * xyz 0 1
| 35>   C                      -2.148013            2.129847             1.911966
| 36>   O                      -0.703100            2.202816             2.039990
| 37>   H                      -0.327344            2.930984             1.522731
| 38>   H                      -2.414317            2.238284             0.914172
| 39>   H                      -2.582117            1.155431             2.198879
| 40>   H                      -2.594961            2.946416             2.554262
| 41>   C                    : -3.305806            2.350428             7.299162
| 42>   O                    : -3.492513            3.717809             7.040741
| 43>   H                    : -2.856496            4.083690             6.472353
| 44>   H                    : -3.657650            1.660644             6.502851
| 45>   H                    : -2.260319            2.065325             7.468942
| 46>   H                    : -3.889548            1.933458             8.115113
| 47> *
| 48>
| 49> #Run DFT-D3 single point of the particle with dimer basis set
| 50> $new_job
| 51> %base "11-7_DFT_B"
| 52> ! wB97X-D3 def2-TZVP TIGHTSCF CHELPG PMODEL
| 53>
| 54> %scf
| 55> MaxIter 1000
| 56> end
| 57>
| 58> * xyz 0 1
| 59>   C                    : -2.148013            2.129847             1.911966
| 60>   O                    : -0.703100            2.202816             2.039990
| 61>   H                    : -0.327344            2.930984             1.522731
| 62>   H                    : -2.414317            2.238284             0.914172
| 63>   H                    : -2.582117            1.155431             2.198879
| 64>   H                    : -2.594961            2.946416             2.554262
| 65>   C                      -3.305806            2.350428             7.299162
| 66>   O                      -3.492513            3.717809             7.040741
| 67>   H                      -2.856496            4.083690             6.472353
| 68>   H                      -3.657650            1.660644             6.502851
| 69>   H                      -2.260319            2.065325             7.468942
| 70>   H                      -3.889548            1.933458             8.115113
| 71> *
| 72>
| 73>                          ****END OF INPUT****
 Total Charge           Charge          ....    0
 Multiplicity           Mult            ....    1
 Number of Electrons    NEL             ....   36
Dispersion correction           -0.000749703
FINAL SINGLE POINT ENERGY      -231.460999728148
Dispersion correction           -0.000260017
FINAL SINGLE POINT ENERGY      -115.729886371542

CARTESIAN COORDINATES (ANGSTROEM)
---------------------------------
  C     -2.148013    2.129847    1.911966
  O     -0.703100    2.202816    2.039990
  H     -0.327344    2.930984    1.522731
  H     -2.414317    2.238284    0.914172
  H     -2.582117    1.155431    2.198879
  H     -2.594961    2.946416    2.554262
  C     -3.305806    2.350428    7.299162
  O     -3.492513    3.717809    7.040741
  H     -2.856496    4.083690    6.472353
  H     -3.657650    1.660644    6.502851
  H     -2.260319    2.065325    7.468942
  H     -3.889548    1.933458    8.115113

 Multiplicity           Mult            ....    1
 Number of Electrons    NEL             ....   18
 Basis Dimension        Dim             ....  172

ORBITAL ENERGIES
----------------

  NO   OCC          E(Eh)            E(eV)
   0   2.0000     -19.230205      -523.2805
   1   2.0000     -10.314811      -280.6803
   2   2.0000      -1.143582       -31.1185
   3   2.0000      -0.803859       -21.8741
   4   2.0000      -0.623214       -16.9585
   5   2.0000      -0.541800       -14.7431
   6   2.0000      -0.525494       -14.2994
   7   2.0000      -0.428624       -11.6634
   8   2.0000      -0.373159       -10.1542
   9   0.0000       0.080853         2.2001
  10   0.0000       0.118928         3.2362
  11   0.0000       0.146355         3.9825
  12   0.0000       0.161466         4.3937
  13   0.0000       0.194206         5.2846

MULLIKEN ATOMIC CHARGES
-----------------------
   0 C :    0.000011
   1 O :    0.000000
   2 H :   -0.000001
   3 H :   -0.000001
   4 H :   -0.000022
   5 H :   -0.000173
   6 C :   -0.162886
   7 O :   -0.472558
   8 H :    0.315265
   9 H :    0.096150
  10 H :    0.101851
  11 H :    0.122365
Sum of atomic charges:    0.0000000

LOEWDIN ATOMIC CHARGES
----------------------
   0 C :   -0.000043
   1 O :   -0.000002
   2 H :   -0.000000
   3 H :   -0.000000
   4 H :   -0.000025
   5 H :   -0.000088
   6 C :   -0.398342
   7 O :   -0.049821
   8 H :    0.149443
   9 H :    0.096145
  10 H :    0.095119
  11 H :    0.107614

  Mayer bond orders larger than 0.1
B(  6-C ,  7-O ) :   1.0065 B(  6-C ,  9-H ) :   0.9728 B(  6-C , 10-H ) :   0.9800
B(  6-C , 11-H ) :   0.9729 B(  7-O ,  8-H ) :   0.9002

Dispersion correction           -0.000272281
FINAL SINGLE POINT ENERGY      -115.730575818185

DIPOLE MOMENT
-------------
                                X             Y             Z
Electronic contribution:     -0.31307       1.96230      -0.22114
Nuclear contribution   :      0.80683      -2.27221      -0.04013
                        -----------------------------------------
Total Dipole Moment    :      0.49376      -0.30990      -0.26127
                        -----------------------------------------
Magnitude (a.u.)       :      0.63883
Magnitude (Debye)      :      1.62377

Rotational constants in cm-1:     4.643996     0.817246     0.789745
Rotational constants in MHz : 139223.506900 24500.413593 23675.967013

                             ****ORCA TERMINATED NORMALLY****
TOTAL RUN TIME: 0 days 0 hours 1 minutes 11 seconds 479 msec
