                         Program Version 4.1.2  - RELEASE  -
|  1> #Run DFT-D3 single point of the dimer
|  2> ! wB97X-D3 def2-TZVP TIGHTSCF CHELPG PMODEL PAL8
|  3>
|  4> %base "18-209_DFT_AB"
|  5>
|  6> %scf
|  7> MaxIter 1000
|  8> end
|  9>
| 10> * xyz 0 1
| 11>   C                      0.652887             -4.603899            -7.329924
| 12>   O                      1.034029             -3.278051            -7.200782
| 13>   H                      0.242085             -2.708499            -7.235678
| 14>   H                      -0.055861            -4.676612            -8.180890
| 15>   H                      1.491770             -5.297775            -7.503752
| 16>   H                      0.134496             -4.970212            -6.478246
| 17>   C                      0.218613             -3.774525            -3.429401
| 18>   O                      -0.607822            -3.042870            -4.238015
| 19>   H                      -0.933965            -3.609689            -4.932141
| 20>   H                      0.524269             -3.125596            -2.622507
| 21>   H                      -0.271415            -4.676162            -3.031674
| 22>   H                      1.146558             -4.186064            -3.897141
| 23> *
| 24>
| 25> #Run DFT-D3 single point of the molecule with dimer basis set
| 26> $new_job
| 27> %base "18-209_DFT_A"
| 28> ! wB97X-D3 def2-TZVP TIGHTSCF CHELPG PMODEL
| 29>
| 30> %scf
| 31> MaxIter 1000
| 32> end
| 33>
| 34> * xyz 0 1
| 35>   C                      0.652887             -4.603899            -7.329924
| 36>   O                      1.034029             -3.278051            -7.200782
| 37>   H                      0.242085             -2.708499            -7.235678
| 38>   H                      -0.055861            -4.676612            -8.180890
| 39>   H                      1.491770             -5.297775            -7.503752
| 40>   H                      0.134496             -4.970212            -6.478246
| 41>   C                    : 0.218613             -3.774525            -3.429401
| 42>   O                    : -0.607822            -3.042870            -4.238015
| 43>   H                    : -0.933965            -3.609689            -4.932141
| 44>   H                    : 0.524269             -3.125596            -2.622507
| 45>   H                    : -0.271415            -4.676162            -3.031674
| 46>   H                    : 1.146558             -4.186064            -3.897141
| 47> *
| 48>
| 49> #Run DFT-D3 single point of the particle with dimer basis set
| 50> $new_job
| 51> %base "18-209_DFT_B"
| 52> ! wB97X-D3 def2-TZVP TIGHTSCF CHELPG PMODEL
| 53>
| 54> %scf
| 55> MaxIter 1000
| 56> end
| 57>
| 58> * xyz 0 1
| 59>   C                    : 0.652887             -4.603899            -7.329924
| 60>   O                    : 1.034029             -3.278051            -7.200782
| 61>   H                    : 0.242085             -2.708499            -7.235678
| 62>   H                    : -0.055861            -4.676612            -8.180890
| 63>   H                    : 1.491770             -5.297775            -7.503752
| 64>   H                    : 0.134496             -4.970212            -6.478246
| 65>   C                      0.218613             -3.774525            -3.429401
| 66>   O                      -0.607822            -3.042870            -4.238015
| 67>   H                      -0.933965            -3.609689            -4.932141
| 68>   H                      0.524269             -3.125596            -2.622507
| 69>   H                      -0.271415            -4.676162            -3.031674
| 70>   H                      1.146558             -4.186064            -3.897141
| 71> *
| 72>
| 73>                          ****END OF INPUT****
 Total Charge           Charge          ....    0
 Multiplicity           Mult            ....    1
 Number of Electrons    NEL             ....   36
Dispersion correction           -0.002070643
FINAL SINGLE POINT ENERGY      -231.469909983127
Dispersion correction           -0.000225227
FINAL SINGLE POINT ENERGY      -115.733899554159

CARTESIAN COORDINATES (ANGSTROEM)
---------------------------------
  C      0.652887   -4.603899   -7.329924
  O      1.034029   -3.278051   -7.200782
  H      0.242085   -2.708499   -7.235678
  H     -0.055861   -4.676612   -8.180890
  H      1.491770   -5.297775   -7.503752
  H      0.134496   -4.970212   -6.478246
  C      0.218613   -3.774525   -3.429401
  O     -0.607822   -3.042870   -4.238015
  H     -0.933965   -3.609689   -4.932141
  H      0.524269   -3.125596   -2.622507
  H     -0.271415   -4.676162   -3.031674
  H      1.146558   -4.186064   -3.897141

 Multiplicity           Mult            ....    1
 Number of Electrons    NEL             ....   18
 Basis Dimension        Dim             ....  172

ORBITAL ENERGIES
----------------

  NO   OCC          E(Eh)            E(eV)
   0   2.0000     -19.233690      -523.3753
   1   2.0000     -10.310205      -280.5550
   2   2.0000      -1.154500       -31.4155
   3   2.0000      -0.794951       -21.6317
   4   2.0000      -0.625701       -17.0262
   5   2.0000      -0.540118       -14.6974
   6   2.0000      -0.533000       -14.5037
   7   2.0000      -0.436701       -11.8832
   8   2.0000      -0.370953       -10.0941
   9   0.0000       0.074762         2.0344
  10   0.0000       0.138444         3.7672
  11   0.0000       0.148511         4.0412
  12   0.0000       0.169764         4.6195
  13   0.0000       0.187203         5.0941

MULLIKEN ATOMIC CHARGES
-----------------------
   0 C :   -0.001507
   1 O :   -0.000380
   2 H :   -0.002149
   3 H :    0.000138
   4 H :   -0.000163
   5 H :   -0.002365
   6 C :   -0.159503
   7 O :   -0.452678
   8 H :    0.315638
   9 H :    0.121554
  10 H :    0.093260
  11 H :    0.088155
Sum of atomic charges:    0.0000000

LOEWDIN ATOMIC CHARGES
----------------------
   0 C :   -0.004573
   1 O :   -0.001794
   2 H :   -0.002964
   3 H :   -0.000034
   4 H :   -0.000047
   5 H :   -0.003321
   6 C :   -0.424510
   7 O :   -0.026406
   8 H :    0.169436
   9 H :    0.107416
  10 H :    0.092960
  11 H :    0.093836

  Mayer bond orders larger than 0.1
B(  6-C ,  7-O ) :   1.0123 B(  6-C ,  9-H ) :   0.9765 B(  6-C , 10-H ) :   0.9807
B(  6-C , 11-H ) :   0.9681 B(  7-O ,  8-H ) :   0.9002

Dispersion correction           -0.000231797
FINAL SINGLE POINT ENERGY      -115.735485947433

DIPOLE MOMENT
-------------
                                X             Y             Z
Electronic contribution:     -1.12737       1.15874      -1.01596
Nuclear contribution   :      1.20719      -1.77489       0.88143
                        -----------------------------------------
Total Dipole Moment    :      0.07982      -0.61614      -0.13453
                        -----------------------------------------
Magnitude (a.u.)       :      0.63569
Magnitude (Debye)      :      1.61579

Rotational constants in cm-1:     4.342464     0.873907     0.836093
Rotational constants in MHz : 130183.783328 26199.075379 25065.425069

                             ****ORCA TERMINATED NORMALLY****
TOTAL RUN TIME: 0 days 0 hours 1 minutes 6 seconds 427 msec
