                         Program Version 4.1.2  - RELEASE  -
|  1> #Run DFT-D3 single point of the dimer
|  2> ! wB97X-D3 def2-TZVP TIGHTSCF CHELPG PMODEL PAL8
|  3>
|  4> %base "6-31_DFT_AB"
|  5>
|  6> %scf
|  7> MaxIter 1000
|  8> end
|  9>
| 10> * xyz 0 1
| 11>   C                      5.317093             -1.389465            9.829214
| 12>   O                      4.191214             -1.778297            9.136215
| 13>   H                      3.445085             -1.583899            9.711773
| 14>   H                      5.210921             -0.435185            10.318451
| 15>   H                      5.554928             -2.009631            10.720505
| 16>   H                      6.232359             -1.237325            9.223944
| 17>   C                      0.196325             -0.976893            10.050342
| 18>   O                      1.433650             -0.253384            9.974844
| 19>   H                      1.432420             0.446621             10.619602
| 20>   H                      -0.611933            -0.325739            10.403889
| 21>   H                      -0.103297            -1.288178            8.974143
| 22>   H                      0.344229             -1.799503            10.711079
| 23> *
| 24>
| 25> #Run DFT-D3 single point of the molecule with dimer basis set
| 26> $new_job
| 27> %base "6-31_DFT_A"
| 28> ! wB97X-D3 def2-TZVP TIGHTSCF CHELPG PMODEL
| 29>
| 30> %scf
| 31> MaxIter 1000
| 32> end
| 33>
| 34> * xyz 0 1
| 35>   C                      5.317093             -1.389465            9.829214
| 36>   O                      4.191214             -1.778297            9.136215
| 37>   H                      3.445085             -1.583899            9.711773
| 38>   H                      5.210921             -0.435185            10.318451
| 39>   H                      5.554928             -2.009631            10.720505
| 40>   H                      6.232359             -1.237325            9.223944
| 41>   C                    : 0.196325             -0.976893            10.050342
| 42>   O                    : 1.433650             -0.253384            9.974844
| 43>   H                    : 1.432420             0.446621             10.619602
| 44>   H                    : -0.611933            -0.325739            10.403889
| 45>   H                    : -0.103297            -1.288178            8.974143
| 46>   H                    : 0.344229             -1.799503            10.711079
| 47> *
| 48>
| 49> #Run DFT-D3 single point of the particle with dimer basis set
| 50> $new_job
| 51> %base "6-31_DFT_B"
| 52> ! wB97X-D3 def2-TZVP TIGHTSCF CHELPG PMODEL
| 53>
| 54> %scf
| 55> MaxIter 1000
| 56> end
| 57>
| 58> * xyz 0 1
| 59>   C                    : 5.317093             -1.389465            9.829214
| 60>   O                    : 4.191214             -1.778297            9.136215
| 61>   H                    : 3.445085             -1.583899            9.711773
| 62>   H                    : 5.210921             -0.435185            10.318451
| 63>   H                    : 5.554928             -2.009631            10.720505
| 64>   H                    : 6.232359             -1.237325            9.223944
| 65>   C                      0.196325             -0.976893            10.050342
| 66>   O                      1.433650             -0.253384            9.974844
| 67>   H                      1.432420             0.446621             10.619602
| 68>   H                      -0.611933            -0.325739            10.403889
| 69>   H                      -0.103297            -1.288178            8.974143
| 70>   H                      0.344229             -1.799503            10.711079
| 71> *
| 72>
| 73>                          ****END OF INPUT****
 Total Charge           Charge          ....    0
 Multiplicity           Mult            ....    1
 Number of Electrons    NEL             ....   36
Dispersion correction           -0.001400852
FINAL SINGLE POINT ENERGY      -231.468746714543
Dispersion correction           -0.000234213
FINAL SINGLE POINT ENERGY      -115.731208783945

CARTESIAN COORDINATES (ANGSTROEM)
---------------------------------
  C      5.317093   -1.389465    9.829214
  O      4.191214   -1.778297    9.136215
  H      3.445085   -1.583899    9.711773
  H      5.210921   -0.435185   10.318451
  H      5.554928   -2.009631   10.720505
  H      6.232359   -1.237325    9.223944
  C      0.196325   -0.976893   10.050342
  O      1.433650   -0.253384    9.974844
  H      1.432420    0.446621   10.619602
  H     -0.611933   -0.325739   10.403889
  H     -0.103297   -1.288178    8.974143
  H      0.344229   -1.799503   10.711079

 Multiplicity           Mult            ....    1
 Number of Electrons    NEL             ....   18
 Basis Dimension        Dim             ....  172

ORBITAL ENERGIES
----------------

  NO   OCC          E(Eh)            E(eV)
   0   2.0000     -19.226084      -523.1684
   1   2.0000     -10.319369      -280.8043
   2   2.0000      -1.129581       -30.7375
   3   2.0000      -0.793392       -21.5893
   4   2.0000      -0.606727       -16.5099
   5   2.0000      -0.549128       -14.9425
   6   2.0000      -0.515283       -14.0216
   7   2.0000      -0.429283       -11.6814
   8   2.0000      -0.374661       -10.1950
   9   0.0000       0.096649         2.6300
  10   0.0000       0.120124         3.2687
  11   0.0000       0.152301         4.1443
  12   0.0000       0.183687         4.9984
  13   0.0000       0.195571         5.3217

MULLIKEN ATOMIC CHARGES
-----------------------
   0 C :   -0.000006
   1 O :    0.000248
   2 H :   -0.006415
   3 H :   -0.000876
   4 H :    0.000019
   5 H :   -0.000066
   6 C :   -0.160851
   7 O :   -0.479146
   8 H :    0.311635
   9 H :    0.108140
  10 H :    0.111576
  11 H :    0.115742
Sum of atomic charges:   -0.0000000

LOEWDIN ATOMIC CHARGES
----------------------
   0 C :   -0.001010
   1 O :   -0.001875
   2 H :   -0.016477
   3 H :   -0.000281
   4 H :   -0.000005
   5 H :   -0.000012
   6 C :   -0.367582
   7 O :   -0.079098
   8 H :    0.159167
   9 H :    0.097291
  10 H :    0.118579
  11 H :    0.091303

  Mayer bond orders larger than 0.1
B(  6-C ,  7-O ) :   0.9864 B(  6-C ,  9-H ) :   0.9764 B(  6-C , 10-H ) :   0.9724
B(  6-C , 11-H ) :   0.9757 B(  7-O ,  8-H ) :   0.9012

Dispersion correction           -0.000246669
FINAL SINGLE POINT ENERGY      -115.732471186769

DIPOLE MOMENT
-------------
                                X             Y             Z
Electronic contribution:      1.54835       0.75717      -0.09509
Nuclear contribution   :     -2.08299      -0.57923       0.55676
                        -----------------------------------------
Total Dipole Moment    :     -0.53464       0.17795       0.46167
                        -----------------------------------------
Magnitude (a.u.)       :      0.72845
Magnitude (Debye)      :      1.85157

Rotational constants in cm-1:     4.153147     0.813062     0.787856
Rotational constants in MHz : 124508.206059 24374.978648 23619.320202

                             ****ORCA TERMINATED NORMALLY****
TOTAL RUN TIME: 0 days 0 hours 1 minutes 6 seconds 593 msec
