                         Program Version 4.1.2  - RELEASE  -
|  1> #Run DFT-D3 single point of the dimer
|  2> ! wB97X-D3 def2-TZVP TIGHTSCF CHELPG PMODEL PAL8
|  3>
|  4> %base "16-80_DFT_AB"
|  5>
|  6> %scf
|  7> MaxIter 1000
|  8> end
|  9>
| 10> * xyz 0 1
| 11>   C                      1.485028             2.866668             11.191932
| 12>   O                      1.771618             3.996363             10.331948
| 13>   H                      2.698560             4.135901             10.339584
| 14>   H                      1.582231             2.996211             12.246738
| 15>   H                      0.440987             2.521089             11.096234
| 16>   H                      2.100099             1.998036             10.935745
| 17>   C                      -3.015513            4.657646             8.973627
| 18>   O                      -1.868843            4.290034             9.722191
| 19>   H                      -1.130121            4.887643             9.436925
| 20>   H                      -2.824309            4.660446             7.877721
| 21>   H                      -3.872396            3.998280             9.281944
| 22>   H                      -3.256881            5.665914             9.192009
| 23> *
| 24>
| 25> #Run DFT-D3 single point of the molecule with dimer basis set
| 26> $new_job
| 27> %base "16-80_DFT_A"
| 28> ! wB97X-D3 def2-TZVP TIGHTSCF CHELPG PMODEL
| 29>
| 30> %scf
| 31> MaxIter 1000
| 32> end
| 33>
| 34> * xyz 0 1
| 35>   C                      1.485028             2.866668             11.191932
| 36>   O                      1.771618             3.996363             10.331948
| 37>   H                      2.698560             4.135901             10.339584
| 38>   H                      1.582231             2.996211             12.246738
| 39>   H                      0.440987             2.521089             11.096234
| 40>   H                      2.100099             1.998036             10.935745
| 41>   C                    : -3.015513            4.657646             8.973627
| 42>   O                    : -1.868843            4.290034             9.722191
| 43>   H                    : -1.130121            4.887643             9.436925
| 44>   H                    : -2.824309            4.660446             7.877721
| 45>   H                    : -3.872396            3.998280             9.281944
| 46>   H                    : -3.256881            5.665914             9.192009
| 47> *
| 48>
| 49> #Run DFT-D3 single point of the particle with dimer basis set
| 50> $new_job
| 51> %base "16-80_DFT_B"
| 52> ! wB97X-D3 def2-TZVP TIGHTSCF CHELPG PMODEL
| 53>
| 54> %scf
| 55> MaxIter 1000
| 56> end
| 57>
| 58> * xyz 0 1
| 59>   C                    : 1.485028             2.866668             11.191932
| 60>   O                    : 1.771618             3.996363             10.331948
| 61>   H                    : 2.698560             4.135901             10.339584
| 62>   H                    : 1.582231             2.996211             12.246738
| 63>   H                    : 0.440987             2.521089             11.096234
| 64>   H                    : 2.100099             1.998036             10.935745
| 65>   C                      -3.015513            4.657646             8.973627
| 66>   O                      -1.868843            4.290034             9.722191
| 67>   H                      -1.130121            4.887643             9.436925
| 68>   H                      -2.824309            4.660446             7.877721
| 69>   H                      -3.872396            3.998280             9.281944
| 70>   H                      -3.256881            5.665914             9.192009
| 71> *
| 72>
| 73>                          ****END OF INPUT****
 Total Charge           Charge          ....    0
 Multiplicity           Mult            ....    1
 Number of Electrons    NEL             ....   36
Dispersion correction           -0.001219013
FINAL SINGLE POINT ENERGY      -231.468432718034
Dispersion correction           -0.000271295
FINAL SINGLE POINT ENERGY      -115.732457274301

CARTESIAN COORDINATES (ANGSTROEM)
---------------------------------
  C      1.485028    2.866668   11.191932
  O      1.771618    3.996363   10.331948
  H      2.698560    4.135901   10.339584
  H      1.582231    2.996211   12.246738
  H      0.440987    2.521089   11.096234
  H      2.100099    1.998036   10.935745
  C     -3.015513    4.657646    8.973627
  O     -1.868843    4.290034    9.722191
  H     -1.130121    4.887643    9.436925
  H     -2.824309    4.660446    7.877721
  H     -3.872396    3.998280    9.281944
  H     -3.256881    5.665914    9.192009

 Multiplicity           Mult            ....    1
 Number of Electrons    NEL             ....   18
 Basis Dimension        Dim             ....  172

ORBITAL ENERGIES
----------------

  NO   OCC          E(Eh)            E(eV)
   0   2.0000     -19.231914      -523.3270
   1   2.0000     -10.314638      -280.6756
   2   2.0000      -1.129513       -30.7356
   3   2.0000      -0.790773       -21.5180
   4   2.0000      -0.609716       -16.5912
   5   2.0000      -0.537273       -14.6199
   6   2.0000      -0.523750       -14.2520
   7   2.0000      -0.437295       -11.8994
   8   2.0000      -0.370034       -10.0691
   9   0.0000       0.086745         2.3605
  10   0.0000       0.117053         3.1852
  11   0.0000       0.152849         4.1592
  12   0.0000       0.168553         4.5866
  13   0.0000       0.197610         5.3772

MULLIKEN ATOMIC CHARGES
-----------------------
   0 C :    0.000640
   1 O :   -0.000119
   2 H :   -0.000008
   3 H :   -0.000051
   4 H :   -0.003617
   5 H :    0.000008
   6 C :   -0.166380
   7 O :   -0.474486
   8 H :    0.315753
   9 H :    0.101209
  10 H :    0.122928
  11 H :    0.104123
Sum of atomic charges:   -0.0000000

LOEWDIN ATOMIC CHARGES
----------------------
   0 C :   -0.001631
   1 O :   -0.000480
   2 H :   -0.000021
   3 H :   -0.000016
   4 H :   -0.002301
   5 H :   -0.000009
   6 C :   -0.386603
   7 O :   -0.095166
   8 H :    0.187036
   9 H :    0.096796
  10 H :    0.116915
  11 H :    0.085481

  Mayer bond orders larger than 0.1
B(  6-C ,  7-O ) :   0.9917 B(  6-C ,  9-H ) :   0.9737 B(  6-C , 10-H ) :   0.9710
B(  6-C , 11-H ) :   0.9791 B(  7-O ,  8-H ) :   0.8931

Dispersion correction           -0.000231480
FINAL SINGLE POINT ENERGY      -115.733080914396

DIPOLE MOMENT
-------------
                                X             Y             Z
Electronic contribution:      1.33103      -0.62006       1.01947
Nuclear contribution   :     -1.33821       1.16289      -1.48391
                        -----------------------------------------
Total Dipole Moment    :     -0.00718       0.54283      -0.46444
                        -----------------------------------------
Magnitude (a.u.)       :      0.71444
Magnitude (Debye)      :      1.81595

Rotational constants in cm-1:     4.160297     0.837037     0.792307
Rotational constants in MHz : 124722.562934 25093.746751 23752.776159

                             ****ORCA TERMINATED NORMALLY****
TOTAL RUN TIME: 0 days 0 hours 1 minutes 0 seconds 445 msec
