                         Program Version 4.1.2  - RELEASE  -
|  1> #Run DFT-D3 single point of the dimer
|  2> ! wB97X-D3 def2-TZVP TIGHTSCF CHELPG PMODEL PAL8
|  3>
|  4> %base "9-188_DFT_AB"
|  5>
|  6> %scf
|  7> MaxIter 1000
|  8> end
|  9>
| 10> * xyz 0 1
| 11>   C                      -10.058210           -2.708673            7.810617
| 12>   O                      -9.294148            -2.970554            8.993616
| 13>   H                      -9.375292            -2.210584            9.623569
| 14>   H                      -11.093265           -2.415261            8.091974
| 15>   H                      -9.757479            -1.929562            7.148214
| 16>   H                      -9.995265            -3.549433            7.215435
| 17>   C                      -9.740020            -6.566875            8.770903
| 18>   O                      -8.653660            -5.722718            8.868641
| 19>   H                      -9.038413            -4.819726            8.891017
| 20>   H                      -10.461432           -6.179090            8.082069
| 21>   H                      -9.450144            -7.626974            8.478738
| 22>   H                      -10.238696           -6.602781            9.737871
| 23> *
| 24>
| 25> #Run DFT-D3 single point of the molecule with dimer basis set
| 26> $new_job
| 27> %base "9-188_DFT_A"
| 28> ! wB97X-D3 def2-TZVP TIGHTSCF CHELPG PMODEL
| 29>
| 30> %scf
| 31> MaxIter 1000
| 32> end
| 33>
| 34> * xyz 0 1
| 35>   C                      -10.058210           -2.708673            7.810617
| 36>   O                      -9.294148            -2.970554            8.993616
| 37>   H                      -9.375292            -2.210584            9.623569
| 38>   H                      -11.093265           -2.415261            8.091974
| 39>   H                      -9.757479            -1.929562            7.148214
| 40>   H                      -9.995265            -3.549433            7.215435
| 41>   C                    : -9.740020            -6.566875            8.770903
| 42>   O                    : -8.653660            -5.722718            8.868641
| 43>   H                    : -9.038413            -4.819726            8.891017
| 44>   H                    : -10.461432           -6.179090            8.082069
| 45>   H                    : -9.450144            -7.626974            8.478738
| 46>   H                    : -10.238696           -6.602781            9.737871
| 47> *
| 48>
| 49> #Run DFT-D3 single point of the particle with dimer basis set
| 50> $new_job
| 51> %base "9-188_DFT_B"
| 52> ! wB97X-D3 def2-TZVP TIGHTSCF CHELPG PMODEL
| 53>
| 54> %scf
| 55> MaxIter 1000
| 56> end
| 57>
| 58> * xyz 0 1
| 59>   C                    : -10.058210           -2.708673            7.810617
| 60>   O                    : -9.294148            -2.970554            8.993616
| 61>   H                    : -9.375292            -2.210584            9.623569
| 62>   H                    : -11.093265           -2.415261            8.091974
| 63>   H                    : -9.757479            -1.929562            7.148214
| 64>   H                    : -9.995265            -3.549433            7.215435
| 65>   C                      -9.740020            -6.566875            8.770903
| 66>   O                      -8.653660            -5.722718            8.868641
| 67>   H                      -9.038413            -4.819726            8.891017
| 68>   H                      -10.461432           -6.179090            8.082069
| 69>   H                      -9.450144            -7.626974            8.478738
| 70>   H                      -10.238696           -6.602781            9.737871
| 71> *
| 72>
| 73>                          ****END OF INPUT****
 Total Charge           Charge          ....    0
 Multiplicity           Mult            ....    1
 Number of Electrons    NEL             ....   36
Dispersion correction           -0.001900716
FINAL SINGLE POINT ENERGY      -231.468986745300
Dispersion correction           -0.000258975
FINAL SINGLE POINT ENERGY      -115.729494762492

CARTESIAN COORDINATES (ANGSTROEM)
---------------------------------
  C    -10.058210   -2.708673    7.810617
  O     -9.294148   -2.970554    8.993616
  H     -9.375292   -2.210584    9.623569
  H    -11.093265   -2.415261    8.091974
  H     -9.757479   -1.929562    7.148214
  H     -9.995265   -3.549433    7.215435
  C     -9.740020   -6.566875    8.770903
  O     -8.653660   -5.722718    8.868641
  H     -9.038413   -4.819726    8.891017
  H    -10.461432   -6.179090    8.082069
  H     -9.450144   -7.626974    8.478738
  H    -10.238696   -6.602781    9.737871

 Multiplicity           Mult            ....    1
 Number of Electrons    NEL             ....   18
 Basis Dimension        Dim             ....  172

ORBITAL ENERGIES
----------------

  NO   OCC          E(Eh)            E(eV)
   0   2.0000     -19.232425      -523.3409
   1   2.0000     -10.311092      -280.5791
   2   2.0000      -1.146471       -31.1971
   3   2.0000      -0.788468       -21.4553
   4   2.0000      -0.617420       -16.8009
   5   2.0000      -0.545850       -14.8533
   6   2.0000      -0.530272       -14.4294
   7   2.0000      -0.434321       -11.8185
   8   2.0000      -0.369014       -10.0414
   9   0.0000       0.068005         1.8505
  10   0.0000       0.137722         3.7476
  11   0.0000       0.146941         3.9985
  12   0.0000       0.164821         4.4850
  13   0.0000       0.193429         5.2635

MULLIKEN ATOMIC CHARGES
-----------------------
   0 C :   -0.000670
   1 O :   -0.001702
   2 H :   -0.000098
   3 H :    0.000144
   4 H :   -0.000332
   5 H :   -0.003637
   6 C :   -0.171096
   7 O :   -0.454362
   8 H :    0.314368
   9 H :    0.102947
  10 H :    0.113898
  11 H :    0.100541
Sum of atomic charges:    0.0000000

LOEWDIN ATOMIC CHARGES
----------------------
   0 C :   -0.008625
   1 O :   -0.022799
   2 H :   -0.000954
   3 H :   -0.000100
   4 H :   -0.000131
   5 H :   -0.002963
   6 C :   -0.415891
   7 O :   -0.046374
   8 H :    0.201473
   9 H :    0.088481
  10 H :    0.115632
  11 H :    0.092252

  Mayer bond orders larger than 0.1
B(  6-C ,  7-O ) :   0.9935 B(  6-C ,  9-H ) :   0.9787 B(  6-C , 10-H ) :   0.9687
B(  6-C , 11-H ) :   0.9855 B(  7-O ,  8-H ) :   0.9026

Dispersion correction           -0.000210439
FINAL SINGLE POINT ENERGY      -115.732410630784

DIPOLE MOMENT
-------------
                                X             Y             Z
Electronic contribution:      1.56816       0.97676       0.06635
Nuclear contribution   :     -2.21493      -0.72395      -0.09546
                        -----------------------------------------
Total Dipole Moment    :     -0.64677       0.25282      -0.02912
                        -----------------------------------------
Magnitude (a.u.)       :      0.69504
Magnitude (Debye)      :      1.76665

Rotational constants in cm-1:     4.204079     0.873647     0.830713
Rotational constants in MHz : 126035.127467 26191.289219 24904.153702

                             ****ORCA TERMINATED NORMALLY****
TOTAL RUN TIME: 0 days 0 hours 0 minutes 47 seconds 731 msec
