                         Program Version 4.1.2  - RELEASE  -
|  1> #Run DFT-D3 single point of the dimer
|  2> ! wB97X-D3 def2-TZVP TIGHTSCF CHELPG PMODEL PAL8
|  3>
|  4> %base "7-25_DFT_AB"
|  5>
|  6> %scf
|  7> MaxIter 1000
|  8> end
|  9>
| 10> * xyz 0 1
| 11>   C                      -1.043704            -4.234054            3.067058
| 12>   O                      -0.967894            -4.898226            4.364749
| 13>   H                      -1.811567            -5.220936            4.592340
| 14>   H                      -1.580061            -3.307889            3.073810
| 15>   H                      -0.006759            -3.989458            2.723288
| 16>   H                      -1.542091            -4.895781            2.312860
| 17>   C                      -3.148768            -0.209111            5.185935
| 18>   O                      -3.001862            0.879201             6.043669
| 19>   H                      -3.014803            0.564210             6.908787
| 20>   H                      -2.270155            -0.858991            5.207381
| 21>   H                      -4.150670            -0.717197            5.397588
| 22>   H                      -3.223571            0.043395             4.173773
| 23> *
| 24>
| 25> #Run DFT-D3 single point of the molecule with dimer basis set
| 26> $new_job
| 27> %base "7-25_DFT_A"
| 28> ! wB97X-D3 def2-TZVP TIGHTSCF CHELPG PMODEL
| 29>
| 30> %scf
| 31> MaxIter 1000
| 32> end
| 33>
| 34> * xyz 0 1
| 35>   C                      -1.043704            -4.234054            3.067058
| 36>   O                      -0.967894            -4.898226            4.364749
| 37>   H                      -1.811567            -5.220936            4.592340
| 38>   H                      -1.580061            -3.307889            3.073810
| 39>   H                      -0.006759            -3.989458            2.723288
| 40>   H                      -1.542091            -4.895781            2.312860
| 41>   C                    : -3.148768            -0.209111            5.185935
| 42>   O                    : -3.001862            0.879201             6.043669
| 43>   H                    : -3.014803            0.564210             6.908787
| 44>   H                    : -2.270155            -0.858991            5.207381
| 45>   H                    : -4.150670            -0.717197            5.397588
| 46>   H                    : -3.223571            0.043395             4.173773
| 47> *
| 48>
| 49> #Run DFT-D3 single point of the particle with dimer basis set
| 50> $new_job
| 51> %base "7-25_DFT_B"
| 52> ! wB97X-D3 def2-TZVP TIGHTSCF CHELPG PMODEL
| 53>
| 54> %scf
| 55> MaxIter 1000
| 56> end
| 57>
| 58> * xyz 0 1
| 59>   C                    : -1.043704            -4.234054            3.067058
| 60>   O                    : -0.967894            -4.898226            4.364749
| 61>   H                    : -1.811567            -5.220936            4.592340
| 62>   H                    : -1.580061            -3.307889            3.073810
| 63>   H                    : -0.006759            -3.989458            2.723288
| 64>   H                    : -1.542091            -4.895781            2.312860
| 65>   C                      -3.148768            -0.209111            5.185935
| 66>   O                      -3.001862            0.879201             6.043669
| 67>   H                      -3.014803            0.564210             6.908787
| 68>   H                      -2.270155            -0.858991            5.207381
| 69>   H                      -4.150670            -0.717197            5.397588
| 70>   H                      -3.223571            0.043395             4.173773
| 71> *
| 72>
| 73>                          ****END OF INPUT****
 Total Charge           Charge          ....    0
 Multiplicity           Mult            ....    1
 Number of Electrons    NEL             ....   36
Dispersion correction           -0.000859527
FINAL SINGLE POINT ENERGY      -231.463415289292
Dispersion correction           -0.000268682
FINAL SINGLE POINT ENERGY      -115.733451777906

CARTESIAN COORDINATES (ANGSTROEM)
---------------------------------
  C     -1.043704   -4.234054    3.067058
  O     -0.967894   -4.898226    4.364749
  H     -1.811567   -5.220936    4.592340
  H     -1.580061   -3.307889    3.073810
  H     -0.006759   -3.989458    2.723288
  H     -1.542091   -4.895781    2.312860
  C     -3.148768   -0.209111    5.185935
  O     -3.001862    0.879201    6.043669
  H     -3.014803    0.564210    6.908787
  H     -2.270155   -0.858991    5.207381
  H     -4.150670   -0.717197    5.397588
  H     -3.223571    0.043395    4.173773

 Multiplicity           Mult            ....    1
 Number of Electrons    NEL             ....   18
 Basis Dimension        Dim             ....  172

ORBITAL ENERGIES
----------------

  NO   OCC          E(Eh)            E(eV)
   0   2.0000     -19.226169      -523.1706
   1   2.0000     -10.311496      -280.5901
   2   2.0000      -1.150431       -31.3048
   3   2.0000      -0.801442       -21.8083
   4   2.0000      -0.613216       -16.6864
   5   2.0000      -0.549903       -14.9636
   6   2.0000      -0.537864       -14.6360
   7   2.0000      -0.425203       -11.5703
   8   2.0000      -0.375305       -10.2126
   9   0.0000       0.082297         2.2394
  10   0.0000       0.120744         3.2856
  11   0.0000       0.148398         4.0381
  12   0.0000       0.162030         4.4090
  13   0.0000       0.186262         5.0684

MULLIKEN ATOMIC CHARGES
-----------------------
   0 C :    0.000236
   1 O :    0.000002
   2 H :   -0.000019
   3 H :   -0.000560
   4 H :   -0.000008
   5 H :   -0.000020
   6 C :   -0.167724
   7 O :   -0.462018
   8 H :    0.311327
   9 H :    0.101572
  10 H :    0.094710
  11 H :    0.122502
Sum of atomic charges:   -0.0000000

LOEWDIN ATOMIC CHARGES
----------------------
   0 C :   -0.000257
   1 O :   -0.000007
   2 H :   -0.000011
   3 H :   -0.000458
   4 H :   -0.000003
   5 H :   -0.000003
   6 C :   -0.399081
   7 O :   -0.042982
   8 H :    0.145658
   9 H :    0.095455
  10 H :    0.104992
  11 H :    0.096699

  Mayer bond orders larger than 0.1
B(  6-C ,  7-O ) :   1.0014 B(  6-C ,  9-H ) :   0.9779 B(  6-C , 10-H ) :   0.9831
B(  6-C , 11-H ) :   0.9709 B(  7-O ,  8-H ) :   0.9070

Dispersion correction           -0.000230430
FINAL SINGLE POINT ENERGY      -115.729560738682

DIPOLE MOMENT
-------------
                                X             Y             Z
Electronic contribution:      0.27128       1.54154       1.01767
Nuclear contribution   :     -0.32674      -2.13950      -0.82727
                        -----------------------------------------
Total Dipole Moment    :     -0.05546      -0.59796       0.19040
                        -----------------------------------------
Magnitude (a.u.)       :      0.62999
Magnitude (Debye)      :      1.60131

Rotational constants in cm-1:     4.405428     0.840555     0.829568
Rotational constants in MHz : 132071.418741 25199.192344 24869.828447

                             ****ORCA TERMINATED NORMALLY****
TOTAL RUN TIME: 0 days 0 hours 0 minutes 59 seconds 549 msec
