                         Program Version 4.1.2  - RELEASE  -
|  1> #Run DFT-D3 single point of the dimer
|  2> ! wB97X-D3 def2-TZVP TIGHTSCF CHELPG PMODEL PAL8
|  3>
|  4> %base "17-5_DFT_AB"
|  5>
|  6> %scf
|  7> MaxIter 1000
|  8> end
|  9>
| 10> * xyz 0 1
| 11>   C                      4.197069             -5.731458            9.963804
| 12>   O                      3.094894             -5.843376            9.191124
| 13>   H                      2.638128             -4.976491            9.044959
| 14>   H                      4.671865             -6.648630            10.240441
| 15>   H                      4.946971             -5.153106            9.403973
| 16>   H                      3.975430             -5.220114            10.891315
| 17>   C                      5.828474             -4.478692            5.740824
| 18>   O                      5.992873             -4.691048            4.348628
| 19>   H                      6.191507             -5.635749            4.191753
| 20>   H                      6.727600             -4.485124            6.268104
| 21>   H                      5.386833             -3.495659            5.965815
| 22>   H                      5.111332             -5.201312            6.076706
| 23> *
| 24>
| 25> #Run DFT-D3 single point of the molecule with dimer basis set
| 26> $new_job
| 27> %base "17-5_DFT_A"
| 28> ! wB97X-D3 def2-TZVP TIGHTSCF CHELPG PMODEL
| 29>
| 30> %scf
| 31> MaxIter 1000
| 32> end
| 33>
| 34> * xyz 0 1
| 35>   C                      4.197069             -5.731458            9.963804
| 36>   O                      3.094894             -5.843376            9.191124
| 37>   H                      2.638128             -4.976491            9.044959
| 38>   H                      4.671865             -6.648630            10.240441
| 39>   H                      4.946971             -5.153106            9.403973
| 40>   H                      3.975430             -5.220114            10.891315
| 41>   C                    : 5.828474             -4.478692            5.740824
| 42>   O                    : 5.992873             -4.691048            4.348628
| 43>   H                    : 6.191507             -5.635749            4.191753
| 44>   H                    : 6.727600             -4.485124            6.268104
| 45>   H                    : 5.386833             -3.495659            5.965815
| 46>   H                    : 5.111332             -5.201312            6.076706
| 47> *
| 48>
| 49> #Run DFT-D3 single point of the particle with dimer basis set
| 50> $new_job
| 51> %base "17-5_DFT_B"
| 52> ! wB97X-D3 def2-TZVP TIGHTSCF CHELPG PMODEL
| 53>
| 54> %scf
| 55> MaxIter 1000
| 56> end
| 57>
| 58> * xyz 0 1
| 59>   C                    : 4.197069             -5.731458            9.963804
| 60>   O                    : 3.094894             -5.843376            9.191124
| 61>   H                    : 2.638128             -4.976491            9.044959
| 62>   H                    : 4.671865             -6.648630            10.240441
| 63>   H                    : 4.946971             -5.153106            9.403973
| 64>   H                    : 3.975430             -5.220114            10.891315
| 65>   C                      5.828474             -4.478692            5.740824
| 66>   O                      5.992873             -4.691048            4.348628
| 67>   H                      6.191507             -5.635749            4.191753
| 68>   H                      6.727600             -4.485124            6.268104
| 69>   H                      5.386833             -3.495659            5.965815
| 70>   H                      5.111332             -5.201312            6.076706
| 71> *
| 72>
| 73>                          ****END OF INPUT****
 Total Charge           Charge          ....    0
 Multiplicity           Mult            ....    1
 Number of Electrons    NEL             ....   36
Dispersion correction           -0.001000532
FINAL SINGLE POINT ENERGY      -231.463198802757
Dispersion correction           -0.000216573
FINAL SINGLE POINT ENERGY      -115.730254289509

CARTESIAN COORDINATES (ANGSTROEM)
---------------------------------
  C      4.197069   -5.731458    9.963804
  O      3.094894   -5.843376    9.191124
  H      2.638128   -4.976491    9.044959
  H      4.671865   -6.648630   10.240441
  H      4.946971   -5.153106    9.403973
  H      3.975430   -5.220114   10.891315
  C      5.828474   -4.478692    5.740824
  O      5.992873   -4.691048    4.348628
  H      6.191507   -5.635749    4.191753
  H      6.727600   -4.485124    6.268104
  H      5.386833   -3.495659    5.965815
  H      5.111332   -5.201312    6.076706

 Multiplicity           Mult            ....    1
 Number of Electrons    NEL             ....   18
 Basis Dimension        Dim             ....  172

ORBITAL ENERGIES
----------------

  NO   OCC          E(Eh)            E(eV)
   0   2.0000     -19.228087      -523.2229
   1   2.0000     -10.305306      -280.4216
   2   2.0000      -1.129206       -30.7272
   3   2.0000      -0.799189       -21.7470
   4   2.0000      -0.604522       -16.4499
   5   2.0000      -0.555910       -15.1271
   6   2.0000      -0.526323       -14.3220
   7   2.0000      -0.424801       -11.5594
   8   2.0000      -0.374440       -10.1890
   9   0.0000       0.080886         2.2010
  10   0.0000       0.115612         3.1460
  11   0.0000       0.148013         4.0276
  12   0.0000       0.161430         4.3927
  13   0.0000       0.186581         5.0771

MULLIKEN ATOMIC CHARGES
-----------------------
   0 C :   -0.000307
   1 O :    0.000062
   2 H :   -0.000051
   3 H :    0.000019
   4 H :   -0.000034
   5 H :   -0.000019
   6 C :   -0.159828
   7 O :   -0.484585
   8 H :    0.316406
   9 H :    0.107639
  10 H :    0.114364
  11 H :    0.106334
Sum of atomic charges:   -0.0000000

LOEWDIN ATOMIC CHARGES
----------------------
   0 C :   -0.000432
   1 O :   -0.000084
   2 H :   -0.000075
   3 H :   -0.000005
   4 H :   -0.000388
   5 H :   -0.000006
   6 C :   -0.375421
   7 O :   -0.091755
   8 H :    0.178568
   9 H :    0.084060
  10 H :    0.111114
  11 H :    0.094424

  Mayer bond orders larger than 0.1
B(  6-C ,  7-O ) :   0.9955 B(  6-C ,  9-H ) :   0.9730 B(  6-C , 10-H ) :   0.9719
B(  6-C , 11-H ) :   0.9902 B(  7-O ,  8-H ) :   0.8956

Dispersion correction           -0.000230848
FINAL SINGLE POINT ENERGY      -115.732090046431

DIPOLE MOMENT
-------------
                                X             Y             Z
Electronic contribution:      0.27449      -0.15801      -1.73896
Nuclear contribution   :     -0.22210      -0.34388       2.22056
                        -----------------------------------------
Total Dipole Moment    :      0.05239      -0.50189       0.48160
                        -----------------------------------------
Magnitude (a.u.)       :      0.69755
Magnitude (Debye)      :      1.77303

Rotational constants in cm-1:     4.442833     0.827827     0.801812
Rotational constants in MHz : 133192.778359 24817.643245 24037.706717

                             ****ORCA TERMINATED NORMALLY****
TOTAL RUN TIME: 0 days 0 hours 1 minutes 11 seconds 326 msec
