                         Program Version 4.1.2  - RELEASE  -
|  1> #Run DFT-D3 single point of the dimer
|  2> ! wB97X-D3 def2-TZVP TIGHTSCF CHELPG PMODEL PAL8
|  3>
|  4> %base "1-84_DFT_AB"
|  5>
|  6> %scf
|  7> MaxIter 1000
|  8> end
|  9>
| 10> * xyz 0 1
| 11>   C                      -2.564663            -10.829491           0.819036
| 12>   O                      -1.332082            -11.025152           1.444712
| 13>   H                      -1.579110            -11.609815           2.161669
| 14>   H                      -2.334350            -10.176657           -0.055430
| 15>   H                      -2.996839            -11.752730           0.453297
| 16>   H                      -3.253794            -10.236978           1.399588
| 17>   C                      -0.808032            -6.187837            1.747127
| 18>   O                      -0.631241            -7.208097            0.807999
| 19>   H                      -1.330560            -7.909240            0.991292
| 20>   H                      -0.481562            -5.235415            1.378907
| 21>   H                      -1.927867            -6.005868            1.953286
| 22>   H                      -0.339011            -6.318629            2.713605
| 23> *
| 24>
| 25> #Run DFT-D3 single point of the molecule with dimer basis set
| 26> $new_job
| 27> %base "1-84_DFT_A"
| 28> ! wB97X-D3 def2-TZVP TIGHTSCF CHELPG PMODEL
| 29>
| 30> %scf
| 31> MaxIter 1000
| 32> end
| 33>
| 34> * xyz 0 1
| 35>   C                      -2.564663            -10.829491           0.819036
| 36>   O                      -1.332082            -11.025152           1.444712
| 37>   H                      -1.579110            -11.609815           2.161669
| 38>   H                      -2.334350            -10.176657           -0.055430
| 39>   H                      -2.996839            -11.752730           0.453297
| 40>   H                      -3.253794            -10.236978           1.399588
| 41>   C                    : -0.808032            -6.187837            1.747127
| 42>   O                    : -0.631241            -7.208097            0.807999
| 43>   H                    : -1.330560            -7.909240            0.991292
| 44>   H                    : -0.481562            -5.235415            1.378907
| 45>   H                    : -1.927867            -6.005868            1.953286
| 46>   H                    : -0.339011            -6.318629            2.713605
| 47> *
| 48>
| 49> #Run DFT-D3 single point of the particle with dimer basis set
| 50> $new_job
| 51> %base "1-84_DFT_B"
| 52> ! wB97X-D3 def2-TZVP TIGHTSCF CHELPG PMODEL
| 53>
| 54> %scf
| 55> MaxIter 1000
| 56> end
| 57>
| 58> * xyz 0 1
| 59>   C                    : -2.564663            -10.829491           0.819036
| 60>   O                    : -1.332082            -11.025152           1.444712
| 61>   H                    : -1.579110            -11.609815           2.161669
| 62>   H                    : -2.334350            -10.176657           -0.055430
| 63>   H                    : -2.996839            -11.752730           0.453297
| 64>   H                    : -3.253794            -10.236978           1.399588
| 65>   C                      -0.808032            -6.187837            1.747127
| 66>   O                      -0.631241            -7.208097            0.807999
| 67>   H                      -1.330560            -7.909240            0.991292
| 68>   H                      -0.481562            -5.235415            1.378907
| 69>   H                      -1.927867            -6.005868            1.953286
| 70>   H                      -0.339011            -6.318629            2.713605
| 71> *
| 72>
| 73>                          ****END OF INPUT****
 Total Charge           Charge          ....    0
 Multiplicity           Mult            ....    1
 Number of Electrons    NEL             ....   36
Dispersion correction           -0.001282472
FINAL SINGLE POINT ENERGY      -231.465529598633
Dispersion correction           -0.000214971
FINAL SINGLE POINT ENERGY      -115.733812379003

CARTESIAN COORDINATES (ANGSTROEM)
---------------------------------
  C     -2.564663  -10.829491    0.819036
  O     -1.332082  -11.025152    1.444712
  H     -1.579110  -11.609815    2.161669
  H     -2.334350  -10.176657   -0.055430
  H     -2.996839  -11.752730    0.453297
  H     -3.253794  -10.236978    1.399588
  C     -0.808032   -6.187837    1.747127
  O     -0.631241   -7.208097    0.807999
  H     -1.330560   -7.909240    0.991292
  H     -0.481562   -5.235415    1.378907
  H     -1.927867   -6.005868    1.953286
  H     -0.339011   -6.318629    2.713605

 Multiplicity           Mult            ....    1
 Number of Electrons    NEL             ....   18
 Basis Dimension        Dim             ....  172

ORBITAL ENERGIES
----------------

  NO   OCC          E(Eh)            E(eV)
   0   2.0000     -19.238248      -523.4993
   1   2.0000     -10.314027      -280.6589
   2   2.0000      -1.135081       -30.8871
   3   2.0000      -0.791416       -21.5355
   4   2.0000      -0.608648       -16.5622
   5   2.0000      -0.540990       -14.7211
   6   2.0000      -0.530875       -14.4458
   7   2.0000      -0.426928       -11.6173
   8   2.0000      -0.374713       -10.1965
   9   0.0000       0.069273         1.8850
  10   0.0000       0.123038         3.3480
  11   0.0000       0.148778         4.0485
  12   0.0000       0.166627         4.5341
  13   0.0000       0.191956         5.2234

MULLIKEN ATOMIC CHARGES
-----------------------
   0 C :   -0.000674
   1 O :   -0.000067
   2 H :   -0.000015
   3 H :   -0.000230
   4 H :    0.000002
   5 H :   -0.000288
   6 C :   -0.161329
   7 O :   -0.466143
   8 H :    0.323453
   9 H :    0.114222
  10 H :    0.089483
  11 H :    0.101587
Sum of atomic charges:    0.0000000

LOEWDIN ATOMIC CHARGES
----------------------
   0 C :   -0.002741
   1 O :   -0.000474
   2 H :   -0.000034
   3 H :   -0.000929
   4 H :   -0.000038
   5 H :   -0.000349
   6 C :   -0.408733
   7 O :   -0.080416
   8 H :    0.201350
   9 H :    0.099762
  10 H :    0.102807
  11 H :    0.089794

  Mayer bond orders larger than 0.1
B(  6-C ,  7-O ) :   1.0154 B(  6-C ,  9-H ) :   0.9753 B(  6-C , 10-H ) :   0.9874
B(  6-C , 11-H ) :   0.9668 B(  7-O ,  8-H ) :   0.8906

Dispersion correction           -0.000255385
FINAL SINGLE POINT ENERGY      -115.730840883317

DIPOLE MOMENT
-------------
                                X             Y             Z
Electronic contribution:      0.53140      -1.34959      -1.33646
Nuclear contribution   :     -1.02410       1.31583       1.79258
                        -----------------------------------------
Total Dipole Moment    :     -0.49270      -0.03376       0.45612
                        -----------------------------------------
Magnitude (a.u.)       :      0.67226
Magnitude (Debye)      :      1.70875

Rotational constants in cm-1:     4.273771     0.833526     0.802227
Rotational constants in MHz : 128124.430503 24988.470139 24050.164616

                             ****ORCA TERMINATED NORMALLY****
TOTAL RUN TIME: 0 days 0 hours 6 minutes 1 seconds 475 msec
