                         Program Version 4.1.2  - RELEASE  -
|  1> #Run DFT-D3 single point of the dimer
|  2> ! wB97X-D3 def2-TZVP TIGHTSCF CHELPG PMODEL PAL8
|  3>
|  4> %base "8-10_DFT_AB"
|  5>
|  6> %scf
|  7> MaxIter 1000
|  8> end
|  9>
| 10> * xyz 0 1
| 11>   C                      3.233414             -3.571402            3.480505
| 12>   O                      2.255676             -2.570167            3.219103
| 13>   H                      1.566001             -2.787145            3.844910
| 14>   H                      2.766447             -4.558397            3.518261
| 15>   H                      4.083400             -3.498807            2.869667
| 16>   H                      3.649298             -3.340378            4.517966
| 17>   C                      2.190810             -7.622112            3.799736
| 18>   O                      1.867527             -8.642133            4.690213
| 19>   H                      1.165930             -9.131923            4.296527
| 20>   H                      3.167117             -7.125096            4.000440
| 21>   H                      2.210953             -8.016727            2.822094
| 22>   H                      1.421093             -6.800480            3.750480
| 23> *
| 24>
| 25> #Run DFT-D3 single point of the molecule with dimer basis set
| 26> $new_job
| 27> %base "8-10_DFT_A"
| 28> ! wB97X-D3 def2-TZVP TIGHTSCF CHELPG PMODEL
| 29>
| 30> %scf
| 31> MaxIter 1000
| 32> end
| 33>
| 34> * xyz 0 1
| 35>   C                      3.233414             -3.571402            3.480505
| 36>   O                      2.255676             -2.570167            3.219103
| 37>   H                      1.566001             -2.787145            3.844910
| 38>   H                      2.766447             -4.558397            3.518261
| 39>   H                      4.083400             -3.498807            2.869667
| 40>   H                      3.649298             -3.340378            4.517966
| 41>   C                    : 2.190810             -7.622112            3.799736
| 42>   O                    : 1.867527             -8.642133            4.690213
| 43>   H                    : 1.165930             -9.131923            4.296527
| 44>   H                    : 3.167117             -7.125096            4.000440
| 45>   H                    : 2.210953             -8.016727            2.822094
| 46>   H                    : 1.421093             -6.800480            3.750480
| 47> *
| 48>
| 49> #Run DFT-D3 single point of the particle with dimer basis set
| 50> $new_job
| 51> %base "8-10_DFT_B"
| 52> ! wB97X-D3 def2-TZVP TIGHTSCF CHELPG PMODEL
| 53>
| 54> %scf
| 55> MaxIter 1000
| 56> end
| 57>
| 58> * xyz 0 1
| 59>   C                    : 3.233414             -3.571402            3.480505
| 60>   O                    : 2.255676             -2.570167            3.219103
| 61>   H                    : 1.566001             -2.787145            3.844910
| 62>   H                    : 2.766447             -4.558397            3.518261
| 63>   H                    : 4.083400             -3.498807            2.869667
| 64>   H                    : 3.649298             -3.340378            4.517966
| 65>   C                      2.190810             -7.622112            3.799736
| 66>   O                      1.867527             -8.642133            4.690213
| 67>   H                      1.165930             -9.131923            4.296527
| 68>   H                      3.167117             -7.125096            4.000440
| 69>   H                      2.210953             -8.016727            2.822094
| 70>   H                      1.421093             -6.800480            3.750480
| 71> *
| 72>
| 73>                          ****END OF INPUT****
 Total Charge           Charge          ....    0
 Multiplicity           Mult            ....    1
 Number of Electrons    NEL             ....   36
Dispersion correction           -0.001200574
FINAL SINGLE POINT ENERGY      -231.463781111676
Dispersion correction           -0.000215901
FINAL SINGLE POINT ENERGY      -115.730623140987

CARTESIAN COORDINATES (ANGSTROEM)
---------------------------------
  C      3.233414   -3.571402    3.480505
  O      2.255676   -2.570167    3.219103
  H      1.566001   -2.787145    3.844910
  H      2.766447   -4.558397    3.518261
  H      4.083400   -3.498807    2.869667
  H      3.649298   -3.340378    4.517966
  C      2.190810   -7.622112    3.799736
  O      1.867527   -8.642133    4.690213
  H      1.165930   -9.131923    4.296527
  H      3.167117   -7.125096    4.000440
  H      2.210953   -8.016727    2.822094
  H      1.421093   -6.800480    3.750480

 Multiplicity           Mult            ....    1
 Number of Electrons    NEL             ....   18
 Basis Dimension        Dim             ....  172

ORBITAL ENERGIES
----------------

  NO   OCC          E(Eh)            E(eV)
   0   2.0000     -19.230108      -523.2778
   1   2.0000     -10.313164      -280.6355
   2   2.0000      -1.148915       -31.2636
   3   2.0000      -0.795420       -21.6445
   4   2.0000      -0.621027       -16.8990
   5   2.0000      -0.540461       -14.7067
   6   2.0000      -0.532296       -14.4845
   7   2.0000      -0.435529       -11.8513
   8   2.0000      -0.371502       -10.1091
   9   0.0000       0.085282         2.3206
  10   0.0000       0.117269         3.1910
  11   0.0000       0.153635         4.1806
  12   0.0000       0.161190         4.3862
  13   0.0000       0.191259         5.2044

MULLIKEN ATOMIC CHARGES
-----------------------
   0 C :    0.002022
   1 O :   -0.000053
   2 H :   -0.000096
   3 H :   -0.003892
   4 H :   -0.000059
   5 H :   -0.000086
   6 C :   -0.163321
   7 O :   -0.460819
   8 H :    0.313734
   9 H :    0.119362
  10 H :    0.103734
  11 H :    0.089475
Sum of atomic charges:   -0.0000000

LOEWDIN ATOMIC CHARGES
----------------------
   0 C :   -0.001342
   1 O :   -0.000010
   2 H :   -0.000038
   3 H :   -0.003850
   4 H :   -0.000016
   5 H :   -0.000026
   6 C :   -0.402693
   7 O :   -0.050430
   8 H :    0.161702
   9 H :    0.113068
  10 H :    0.086351
  11 H :    0.097284

  Mayer bond orders larger than 0.1
B(  6-C ,  7-O ) :   0.9998 B(  6-C ,  9-H ) :   0.9718 B(  6-C , 10-H ) :   0.9836
B(  6-C , 11-H ) :   0.9723 B(  7-O ,  8-H ) :   0.9022

Dispersion correction           -0.000229577
FINAL SINGLE POINT ENERGY      -115.732542784492

DIPOLE MOMENT
-------------
                                X             Y             Z
Electronic contribution:     -0.26094      -1.37463       1.31872
Nuclear contribution   :     -0.05084       1.42360      -1.93196
                        -----------------------------------------
Total Dipole Moment    :     -0.31178       0.04897      -0.61324
                        -----------------------------------------
Magnitude (a.u.)       :      0.68969
Magnitude (Debye)      :      1.75305

Rotational constants in cm-1:     4.377444     0.849782     0.815525
Rotational constants in MHz : 131232.464023 25475.829747 24448.836101

                             ****ORCA TERMINATED NORMALLY****
TOTAL RUN TIME: 0 days 0 hours 0 minutes 42 seconds 92 msec
