                         Program Version 4.1.2  - RELEASE  -
|  1> #Run DFT-D3 single point of the dimer
|  2> ! wB97X-D3 def2-TZVP TIGHTSCF CHELPG PMODEL PAL8
|  3>
|  4> %base "13-33_DFT_AB"
|  5>
|  6> %scf
|  7> MaxIter 1000
|  8> end
|  9>
| 10> * xyz 0 1
| 11>   C                      0.693580             10.738664            9.003647
| 12>   O                      -0.631449            10.218537            8.833525
| 13>   H                      -0.875626            10.477739            7.931465
| 14>   H                      0.926423             11.509323            8.158757
| 15>   H                      0.794173             11.306749            9.896924
| 16>   H                      1.519966             9.978133             8.991568
| 17>   C                      -4.487210            10.815205            8.350348
| 18>   O                      -4.551574            10.014269            9.504995
| 19>   H                      -5.360947            9.518464             9.275820
| 20>   H                      -5.241380            11.625561            8.355887
| 21>   H                      -3.526033            11.207367            7.985136
| 22>   H                      -4.922902            10.255765            7.497466
| 23> *
| 24>
| 25> #Run DFT-D3 single point of the molecule with dimer basis set
| 26> $new_job
| 27> %base "13-33_DFT_A"
| 28> ! wB97X-D3 def2-TZVP TIGHTSCF CHELPG PMODEL
| 29>
| 30> %scf
| 31> MaxIter 1000
| 32> end
| 33>
| 34> * xyz 0 1
| 35>   C                      0.693580             10.738664            9.003647
| 36>   O                      -0.631449            10.218537            8.833525
| 37>   H                      -0.875626            10.477739            7.931465
| 38>   H                      0.926423             11.509323            8.158757
| 39>   H                      0.794173             11.306749            9.896924
| 40>   H                      1.519966             9.978133             8.991568
| 41>   C                    : -4.487210            10.815205            8.350348
| 42>   O                    : -4.551574            10.014269            9.504995
| 43>   H                    : -5.360947            9.518464             9.275820
| 44>   H                    : -5.241380            11.625561            8.355887
| 45>   H                    : -3.526033            11.207367            7.985136
| 46>   H                    : -4.922902            10.255765            7.497466
| 47> *
| 48>
| 49> #Run DFT-D3 single point of the particle with dimer basis set
| 50> $new_job
| 51> %base "13-33_DFT_B"
| 52> ! wB97X-D3 def2-TZVP TIGHTSCF CHELPG PMODEL
| 53>
| 54> %scf
| 55> MaxIter 1000
| 56> end
| 57>
| 58> * xyz 0 1
| 59>   C                    : 0.693580             10.738664            9.003647
| 60>   O                    : -0.631449            10.218537            8.833525
| 61>   H                    : -0.875626            10.477739            7.931465
| 62>   H                    : 0.926423             11.509323            8.158757
| 63>   H                    : 0.794173             11.306749            9.896924
| 64>   H                    : 1.519966             9.978133             8.991568
| 65>   C                      -4.487210            10.815205            8.350348
| 66>   O                      -4.551574            10.014269            9.504995
| 67>   H                      -5.360947            9.518464             9.275820
| 68>   H                      -5.241380            11.625561            8.355887
| 69>   H                      -3.526033            11.207367            7.985136
| 70>   H                      -4.922902            10.255765            7.497466
| 71> *
| 72>
| 73>                          ****END OF INPUT****
 Total Charge           Charge          ....    0
 Multiplicity           Mult            ....    1
 Number of Electrons    NEL             ....   36
Dispersion correction           -0.001129992
FINAL SINGLE POINT ENERGY      -231.453360886621
Dispersion correction           -0.000268285
FINAL SINGLE POINT ENERGY      -115.730122243946

CARTESIAN COORDINATES (ANGSTROEM)
---------------------------------
  C      0.693580   10.738664    9.003647
  O     -0.631449   10.218537    8.833525
  H     -0.875626   10.477739    7.931465
  H      0.926423   11.509323    8.158757
  H      0.794173   11.306749    9.896924
  H      1.519966    9.978133    8.991568
  C     -4.487210   10.815205    8.350348
  O     -4.551574   10.014269    9.504995
  H     -5.360947    9.518464    9.275820
  H     -5.241380   11.625561    8.355887
  H     -3.526033   11.207367    7.985136
  H     -4.922902   10.255765    7.497466

 Multiplicity           Mult            ....    1
 Number of Electrons    NEL             ....   18
 Basis Dimension        Dim             ....  172

ORBITAL ENERGIES
----------------

  NO   OCC          E(Eh)            E(eV)
   0   2.0000     -19.238559      -523.5078
   1   2.0000     -10.318350      -280.7766
   2   2.0000      -1.145622       -31.1739
   3   2.0000      -0.790166       -21.5015
   4   2.0000      -0.615323       -16.7438
   5   2.0000      -0.539517       -14.6810
   6   2.0000      -0.528166       -14.3721
   7   2.0000      -0.442611       -12.0440
   8   2.0000      -0.370626       -10.0852
   9   0.0000       0.089235         2.4282
  10   0.0000       0.108235         2.9452
  11   0.0000       0.147303         4.0083
  12   0.0000       0.169889         4.6229
  13   0.0000       0.197199         5.3661

MULLIKEN ATOMIC CHARGES
-----------------------
   0 C :    0.000078
   1 O :    0.000099
   2 H :   -0.000088
   3 H :   -0.000019
   4 H :   -0.000003
   5 H :   -0.000004
   6 C :   -0.193127
   7 O :   -0.449681
   8 H :    0.321977
   9 H :    0.099360
  10 H :    0.124109
  11 H :    0.097298
Sum of atomic charges:    0.0000000

LOEWDIN ATOMIC CHARGES
----------------------
   0 C :   -0.000041
   1 O :   -0.000387
   2 H :   -0.001374
   3 H :   -0.000001
   4 H :   -0.000001
   5 H :   -0.000000
   6 C :   -0.412847
   7 O :   -0.074701
   8 H :    0.190355
   9 H :    0.095062
  10 H :    0.106871
  11 H :    0.097064

  Mayer bond orders larger than 0.1
B(  6-C ,  7-O ) :   1.0037 B(  6-C ,  9-H ) :   0.9728 B(  6-C , 10-H ) :   0.9691
B(  6-C , 11-H ) :   0.9927 B(  7-O ,  8-H ) :   0.8968

Dispersion correction           -0.000224937
FINAL SINGLE POINT ENERGY      -115.724479806814

DIPOLE MOMENT
-------------
                                X             Y             Z
Electronic contribution:      0.30807      -0.98235       1.80226
Nuclear contribution   :     -0.78348       0.95907      -2.39031
                        -----------------------------------------
Total Dipole Moment    :     -0.47541      -0.02329      -0.58805
                        -----------------------------------------
Magnitude (a.u.)       :      0.75654
Magnitude (Debye)      :      1.92298

Rotational constants in cm-1:     4.292197     0.840349     0.798024
Rotational constants in MHz : 128676.832074 25193.036489 23924.159712

                             ****ORCA TERMINATED NORMALLY****
TOTAL RUN TIME: 0 days 0 hours 1 minutes 11 seconds 162 msec
