                         Program Version 4.1.2  - RELEASE  -
|  1> #Run DFT-D3 single point of the dimer
|  2> ! wB97X-D3 def2-TZVP TIGHTSCF CHELPG PMODEL PAL8
|  3>
|  4> %base "18-102_DFT_AB"
|  5>
|  6> %scf
|  7> MaxIter 1000
|  8> end
|  9>
| 10> * xyz 0 1
| 11>   C                      -7.533343            9.986893             10.024184
| 12>   O                      -8.434405            9.247854             9.253754
| 13>   H                      -9.360903            9.576773             9.322728
| 14>   H                      -7.287358            10.958760            9.543611
| 15>   H                      -7.914960            10.142009            11.017530
| 16>   H                      -6.603391            9.494522             10.069739
| 17>   C                      -7.055349            10.135915            6.214749
| 18>   O                      -7.405501            11.491460            6.002087
| 19>   H                      -7.257205            12.054520            6.777185
| 20>   H                      -6.416464            9.677373             5.397483
| 21>   H                      -6.474330            10.030082            7.137446
| 22>   H                      -7.946947            9.449948             6.394496
| 23> *
| 24>
| 25> #Run DFT-D3 single point of the molecule with dimer basis set
| 26> $new_job
| 27> %base "18-102_DFT_A"
| 28> ! wB97X-D3 def2-TZVP TIGHTSCF CHELPG PMODEL
| 29>
| 30> %scf
| 31> MaxIter 1000
| 32> end
| 33>
| 34> * xyz 0 1
| 35>   C                      -7.533343            9.986893             10.024184
| 36>   O                      -8.434405            9.247854             9.253754
| 37>   H                      -9.360903            9.576773             9.322728
| 38>   H                      -7.287358            10.958760            9.543611
| 39>   H                      -7.914960            10.142009            11.017530
| 40>   H                      -6.603391            9.494522             10.069739
| 41>   C                    : -7.055349            10.135915            6.214749
| 42>   O                    : -7.405501            11.491460            6.002087
| 43>   H                    : -7.257205            12.054520            6.777185
| 44>   H                    : -6.416464            9.677373             5.397483
| 45>   H                    : -6.474330            10.030082            7.137446
| 46>   H                    : -7.946947            9.449948             6.394496
| 47> *
| 48>
| 49> #Run DFT-D3 single point of the particle with dimer basis set
| 50> $new_job
| 51> %base "18-102_DFT_B"
| 52> ! wB97X-D3 def2-TZVP TIGHTSCF CHELPG PMODEL
| 53>
| 54> %scf
| 55> MaxIter 1000
| 56> end
| 57>
| 58> * xyz 0 1
| 59>   C                    : -7.533343            9.986893             10.024184
| 60>   O                    : -8.434405            9.247854             9.253754
| 61>   H                    : -9.360903            9.576773             9.322728
| 62>   H                    : -7.287358            10.958760            9.543611
| 63>   H                    : -7.914960            10.142009            11.017530
| 64>   H                    : -6.603391            9.494522             10.069739
| 65>   C                      -7.055349            10.135915            6.214749
| 66>   O                      -7.405501            11.491460            6.002087
| 67>   H                      -7.257205            12.054520            6.777185
| 68>   H                      -6.416464            9.677373             5.397483
| 69>   H                      -6.474330            10.030082            7.137446
| 70>   H                      -7.946947            9.449948             6.394496
| 71> *
| 72>
| 73>                          ****END OF INPUT****
 Total Charge           Charge          ....    0
 Multiplicity           Mult            ....    1
 Number of Electrons    NEL             ....   36
Dispersion correction           -0.002087142
FINAL SINGLE POINT ENERGY      -231.466868533040
Dispersion correction           -0.000242284
FINAL SINGLE POINT ENERGY      -115.734206799187

CARTESIAN COORDINATES (ANGSTROEM)
---------------------------------
  C     -7.533343    9.986893   10.024184
  O     -8.434405    9.247854    9.253754
  H     -9.360903    9.576773    9.322728
  H     -7.287358   10.958760    9.543611
  H     -7.914960   10.142009   11.017530
  H     -6.603391    9.494522   10.069739
  C     -7.055349   10.135915    6.214749
  O     -7.405501   11.491460    6.002087
  H     -7.257205   12.054520    6.777185
  H     -6.416464    9.677373    5.397483
  H     -6.474330   10.030082    7.137446
  H     -7.946947    9.449948    6.394496

 Multiplicity           Mult            ....    1
 Number of Electrons    NEL             ....   18
 Basis Dimension        Dim             ....  172

ORBITAL ENERGIES
----------------

  NO   OCC          E(Eh)            E(eV)
   0   2.0000     -19.232161      -523.3337
   1   2.0000     -10.323421      -280.9146
   2   2.0000      -1.131884       -30.8001
   3   2.0000      -0.791576       -21.5399
   4   2.0000      -0.614581       -16.7236
   5   2.0000      -0.531139       -14.4530
   6   2.0000      -0.525941       -14.3116
   7   2.0000      -0.424148       -11.5417
   8   2.0000      -0.373616       -10.1666
   9   0.0000       0.074008         2.0139
  10   0.0000       0.122106         3.3227
  11   0.0000       0.146434         3.9847
  12   0.0000       0.153001         4.1634
  13   0.0000       0.192627         5.2416

MULLIKEN ATOMIC CHARGES
-----------------------
   0 C :    0.000980
   1 O :   -0.000144
   2 H :   -0.000054
   3 H :   -0.001522
   4 H :    0.000068
   5 H :   -0.000471
   6 C :   -0.165721
   7 O :   -0.482149
   8 H :    0.323905
   9 H :    0.119546
  10 H :    0.104547
  11 H :    0.101016
Sum of atomic charges:    0.0000000

LOEWDIN ATOMIC CHARGES
----------------------
   0 C :   -0.005113
   1 O :   -0.002392
   2 H :   -0.000333
   3 H :   -0.001624
   4 H :   -0.000042
   5 H :   -0.000717
   6 C :   -0.394020
   7 O :   -0.083206
   8 H :    0.174875
   9 H :    0.110380
  10 H :    0.097456
  11 H :    0.104736

  Mayer bond orders larger than 0.1
B(  6-C ,  7-O ) :   1.0045 B(  6-C ,  9-H ) :   0.9682 B(  6-C , 10-H ) :   0.9847
B(  6-C , 11-H ) :   0.9694 B(  7-O ,  8-H ) :   0.8925

Dispersion correction           -0.000277702
FINAL SINGLE POINT ENERGY      -115.731126484757

DIPOLE MOMENT
-------------
                                X             Y             Z
Electronic contribution:     -0.49419       1.82306      -0.46864
Nuclear contribution   :      0.75716      -1.98220       1.09166
                        -----------------------------------------
Total Dipole Moment    :      0.26297      -0.15914       0.62302
                        -----------------------------------------
Magnitude (a.u.)       :      0.69472
Magnitude (Debye)      :      1.76584

Rotational constants in cm-1:     4.282064     0.804188     0.782194
Rotational constants in MHz : 128373.051795 24108.953514 23449.582435

                             ****ORCA TERMINATED NORMALLY****
TOTAL RUN TIME: 0 days 0 hours 1 minutes 5 seconds 527 msec
