                         Program Version 4.1.2  - RELEASE  -
|  1> #Run DFT-D3 single point of the dimer
|  2> ! wB97X-D3 def2-TZVP TIGHTSCF CHELPG PMODEL PAL8
|  3>
|  4> %base "19-24_DFT_AB"
|  5>
|  6> %scf
|  7> MaxIter 1000
|  8> end
|  9>
| 10> * xyz 0 1
| 11>   C                      9.121018             -8.002332            -6.658130
| 12>   O                      10.161908            -7.980103            -7.581041
| 13>   H                      10.228390            -8.853579            -7.970329
| 14>   H                      8.705024             -7.045005            -6.526222
| 15>   H                      8.234115             -8.471532            -7.034247
| 16>   H                      9.419755             -8.306082            -5.708888
| 17>   C                      8.555876             -5.023468            -2.085604
| 18>   O                      9.597576             -5.817501            -1.599137
| 19>   H                      10.014008            -5.365580            -0.897390
| 20>   H                      7.789222             -4.795281            -1.346501
| 21>   H                      8.845916             -4.068275            -2.582090
| 22>   H                      8.075075             -5.507060            -2.944996
| 23> *
| 24>
| 25> #Run DFT-D3 single point of the molecule with dimer basis set
| 26> $new_job
| 27> %base "19-24_DFT_A"
| 28> ! wB97X-D3 def2-TZVP TIGHTSCF CHELPG PMODEL
| 29>
| 30> %scf
| 31> MaxIter 1000
| 32> end
| 33>
| 34> * xyz 0 1
| 35>   C                      9.121018             -8.002332            -6.658130
| 36>   O                      10.161908            -7.980103            -7.581041
| 37>   H                      10.228390            -8.853579            -7.970329
| 38>   H                      8.705024             -7.045005            -6.526222
| 39>   H                      8.234115             -8.471532            -7.034247
| 40>   H                      9.419755             -8.306082            -5.708888
| 41>   C                    : 8.555876             -5.023468            -2.085604
| 42>   O                    : 9.597576             -5.817501            -1.599137
| 43>   H                    : 10.014008            -5.365580            -0.897390
| 44>   H                    : 7.789222             -4.795281            -1.346501
| 45>   H                    : 8.845916             -4.068275            -2.582090
| 46>   H                    : 8.075075             -5.507060            -2.944996
| 47> *
| 48>
| 49> #Run DFT-D3 single point of the particle with dimer basis set
| 50> $new_job
| 51> %base "19-24_DFT_B"
| 52> ! wB97X-D3 def2-TZVP TIGHTSCF CHELPG PMODEL
| 53>
| 54> %scf
| 55> MaxIter 1000
| 56> end
| 57>
| 58> * xyz 0 1
| 59>   C                    : 9.121018             -8.002332            -6.658130
| 60>   O                    : 10.161908            -7.980103            -7.581041
| 61>   H                    : 10.228390            -8.853579            -7.970329
| 62>   H                    : 8.705024             -7.045005            -6.526222
| 63>   H                    : 8.234115             -8.471532            -7.034247
| 64>   H                    : 9.419755             -8.306082            -5.708888
| 65>   C                      8.555876             -5.023468            -2.085604
| 66>   O                      9.597576             -5.817501            -1.599137
| 67>   H                      10.014008            -5.365580            -0.897390
| 68>   H                      7.789222             -4.795281            -1.346501
| 69>   H                      8.845916             -4.068275            -2.582090
| 70>   H                      8.075075             -5.507060            -2.944996
| 71> *
| 72>
| 73>                          ****END OF INPUT****
 Total Charge           Charge          ....    0
 Multiplicity           Mult            ....    1
 Number of Electrons    NEL             ....   36
Dispersion correction           -0.000679515
FINAL SINGLE POINT ENERGY      -231.463233895638
Dispersion correction           -0.000227595
FINAL SINGLE POINT ENERGY      -115.728960291469

CARTESIAN COORDINATES (ANGSTROEM)
---------------------------------
  C      9.121018   -8.002332   -6.658130
  O     10.161908   -7.980103   -7.581041
  H     10.228390   -8.853579   -7.970329
  H      8.705024   -7.045005   -6.526222
  H      8.234115   -8.471532   -7.034247
  H      9.419755   -8.306082   -5.708888
  C      8.555876   -5.023468   -2.085604
  O      9.597576   -5.817501   -1.599137
  H     10.014008   -5.365580   -0.897390
  H      7.789222   -4.795281   -1.346501
  H      8.845916   -4.068275   -2.582090
  H      8.075075   -5.507060   -2.944996

 Multiplicity           Mult            ....    1
 Number of Electrons    NEL             ....   18
 Basis Dimension        Dim             ....  172

ORBITAL ENERGIES
----------------

  NO   OCC          E(Eh)            E(eV)
   0   2.0000     -19.231844      -523.3251
   1   2.0000     -10.313677      -280.6494
   2   2.0000      -1.148292       -31.2466
   3   2.0000      -0.799051       -21.7433
   4   2.0000      -0.619447       -16.8560
   5   2.0000      -0.545999       -14.8574
   6   2.0000      -0.524983       -14.2855
   7   2.0000      -0.430948       -11.7267
   8   2.0000      -0.376653       -10.2493
   9   0.0000       0.089410         2.4330
  10   0.0000       0.119904         3.2628
  11   0.0000       0.146929         3.9982
  12   0.0000       0.167645         4.5619
  13   0.0000       0.197161         5.3650

MULLIKEN ATOMIC CHARGES
-----------------------
   0 C :   -0.000040
   1 O :    0.000000
   2 H :   -0.000000
   3 H :   -0.000029
   4 H :    0.000005
   5 H :   -0.000023
   6 C :   -0.164105
   7 O :   -0.462609
   8 H :    0.311956
   9 H :    0.104115
  10 H :    0.092661
  11 H :    0.118068
Sum of atomic charges:   -0.0000000

LOEWDIN ATOMIC CHARGES
----------------------
   0 C :   -0.000054
   1 O :   -0.000001
   2 H :   -0.000000
   3 H :   -0.000055
   4 H :   -0.000001
   5 H :   -0.000022
   6 C :   -0.406359
   7 O :   -0.046410
   8 H :    0.153444
   9 H :    0.092874
  10 H :    0.096142
  11 H :    0.110441

  Mayer bond orders larger than 0.1
B(  6-C ,  7-O ) :   1.0091 B(  6-C ,  9-H ) :   0.9753 B(  6-C , 10-H ) :   0.9713
B(  6-C , 11-H ) :   0.9746 B(  7-O ,  8-H ) :   0.9038

Dispersion correction           -0.000254644
FINAL SINGLE POINT ENERGY      -115.734021459066

DIPOLE MOMENT
-------------
                                X             Y             Z
Electronic contribution:      1.39829      -1.18765       0.69253
Nuclear contribution   :     -1.53378       1.77513      -0.43954
                        -----------------------------------------
Total Dipole Moment    :     -0.13549       0.58748       0.25299
                        -----------------------------------------
Magnitude (a.u.)       :      0.65383
Magnitude (Debye)      :      1.66191

Rotational constants in cm-1:     4.463501     0.832758     0.807868
Rotational constants in MHz : 133812.395899 24965.443767 24219.270177

                             ****ORCA TERMINATED NORMALLY****
TOTAL RUN TIME: 0 days 0 hours 0 minutes 46 seconds 541 msec
