                         Program Version 4.1.2  - RELEASE  -
|  1> #Run DFT-D3 single point of the dimer
|  2> ! wB97X-D3 def2-TZVP TIGHTSCF CHELPG PMODEL PAL8
|  3>
|  4> %base "15-130_DFT_AB"
|  5>
|  6> %scf
|  7> MaxIter 1000
|  8> end
|  9>
| 10> * xyz 0 1
| 11>   C                      0.512501             8.461024             -0.689806
| 12>   O                      -0.712721            7.890156             -0.211231
| 13>   H                      -0.662369            6.949089             -0.202390
| 14>   H                      0.578281             8.470859             -1.785892
| 15>   H                      0.672981             9.551212             -0.568216
| 16>   H                      1.340160             7.905085             -0.222265
| 17>   C                      -3.343531            6.125688             0.309255
| 18>   O                      -4.783303            6.347521             0.275186
| 19>   H                      -5.034317            7.018130             -0.422322
| 20>   H                      -2.895862            5.609519             -0.543921
| 21>   H                      -2.784280            7.100064             0.629029
| 22>   H                      -3.128050            5.492418             1.210818
| 23> *
| 24>
| 25> #Run DFT-D3 single point of the molecule with dimer basis set
| 26> $new_job
| 27> %base "15-130_DFT_A"
| 28> ! wB97X-D3 def2-TZVP TIGHTSCF CHELPG PMODEL
| 29>
| 30> %scf
| 31> MaxIter 1000
| 32> end
| 33>
| 34> * xyz 0 1
| 35>   C                      0.512501             8.461024             -0.689806
| 36>   O                      -0.712721            7.890156             -0.211231
| 37>   H                      -0.662369            6.949089             -0.202390
| 38>   H                      0.578281             8.470859             -1.785892
| 39>   H                      0.672981             9.551212             -0.568216
| 40>   H                      1.340160             7.905085             -0.222265
| 41>   C                    : -3.343531            6.125688             0.309255
| 42>   O                    : -4.783303            6.347521             0.275186
| 43>   H                    : -5.034317            7.018130             -0.422322
| 44>   H                    : -2.895862            5.609519             -0.543921
| 45>   H                    : -2.784280            7.100064             0.629029
| 46>   H                    : -3.128050            5.492418             1.210818
| 47> *
| 48>
| 49> #Run DFT-D3 single point of the particle with dimer basis set
| 50> $new_job
| 51> %base "15-130_DFT_B"
| 52> ! wB97X-D3 def2-TZVP TIGHTSCF CHELPG PMODEL
| 53>
| 54> %scf
| 55> MaxIter 1000
| 56> end
| 57>
| 58> * xyz 0 1
| 59>   C                    : 0.512501             8.461024             -0.689806
| 60>   O                    : -0.712721            7.890156             -0.211231
| 61>   H                    : -0.662369            6.949089             -0.202390
| 62>   H                    : 0.578281             8.470859             -1.785892
| 63>   H                    : 0.672981             9.551212             -0.568216
| 64>   H                    : 1.340160             7.905085             -0.222265
| 65>   C                      -3.343531            6.125688             0.309255
| 66>   O                      -4.783303            6.347521             0.275186
| 67>   H                      -5.034317            7.018130             -0.422322
| 68>   H                      -2.895862            5.609519             -0.543921
| 69>   H                      -2.784280            7.100064             0.629029
| 70>   H                      -3.128050            5.492418             1.210818
| 71> *
| 72>
| 73>                          ****END OF INPUT****
 Total Charge           Charge          ....    0
 Multiplicity           Mult            ....    1
 Number of Electrons    NEL             ....   36
Dispersion correction           -0.001521777
FINAL SINGLE POINT ENERGY      -231.455979006845
Dispersion correction           -0.000264612
FINAL SINGLE POINT ENERGY      -115.728421010529

CARTESIAN COORDINATES (ANGSTROEM)
---------------------------------
  C      0.512501    8.461024   -0.689806
  O     -0.712721    7.890156   -0.211231
  H     -0.662369    6.949089   -0.202390
  H      0.578281    8.470859   -1.785892
  H      0.672981    9.551212   -0.568216
  H      1.340160    7.905085   -0.222265
  C     -3.343531    6.125688    0.309255
  O     -4.783303    6.347521    0.275186
  H     -5.034317    7.018130   -0.422322
  H     -2.895862    5.609519   -0.543921
  H     -2.784280    7.100064    0.629029
  H     -3.128050    5.492418    1.210818

 Multiplicity           Mult            ....    1
 Number of Electrons    NEL             ....   18
 Basis Dimension        Dim             ....  172

ORBITAL ENERGIES
----------------

  NO   OCC          E(Eh)            E(eV)
   0   2.0000     -19.235621      -523.4279
   1   2.0000     -10.327438      -281.0239
   2   2.0000      -1.115191       -30.3459
   3   2.0000      -0.789545       -21.4846
   4   2.0000      -0.595949       -16.2166
   5   2.0000      -0.538135       -14.6434
   6   2.0000      -0.513582       -13.9753
   7   2.0000      -0.423508       -11.5242
   8   2.0000      -0.377330       -10.2677
   9   0.0000       0.083729         2.2784
  10   0.0000       0.112695         3.0666
  11   0.0000       0.136946         3.7265
  12   0.0000       0.179681         4.8894
  13   0.0000       0.184010         5.0072

MULLIKEN ATOMIC CHARGES
-----------------------
   0 C :   -0.000926
   1 O :   -0.001650
   2 H :   -0.001648
   3 H :   -0.000009
   4 H :    0.000060
   5 H :    0.000012
   6 C :   -0.169978
   7 O :   -0.485434
   8 H :    0.316834
   9 H :    0.114579
  10 H :    0.105187
  11 H :    0.122974
Sum of atomic charges:    0.0000000

LOEWDIN ATOMIC CHARGES
----------------------
   0 C :   -0.000654
   1 O :   -0.011502
   2 H :   -0.007361
   3 H :   -0.000022
   4 H :   -0.000016
   5 H :   -0.000020
   6 C :   -0.372732
   7 O :   -0.123370
   8 H :    0.186115
   9 H :    0.096509
  10 H :    0.117334
  11 H :    0.115718

  Mayer bond orders larger than 0.1
B(  6-C ,  7-O ) :   1.0040 B(  6-C ,  9-H ) :   0.9616 B(  6-C , 10-H ) :   0.9764
B(  6-C , 11-H ) :   0.9681 B(  7-O ,  8-H ) :   0.8924

Dispersion correction           -0.000306261
FINAL SINGLE POINT ENERGY      -115.727549350424

DIPOLE MOMENT
-------------
                                X             Y             Z
Electronic contribution:     -1.87614       0.13078      -0.16124
Nuclear contribution   :      2.30323       0.17398      -0.23429
                        -----------------------------------------
Total Dipole Moment    :      0.42710       0.30476      -0.39553
                        -----------------------------------------
Magnitude (a.u.)       :      0.65707
Magnitude (Debye)      :      1.67013

Rotational constants in cm-1:     4.119975     0.768204     0.753528
Rotational constants in MHz : 123513.749419 23030.170840 22590.200113

                             ****ORCA TERMINATED NORMALLY****
TOTAL RUN TIME: 0 days 0 hours 1 minutes 0 seconds 805 msec
