                         Program Version 4.1.2  - RELEASE  -
|  1> #Run DFT-D3 single point of the dimer
|  2> ! wB97X-D3 def2-TZVP TIGHTSCF CHELPG PMODEL PAL8
|  3>
|  4> %base "5-67_DFT_AB"
|  5>
|  6> %scf
|  7> MaxIter 1000
|  8> end
|  9>
| 10> * xyz 0 1
| 11>   C                      0.496941             1.392049             5.026981
| 12>   O                      -0.494197            0.337308             5.082726
| 13>   H                      -0.689183            0.394878             4.127763
| 14>   H                      1.282604             1.248695             5.776744
| 15>   H                      1.032644             1.416140             4.066925
| 16>   H                      -0.013328            2.353019             5.225455
| 17>   C                      -2.741299            1.999607             6.692631
| 18>   O                      -3.711578            2.395845             7.584789
| 19>   H                      -4.454480            2.704986             7.010267
| 20>   H                      -3.256017            1.489735             5.850625
| 21>   H                      -2.263188            2.918353             6.239084
| 22>   H                      -1.896909            1.415399             7.143667
| 23> *
| 24>
| 25> #Run DFT-D3 single point of the molecule with dimer basis set
| 26> $new_job
| 27> %base "5-67_DFT_A"
| 28> ! wB97X-D3 def2-TZVP TIGHTSCF CHELPG PMODEL
| 29>
| 30> %scf
| 31> MaxIter 1000
| 32> end
| 33>
| 34> * xyz 0 1
| 35>   C                      0.496941             1.392049             5.026981
| 36>   O                      -0.494197            0.337308             5.082726
| 37>   H                      -0.689183            0.394878             4.127763
| 38>   H                      1.282604             1.248695             5.776744
| 39>   H                      1.032644             1.416140             4.066925
| 40>   H                      -0.013328            2.353019             5.225455
| 41>   C                    : -2.741299            1.999607             6.692631
| 42>   O                    : -3.711578            2.395845             7.584789
| 43>   H                    : -4.454480            2.704986             7.010267
| 44>   H                    : -3.256017            1.489735             5.850625
| 45>   H                    : -2.263188            2.918353             6.239084
| 46>   H                    : -1.896909            1.415399             7.143667
| 47> *
| 48>
| 49> #Run DFT-D3 single point of the particle with dimer basis set
| 50> $new_job
| 51> %base "5-67_DFT_B"
| 52> ! wB97X-D3 def2-TZVP TIGHTSCF CHELPG PMODEL
| 53>
| 54> %scf
| 55> MaxIter 1000
| 56> end
| 57>
| 58> * xyz 0 1
| 59>   C                    : 0.496941             1.392049             5.026981
| 60>   O                    : -0.494197            0.337308             5.082726
| 61>   H                    : -0.689183            0.394878             4.127763
| 62>   H                    : 1.282604             1.248695             5.776744
| 63>   H                    : 1.032644             1.416140             4.066925
| 64>   H                    : -0.013328            2.353019             5.225455
| 65>   C                      -2.741299            1.999607             6.692631
| 66>   O                      -3.711578            2.395845             7.584789
| 67>   H                      -4.454480            2.704986             7.010267
| 68>   H                      -3.256017            1.489735             5.850625
| 69>   H                      -2.263188            2.918353             6.239084
| 70>   H                      -1.896909            1.415399             7.143667
| 71> *
| 72>
| 73>                          ****END OF INPUT****
 Total Charge           Charge          ....    0
 Multiplicity           Mult            ....    1
 Number of Electrons    NEL             ....   36
Dispersion correction           -0.001931642
FINAL SINGLE POINT ENERGY      -231.459934433617
Dispersion correction           -0.000226452
FINAL SINGLE POINT ENERGY      -115.729123971449

CARTESIAN COORDINATES (ANGSTROEM)
---------------------------------
  C      0.496941    1.392049    5.026981
  O     -0.494197    0.337308    5.082726
  H     -0.689183    0.394878    4.127763
  H      1.282604    1.248695    5.776744
  H      1.032644    1.416140    4.066925
  H     -0.013328    2.353019    5.225455
  C     -2.741299    1.999607    6.692631
  O     -3.711578    2.395845    7.584789
  H     -4.454480    2.704986    7.010267
  H     -3.256017    1.489735    5.850625
  H     -2.263188    2.918353    6.239084
  H     -1.896909    1.415399    7.143667

 Multiplicity           Mult            ....    1
 Number of Electrons    NEL             ....   18
 Basis Dimension        Dim             ....  172

ORBITAL ENERGIES
----------------

  NO   OCC          E(Eh)            E(eV)
   0   2.0000     -19.233195      -523.3618
   1   2.0000     -10.318822      -280.7894
   2   2.0000      -1.147345       -31.2208
   3   2.0000      -0.782001       -21.2793
   4   2.0000      -0.614735       -16.7278
   5   2.0000      -0.541923       -14.7465
   6   2.0000      -0.532685       -14.4951
   7   2.0000      -0.433846       -11.8056
   8   2.0000      -0.364914        -9.9298
   9   0.0000       0.084169         2.2904
  10   0.0000       0.107627         2.9287
  11   0.0000       0.158619         4.3162
  12   0.0000       0.163727         4.4552
  13   0.0000       0.178560         4.8589

MULLIKEN ATOMIC CHARGES
-----------------------
   0 C :   -0.000199
   1 O :    0.000093
   2 H :   -0.000257
   3 H :    0.000019
   4 H :   -0.000111
   5 H :   -0.001869
   6 C :   -0.172262
   7 O :   -0.458263
   8 H :    0.320376
   9 H :    0.096321
  10 H :    0.091161
  11 H :    0.124990
Sum of atomic charges:   -0.0000000

LOEWDIN ATOMIC CHARGES
----------------------
   0 C :   -0.004305
   1 O :   -0.003438
   2 H :   -0.000485
   3 H :   -0.000096
   4 H :   -0.000025
   5 H :   -0.004059
   6 C :   -0.427327
   7 O :   -0.063474
   8 H :    0.193585
   9 H :    0.096745
  10 H :    0.097955
  11 H :    0.114922

  Mayer bond orders larger than 0.1
B(  6-C ,  7-O ) :   1.0029 B(  6-C ,  9-H ) :   0.9852 B(  6-C , 10-H ) :   0.9747
B(  6-C , 11-H ) :   0.9656 B(  7-O ,  8-H ) :   0.8925

Dispersion correction           -0.000214382
FINAL SINGLE POINT ENERGY      -115.729427959456

DIPOLE MOMENT
-------------
                                X             Y             Z
Electronic contribution:     -1.18810       0.34816       1.43278
Nuclear contribution   :      1.06879      -0.30507      -2.09696
                        -----------------------------------------
Total Dipole Moment    :     -0.11932       0.04309      -0.66418
                        -----------------------------------------
Magnitude (a.u.)       :      0.67618
Magnitude (Debye)      :      1.71873

Rotational constants in cm-1:     4.045970     0.874779     0.830264
Rotational constants in MHz : 121295.137867 26225.215923 24890.700408

                             ****ORCA TERMINATED NORMALLY****
TOTAL RUN TIME: 0 days 0 hours 1 minutes 5 seconds 779 msec
