                         Program Version 4.1.2  - RELEASE  -
|  1> #Run DFT-D3 single point of the dimer
|  2> ! wB97X-D3 def2-TZVP TIGHTSCF CHELPG PMODEL PAL8
|  3>
|  4> %base "9-7_DFT_AB"
|  5>
|  6> %scf
|  7> MaxIter 1000
|  8> end
|  9>
| 10> * xyz 0 1
| 11>   C                      5.326910             4.806322             -3.533113
| 12>   O                      6.034877             3.972360             -4.447765
| 13>   H                      6.237275             3.163824             -3.960999
| 14>   H                      6.014065             5.326131             -2.833834
| 15>   H                      4.817935             5.581777             -4.157801
| 16>   H                      4.623172             4.233674             -2.922331
| 17>   C                      2.965190             6.623918             0.967026
| 18>   O                      3.087321             7.178349             2.250108
| 19>   H                      2.300229             6.975506             2.740599
| 20>   H                      3.202862             5.599845             0.971613
| 21>   H                      1.936361             6.698119             0.639535
| 22>   H                      3.581406             7.209717             0.268602
| 23> *
| 24>
| 25> #Run DFT-D3 single point of the molecule with dimer basis set
| 26> $new_job
| 27> %base "9-7_DFT_A"
| 28> ! wB97X-D3 def2-TZVP TIGHTSCF CHELPG PMODEL
| 29>
| 30> %scf
| 31> MaxIter 1000
| 32> end
| 33>
| 34> * xyz 0 1
| 35>   C                      5.326910             4.806322             -3.533113
| 36>   O                      6.034877             3.972360             -4.447765
| 37>   H                      6.237275             3.163824             -3.960999
| 38>   H                      6.014065             5.326131             -2.833834
| 39>   H                      4.817935             5.581777             -4.157801
| 40>   H                      4.623172             4.233674             -2.922331
| 41>   C                    : 2.965190             6.623918             0.967026
| 42>   O                    : 3.087321             7.178349             2.250108
| 43>   H                    : 2.300229             6.975506             2.740599
| 44>   H                    : 3.202862             5.599845             0.971613
| 45>   H                    : 1.936361             6.698119             0.639535
| 46>   H                    : 3.581406             7.209717             0.268602
| 47> *
| 48>
| 49> #Run DFT-D3 single point of the particle with dimer basis set
| 50> $new_job
| 51> %base "9-7_DFT_B"
| 52> ! wB97X-D3 def2-TZVP TIGHTSCF CHELPG PMODEL
| 53>
| 54> %scf
| 55> MaxIter 1000
| 56> end
| 57>
| 58> * xyz 0 1
| 59>   C                    : 5.326910             4.806322             -3.533113
| 60>   O                    : 6.034877             3.972360             -4.447765
| 61>   H                    : 6.237275             3.163824             -3.960999
| 62>   H                    : 6.014065             5.326131             -2.833834
| 63>   H                    : 4.817935             5.581777             -4.157801
| 64>   H                    : 4.623172             4.233674             -2.922331
| 65>   C                      2.965190             6.623918             0.967026
| 66>   O                      3.087321             7.178349             2.250108
| 67>   H                      2.300229             6.975506             2.740599
| 68>   H                      3.202862             5.599845             0.971613
| 69>   H                      1.936361             6.698119             0.639535
| 70>   H                      3.581406             7.209717             0.268602
| 71> *
| 72>
| 73>                          ****END OF INPUT****
 Total Charge           Charge          ....    0
 Multiplicity           Mult            ....    1
 Number of Electrons    NEL             ....   36
Dispersion correction           -0.000633926
FINAL SINGLE POINT ENERGY      -231.470460907055
Dispersion correction           -0.000242129
FINAL SINGLE POINT ENERGY      -115.735829377427

CARTESIAN COORDINATES (ANGSTROEM)
---------------------------------
  C      5.326910    4.806322   -3.533113
  O      6.034877    3.972360   -4.447765
  H      6.237275    3.163824   -3.960999
  H      6.014065    5.326131   -2.833834
  H      4.817935    5.581777   -4.157801
  H      4.623172    4.233674   -2.922331
  C      2.965190    6.623918    0.967026
  O      3.087321    7.178349    2.250108
  H      2.300229    6.975506    2.740599
  H      3.202862    5.599845    0.971613
  H      1.936361    6.698119    0.639535
  H      3.581406    7.209717    0.268602

 Multiplicity           Mult            ....    1
 Number of Electrons    NEL             ....   18
 Basis Dimension        Dim             ....  172

ORBITAL ENERGIES
----------------

  NO   OCC          E(Eh)            E(eV)
   0   2.0000     -19.225297      -523.1469
   1   2.0000     -10.306527      -280.4549
   2   2.0000      -1.139894       -31.0181
   3   2.0000      -0.798329       -21.7236
   4   2.0000      -0.615771       -16.7560
   5   2.0000      -0.549483       -14.9522
   6   2.0000      -0.526617       -14.3300
   7   2.0000      -0.431986       -11.7549
   8   2.0000      -0.372830       -10.1452
   9   0.0000       0.084450         2.2980
  10   0.0000       0.115967         3.1556
  11   0.0000       0.146009         3.9731
  12   0.0000       0.171145         4.6571
  13   0.0000       0.190683         5.1888

MULLIKEN ATOMIC CHARGES
-----------------------
   0 C :    0.000021
   1 O :   -0.000000
   2 H :   -0.000000
   3 H :   -0.000037
   4 H :   -0.000005
   5 H :   -0.000020
   6 C :   -0.147803
   7 O :   -0.479834
   8 H :    0.313763
   9 H :    0.103549
  10 H :    0.097571
  11 H :    0.112795
Sum of atomic charges:    0.0000000

LOEWDIN ATOMIC CHARGES
----------------------
   0 C :   -0.000034
   1 O :   -0.000001
   2 H :   -0.000000
   3 H :   -0.000015
   4 H :   -0.000002
   5 H :   -0.000024
   6 C :   -0.381943
   7 O :   -0.068346
   8 H :    0.161902
   9 H :    0.085537
  10 H :    0.093277
  11 H :    0.109649

  Mayer bond orders larger than 0.1
B(  6-C ,  7-O ) :   0.9967 B(  6-C ,  9-H ) :   0.9745 B(  6-C , 10-H ) :   0.9882
B(  6-C , 11-H ) :   0.9745 B(  7-O ,  8-H ) :   0.9017

Dispersion correction           -0.000218467
FINAL SINGLE POINT ENERGY      -115.734516365797

DIPOLE MOMENT
-------------
                                X             Y             Z
Electronic contribution:      0.34242       0.69514       1.57857
Nuclear contribution   :     -0.91637      -1.04501      -1.77813
                        -----------------------------------------
Total Dipole Moment    :     -0.57395      -0.34987      -0.19955
                        -----------------------------------------
Magnitude (a.u.)       :      0.70118
Magnitude (Debye)      :      1.78225

Rotational constants in cm-1:     4.369650     0.852024     0.818151
Rotational constants in MHz : 130998.808968 25543.035133 24527.545105

                             ****ORCA TERMINATED NORMALLY****
TOTAL RUN TIME: 0 days 0 hours 0 minutes 38 seconds 812 msec
