                         Program Version 4.1.2  - RELEASE  -
|  1> #Run DFT-D3 single point of the dimer
|  2> ! wB97X-D3 def2-TZVP TIGHTSCF CHELPG PMODEL PAL8
|  3>
|  4> %base "16-93_DFT_AB"
|  5>
|  6> %scf
|  7> MaxIter 1000
|  8> end
|  9>
| 10> * xyz 0 1
| 11>   C                      7.892758             10.821007            -2.226867
| 12>   O                      8.272880             9.742820             -1.404930
| 13>   H                      8.541633             10.062633            -0.501364
| 14>   H                      7.192416             10.442952            -2.924750
| 15>   H                      7.429778             11.576646            -1.600123
| 16>   H                      8.748379             11.363983            -2.592521
| 17>   C                      7.918838             8.529726             -5.128869
| 18>   O                      7.427002             7.631461             -6.144793
| 19>   H                      6.761152             7.113653             -5.725132
| 20>   H                      8.648903             9.196879             -5.593991
| 21>   H                      7.137898             9.089240             -4.576688
| 22>   H                      8.499704             7.906290             -4.390499
| 23> *
| 24>
| 25> #Run DFT-D3 single point of the molecule with dimer basis set
| 26> $new_job
| 27> %base "16-93_DFT_A"
| 28> ! wB97X-D3 def2-TZVP TIGHTSCF CHELPG PMODEL
| 29>
| 30> %scf
| 31> MaxIter 1000
| 32> end
| 33>
| 34> * xyz 0 1
| 35>   C                      7.892758             10.821007            -2.226867
| 36>   O                      8.272880             9.742820             -1.404930
| 37>   H                      8.541633             10.062633            -0.501364
| 38>   H                      7.192416             10.442952            -2.924750
| 39>   H                      7.429778             11.576646            -1.600123
| 40>   H                      8.748379             11.363983            -2.592521
| 41>   C                    : 7.918838             8.529726             -5.128869
| 42>   O                    : 7.427002             7.631461             -6.144793
| 43>   H                    : 6.761152             7.113653             -5.725132
| 44>   H                    : 8.648903             9.196879             -5.593991
| 45>   H                    : 7.137898             9.089240             -4.576688
| 46>   H                    : 8.499704             7.906290             -4.390499
| 47> *
| 48>
| 49> #Run DFT-D3 single point of the particle with dimer basis set
| 50> $new_job
| 51> %base "16-93_DFT_B"
| 52> ! wB97X-D3 def2-TZVP TIGHTSCF CHELPG PMODEL
| 53>
| 54> %scf
| 55> MaxIter 1000
| 56> end
| 57>
| 58> * xyz 0 1
| 59>   C                    : 7.892758             10.821007            -2.226867
| 60>   O                    : 8.272880             9.742820             -1.404930
| 61>   H                    : 8.541633             10.062633            -0.501364
| 62>   H                    : 7.192416             10.442952            -2.924750
| 63>   H                    : 7.429778             11.576646            -1.600123
| 64>   H                    : 8.748379             11.363983            -2.592521
| 65>   C                      7.918838             8.529726             -5.128869
| 66>   O                      7.427002             7.631461             -6.144793
| 67>   H                      6.761152             7.113653             -5.725132
| 68>   H                      8.648903             9.196879             -5.593991
| 69>   H                      7.137898             9.089240             -4.576688
| 70>   H                      8.499704             7.906290             -4.390499
| 71> *
| 72>
| 73>                          ****END OF INPUT****
 Total Charge           Charge          ....    0
 Multiplicity           Mult            ....    1
 Number of Electrons    NEL             ....   36
Dispersion correction           -0.001577589
FINAL SINGLE POINT ENERGY      -231.465696571186
Dispersion correction           -0.000224679
FINAL SINGLE POINT ENERGY      -115.730506649917

CARTESIAN COORDINATES (ANGSTROEM)
---------------------------------
  C      7.892758   10.821007   -2.226867
  O      8.272880    9.742820   -1.404930
  H      8.541633   10.062633   -0.501364
  H      7.192416   10.442952   -2.924750
  H      7.429778   11.576646   -1.600123
  H      8.748379   11.363983   -2.592521
  C      7.918838    8.529726   -5.128869
  O      7.427002    7.631461   -6.144793
  H      6.761152    7.113653   -5.725132
  H      8.648903    9.196879   -5.593991
  H      7.137898    9.089240   -4.576688
  H      8.499704    7.906290   -4.390499

 Multiplicity           Mult            ....    1
 Number of Electrons    NEL             ....   18
 Basis Dimension        Dim             ....  172

ORBITAL ENERGIES
----------------

  NO   OCC          E(Eh)            E(eV)
   0   2.0000     -19.229081      -523.2499
   1   2.0000     -10.320997      -280.8486
   2   2.0000      -1.133073       -30.8325
   3   2.0000      -0.793435       -21.5905
   4   2.0000      -0.606712       -16.5095
   5   2.0000      -0.534657       -14.5488
   6   2.0000      -0.523905       -14.2562
   7   2.0000      -0.441402       -12.0112
   8   2.0000      -0.373241       -10.1564
   9   0.0000       0.082099         2.2340
  10   0.0000       0.117133         3.1874
  11   0.0000       0.151155         4.1132
  12   0.0000       0.165277         4.4974
  13   0.0000       0.184323         5.0157

MULLIKEN ATOMIC CHARGES
-----------------------
   0 C :    0.001264
   1 O :    0.000100
   2 H :    0.000008
   3 H :   -0.003998
   4 H :   -0.000198
   5 H :   -0.000149
   6 C :   -0.172929
   7 O :   -0.471793
   8 H :    0.308958
   9 H :    0.127912
  10 H :    0.108930
  11 H :    0.101894
Sum of atomic charges:   -0.0000000

LOEWDIN ATOMIC CHARGES
----------------------
   0 C :   -0.005244
   1 O :   -0.000267
   2 H :   -0.000012
   3 H :   -0.008074
   4 H :   -0.000032
   5 H :   -0.000096
   6 C :   -0.367499
   7 O :   -0.087716
   8 H :    0.154267
   9 H :    0.109743
  10 H :    0.103184
  11 H :    0.101745

  Mayer bond orders larger than 0.1
B(  6-C ,  7-O ) :   0.9923 B(  6-C ,  9-H ) :   0.9704 B(  6-C , 10-H ) :   0.9707
B(  6-C , 11-H ) :   0.9791 B(  7-O ,  8-H ) :   0.9071

Dispersion correction           -0.000247917
FINAL SINGLE POINT ENERGY      -115.734632623081

DIPOLE MOMENT
-------------
                                X             Y             Z
Electronic contribution:     -0.62012      -0.97029      -1.42074
Nuclear contribution   :      0.40345       1.01025       2.08393
                        -----------------------------------------
Total Dipole Moment    :     -0.21667       0.03996       0.66319
                        -----------------------------------------
Magnitude (a.u.)       :      0.69883
Magnitude (Debye)      :      1.77628

Rotational constants in cm-1:     4.174010     0.807549     0.779061
Rotational constants in MHz : 125133.659050 24209.720429 23355.657071

                             ****ORCA TERMINATED NORMALLY****
TOTAL RUN TIME: 0 days 0 hours 0 minutes 53 seconds 994 msec
