                         Program Version 4.1.2  - RELEASE  -
|  1> #Run DFT-D3 single point of the dimer
|  2> ! wB97X-D3 def2-TZVP TIGHTSCF CHELPG PMODEL PAL8
|  3>
|  4> %base "14-154_DFT_AB"
|  5>
|  6> %scf
|  7> MaxIter 1000
|  8> end
|  9>
| 10> * xyz 0 1
| 11>   C                      8.290622             5.239301             -9.015405
| 12>   O                      7.716649             6.173702             -8.101895
| 13>   H                      8.239089             5.969744             -7.352667
| 14>   H                      7.967459             4.219938             -8.846703
| 15>   H                      7.958367             5.425387             -10.042128
| 16>   H                      9.361778             5.266100             -8.805668
| 17>   C                      7.306338             6.109725             -4.002123
| 18>   O                      8.248962             6.270038             -5.051369
| 19>   H                      8.749689             7.071986             -4.909805
| 20>   H                      7.643220             6.493225             -3.029229
| 21>   H                      6.357978             6.650363             -4.207706
| 22>   H                      7.229977             5.031350             -3.752700
| 23> *
| 24>
| 25> #Run DFT-D3 single point of the molecule with dimer basis set
| 26> $new_job
| 27> %base "14-154_DFT_A"
| 28> ! wB97X-D3 def2-TZVP TIGHTSCF CHELPG PMODEL
| 29>
| 30> %scf
| 31> MaxIter 1000
| 32> end
| 33>
| 34> * xyz 0 1
| 35>   C                      8.290622             5.239301             -9.015405
| 36>   O                      7.716649             6.173702             -8.101895
| 37>   H                      8.239089             5.969744             -7.352667
| 38>   H                      7.967459             4.219938             -8.846703
| 39>   H                      7.958367             5.425387             -10.042128
| 40>   H                      9.361778             5.266100             -8.805668
| 41>   C                    : 7.306338             6.109725             -4.002123
| 42>   O                    : 8.248962             6.270038             -5.051369
| 43>   H                    : 8.749689             7.071986             -4.909805
| 44>   H                    : 7.643220             6.493225             -3.029229
| 45>   H                    : 6.357978             6.650363             -4.207706
| 46>   H                    : 7.229977             5.031350             -3.752700
| 47> *
| 48>
| 49> #Run DFT-D3 single point of the particle with dimer basis set
| 50> $new_job
| 51> %base "14-154_DFT_B"
| 52> ! wB97X-D3 def2-TZVP TIGHTSCF CHELPG PMODEL
| 53>
| 54> %scf
| 55> MaxIter 1000
| 56> end
| 57>
| 58> * xyz 0 1
| 59>   C                    : 8.290622             5.239301             -9.015405
| 60>   O                    : 7.716649             6.173702             -8.101895
| 61>   H                    : 8.239089             5.969744             -7.352667
| 62>   H                    : 7.967459             4.219938             -8.846703
| 63>   H                    : 7.958367             5.425387             -10.042128
| 64>   H                    : 9.361778             5.266100             -8.805668
| 65>   C                      7.306338             6.109725             -4.002123
| 66>   O                      8.248962             6.270038             -5.051369
| 67>   H                      8.749689             7.071986             -4.909805
| 68>   H                      7.643220             6.493225             -3.029229
| 69>   H                      6.357978             6.650363             -4.207706
| 70>   H                      7.229977             5.031350             -3.752700
| 71> *
| 72>
| 73>                          ****END OF INPUT****
 Total Charge           Charge          ....    0
 Multiplicity           Mult            ....    1
 Number of Electrons    NEL             ....   36
Dispersion correction           -0.001327267
FINAL SINGLE POINT ENERGY      -231.467175459311
Dispersion correction           -0.000210599
FINAL SINGLE POINT ENERGY      -115.729154486620

CARTESIAN COORDINATES (ANGSTROEM)
---------------------------------
  C      8.290622    5.239301   -9.015405
  O      7.716649    6.173702   -8.101895
  H      8.239089    5.969744   -7.352667
  H      7.967459    4.219938   -8.846703
  H      7.958367    5.425387  -10.042128
  H      9.361778    5.266100   -8.805668
  C      7.306338    6.109725   -4.002123
  O      8.248962    6.270038   -5.051369
  H      8.749689    7.071986   -4.909805
  H      7.643220    6.493225   -3.029229
  H      6.357978    6.650363   -4.207706
  H      7.229977    5.031350   -3.752700

 Multiplicity           Mult            ....    1
 Number of Electrons    NEL             ....   18
 Basis Dimension        Dim             ....  172

ORBITAL ENERGIES
----------------

  NO   OCC          E(Eh)            E(eV)
   0   2.0000     -19.231372      -523.3122
   1   2.0000     -10.317705      -280.7590
   2   2.0000      -1.135280       -30.8925
   3   2.0000      -0.795116       -21.6362
   4   2.0000      -0.613625       -16.6976
   5   2.0000      -0.548110       -14.9148
   6   2.0000      -0.514155       -13.9909
   7   2.0000      -0.428632       -11.6637
   8   2.0000      -0.377247       -10.2654
   9   0.0000       0.100085         2.7235
  10   0.0000       0.119654         3.2559
  11   0.0000       0.151835         4.1316
  12   0.0000       0.188095         5.1183
  13   0.0000       0.201120         5.4728

MULLIKEN ATOMIC CHARGES
-----------------------
   0 C :    0.000325
   1 O :   -0.001041
   2 H :   -0.008392
   3 H :   -0.000055
   4 H :   -0.000014
   5 H :   -0.000098
   6 C :   -0.162579
   7 O :   -0.467201
   8 H :    0.316293
   9 H :    0.096844
  10 H :    0.105701
  11 H :    0.120217
Sum of atomic charges:    0.0000000

LOEWDIN ATOMIC CHARGES
----------------------
   0 C :   -0.000572
   1 O :   -0.004157
   2 H :   -0.020424
   3 H :   -0.000016
   4 H :   -0.000008
   5 H :   -0.000047
   6 C :   -0.388986
   7 O :   -0.058920
   8 H :    0.166140
   9 H :    0.095214
  10 H :    0.099689
  11 H :    0.112085

  Mayer bond orders larger than 0.1
B(  6-C ,  7-O ) :   0.9991 B(  6-C ,  9-H ) :   0.9739 B(  6-C , 10-H ) :   0.9716
B(  6-C , 11-H ) :   0.9740 B(  7-O ,  8-H ) :   0.8971

Dispersion correction           -0.000259826
FINAL SINGLE POINT ENERGY      -115.733030972901

DIPOLE MOMENT
-------------
                                X             Y             Z
Electronic contribution:      1.12008       0.09469      -1.49172
Nuclear contribution   :     -1.14003       0.36310       2.04767
                        -----------------------------------------
Total Dipole Moment    :     -0.01994       0.45778       0.55595
                        -----------------------------------------
Magnitude (a.u.)       :      0.72045
Magnitude (Debye)      :      1.83123

Rotational constants in cm-1:     4.273724     0.813869     0.794611
Rotational constants in MHz : 128123.028019 24399.173063 23821.839204

                             ****ORCA TERMINATED NORMALLY****
TOTAL RUN TIME: 0 days 0 hours 1 minutes 5 seconds 813 msec
