                         Program Version 4.1.2  - RELEASE  -
|  1> #Run DFT-D3 single point of the dimer
|  2> ! wB97X-D3 def2-TZVP TIGHTSCF  CHELPG PAL8
|  3>
|  4> %base "12_charges"
|  5>
|  6> %scf
|  7> MaxIter 1000
|  8> end
|  9> %output
| 10>   Print[ P_Mayer ] 1
| 11>   Print[ P_NatPop ] 1
| 12>   Print[ P_Hirshfeld ] 1
| 13>   Print[ P_Mulliken ] 1
| 14>   Print [ P_Loewdin ] 1
| 15> end
| 16>
| 17> * xyz 0 1
| 18>   C                      -10.737882           -7.166619            5.578379
| 19>   O                      -11.296889           -5.903328            5.165799
| 20>   H                      -10.703437           -5.236791            5.380515
| 21>   H                      -10.657267           -7.233642            6.703948
| 22>   H                      -11.226800           -8.111518            5.093600
| 23>   H                      -9.673293            -7.156465            5.266260
| 24> *
| 25>
| 26>                          ****END OF INPUT****

CARTESIAN COORDINATES (ANGSTROEM)
---------------------------------
  C    -10.737882   -7.166619    5.578379
  O    -11.296889   -5.903328    5.165799
  H    -10.703437   -5.236791    5.380515
  H    -10.657267   -7.233642    6.703948
  H    -11.226800   -8.111518    5.093600
  H     -9.673293   -7.156465    5.266260

 Total Charge           Charge          ....    0
 Multiplicity           Mult            ....    1
 Number of Electrons    NEL             ....   18
 Basis Dimension        Dim             ....   86

ORBITAL ENERGIES
----------------

  NO   OCC          E(Eh)            E(eV)
   0   2.0000     -19.226512      -523.1800
   1   2.0000     -10.330505      -281.1073
   2   2.0000      -1.137533       -30.9539
   3   2.0000      -0.791013       -21.5246
   4   2.0000      -0.611549       -16.6411
   5   2.0000      -0.531702       -14.4684
   6   2.0000      -0.523111       -14.2346
   7   2.0000      -0.433486       -11.7958
   8   2.0000      -0.372524       -10.1369
   9   0.0000       0.115878         3.1532
  10   0.0000       0.148024         4.0279
  11   0.0000       0.194151         5.2831
  12   0.0000       0.198130         5.3914
  13   0.0000       0.223305         6.0764

MULLIKEN ATOMIC CHARGES
-----------------------
   0 C :   -0.180096
   1 O :   -0.466824
   2 H :    0.306614
   3 H :    0.106144
   4 H :    0.127596
   5 H :    0.106565
Sum of atomic charges:    0.0000000

LOEWDIN ATOMIC CHARGES
----------------------
   0 C :   -0.379024
   1 O :   -0.079342
   2 H :    0.138216
   3 H :    0.099760
   4 H :    0.123722
   5 H :    0.096668

  Mayer bond orders larger than 0.1
B(  0-C ,  1-O ) :   0.9875 B(  0-C ,  3-H ) :   0.9682 B(  0-C ,  4-H ) :   0.9651
B(  0-C ,  5-H ) :   0.9841 B(  1-O ,  2-H ) :   0.9089

Dispersion correction           -0.000259267
FINAL SINGLE POINT ENERGY      -115.725879540252

DIPOLE MOMENT
-------------
                                X             Y             Z
Electronic contribution:     -0.96401       1.51627      -0.58433
Nuclear contribution   :      1.60948      -1.59708       0.87724
                        -----------------------------------------
Total Dipole Moment    :      0.64547      -0.08081       0.29292
                        -----------------------------------------
Magnitude (a.u.)       :      0.71341
Magnitude (Debye)      :      1.81335

Rotational constants in cm-1:     4.141246     0.800191     0.766043
Rotational constants in MHz : 124151.442759 23989.133154 22965.377735

                             ****ORCA TERMINATED NORMALLY****
TOTAL RUN TIME: 0 days 0 hours 0 minutes 43 seconds 778 msec
