                         Program Version 4.1.2  - RELEASE  -
|  1> #Run DFT-D3 single point of the dimer
|  2> ! wB97X-D3 def2-TZVP TIGHTSCF CHELPG PMODEL PAL8
|  3>
|  4> %base "16-172_DFT_AB"
|  5>
|  6> %scf
|  7> MaxIter 1000
|  8> end
|  9>
| 10> * xyz 0 1
| 11>   C                      -6.940131            6.566358             -0.307315
| 12>   O                      -6.804153            5.719720             -1.460796
| 13>   H                      -7.213268            4.883983             -1.264619
| 14>   H                      -7.939552            6.989924             -0.368983
| 15>   H                      -6.889739            5.937103             0.630884
| 16>   H                      -6.133548            7.363447             -0.310562
| 17>   C                      -8.034021            2.274620             -0.619599
| 18>   O                      -8.556537            3.598424             -0.523806
| 19>   H                      -8.864996            3.702833             0.360486
| 20>   H                      -7.070695            2.184384             -0.091148
| 21>   H                      -8.673749            1.471696             -0.158475
| 22>   H                      -7.910924            1.906317             -1.627245
| 23> *
| 24>
| 25> #Run DFT-D3 single point of the molecule with dimer basis set
| 26> $new_job
| 27> %base "16-172_DFT_A"
| 28> ! wB97X-D3 def2-TZVP TIGHTSCF CHELPG PMODEL
| 29>
| 30> %scf
| 31> MaxIter 1000
| 32> end
| 33>
| 34> * xyz 0 1
| 35>   C                      -6.940131            6.566358             -0.307315
| 36>   O                      -6.804153            5.719720             -1.460796
| 37>   H                      -7.213268            4.883983             -1.264619
| 38>   H                      -7.939552            6.989924             -0.368983
| 39>   H                      -6.889739            5.937103             0.630884
| 40>   H                      -6.133548            7.363447             -0.310562
| 41>   C                    : -8.034021            2.274620             -0.619599
| 42>   O                    : -8.556537            3.598424             -0.523806
| 43>   H                    : -8.864996            3.702833             0.360486
| 44>   H                    : -7.070695            2.184384             -0.091148
| 45>   H                    : -8.673749            1.471696             -0.158475
| 46>   H                    : -7.910924            1.906317             -1.627245
| 47> *
| 48>
| 49> #Run DFT-D3 single point of the particle with dimer basis set
| 50> $new_job
| 51> %base "16-172_DFT_B"
| 52> ! wB97X-D3 def2-TZVP TIGHTSCF CHELPG PMODEL
| 53>
| 54> %scf
| 55> MaxIter 1000
| 56> end
| 57>
| 58> * xyz 0 1
| 59>   C                    : -6.940131            6.566358             -0.307315
| 60>   O                    : -6.804153            5.719720             -1.460796
| 61>   H                    : -7.213268            4.883983             -1.264619
| 62>   H                    : -7.939552            6.989924             -0.368983
| 63>   H                    : -6.889739            5.937103             0.630884
| 64>   H                    : -6.133548            7.363447             -0.310562
| 65>   C                      -8.034021            2.274620             -0.619599
| 66>   O                      -8.556537            3.598424             -0.523806
| 67>   H                      -8.864996            3.702833             0.360486
| 68>   H                      -7.070695            2.184384             -0.091148
| 69>   H                      -8.673749            1.471696             -0.158475
| 70>   H                      -7.910924            1.906317             -1.627245
| 71> *
| 72>
| 73>                          ****END OF INPUT****
 Total Charge           Charge          ....    0
 Multiplicity           Mult            ....    1
 Number of Electrons    NEL             ....   36
Dispersion correction           -0.001926937
FINAL SINGLE POINT ENERGY      -231.473869070915
Dispersion correction           -0.000240368
FINAL SINGLE POINT ENERGY      -115.733114358381

CARTESIAN COORDINATES (ANGSTROEM)
---------------------------------
  C     -6.940131    6.566358   -0.307315
  O     -6.804153    5.719720   -1.460796
  H     -7.213268    4.883983   -1.264619
  H     -7.939552    6.989924   -0.368983
  H     -6.889739    5.937103    0.630884
  H     -6.133548    7.363447   -0.310562
  C     -8.034021    2.274620   -0.619599
  O     -8.556537    3.598424   -0.523806
  H     -8.864996    3.702833    0.360486
  H     -7.070695    2.184384   -0.091148
  H     -8.673749    1.471696   -0.158475
  H     -7.910924    1.906317   -1.627245

 Multiplicity           Mult            ....    1
 Number of Electrons    NEL             ....   18
 Basis Dimension        Dim             ....  172

ORBITAL ENERGIES
----------------

  NO   OCC          E(Eh)            E(eV)
   0   2.0000     -19.234277      -523.3913
   1   2.0000     -10.317791      -280.7614
   2   2.0000      -1.139408       -31.0049
   3   2.0000      -0.797968       -21.7138
   4   2.0000      -0.613026       -16.6813
   5   2.0000      -0.540716       -14.7136
   6   2.0000      -0.524756       -14.2793
   7   2.0000      -0.437256       -11.8983
   8   2.0000      -0.376600       -10.2478
   9   0.0000       0.095226         2.5912
  10   0.0000       0.129236         3.5167
  11   0.0000       0.149250         4.0613
  12   0.0000       0.186934         5.0867
  13   0.0000       0.193027         5.2525

MULLIKEN ATOMIC CHARGES
-----------------------
   0 C :    0.002092
   1 O :   -0.001502
   2 H :    0.000086
   3 H :   -0.000854
   4 H :   -0.006274
   5 H :   -0.000395
   6 C :   -0.177876
   7 O :   -0.467418
   8 H :    0.315527
   9 H :    0.105957
  10 H :    0.104503
  11 H :    0.126156
Sum of atomic charges:   -0.0000000

LOEWDIN ATOMIC CHARGES
----------------------
   0 C :   -0.006739
   1 O :   -0.004960
   2 H :   -0.034299
   3 H :   -0.000471
   4 H :   -0.002612
   5 H :   -0.000103
   6 C :   -0.381601
   7 O :   -0.033814
   8 H :    0.160064
   9 H :    0.097092
  10 H :    0.102241
  11 H :    0.105202

  Mayer bond orders larger than 0.1
B(  6-C ,  7-O ) :   0.9893 B(  6-C ,  9-H ) :   0.9762 B(  6-C , 10-H ) :   0.9695
B(  6-C , 11-H ) :   0.9745 B(  7-O ,  8-H ) :   0.8995

Dispersion correction           -0.000259061
FINAL SINGLE POINT ENERGY      -115.733886976122

DIPOLE MOMENT
-------------
                                X             Y             Z
Electronic contribution:     -0.66142       1.85043      -0.09819
Nuclear contribution   :      0.66023      -2.33403       0.60974
                        -----------------------------------------
Total Dipole Moment    :     -0.00119      -0.48360       0.51154
                        -----------------------------------------
Magnitude (a.u.)       :      0.70395
Magnitude (Debye)      :      1.78929

Rotational constants in cm-1:     4.402452     0.806907     0.781613
Rotational constants in MHz : 131982.184634 24190.475321 23432.157585

                             ****ORCA TERMINATED NORMALLY****
TOTAL RUN TIME: 0 days 0 hours 1 minutes 9 seconds 699 msec
