                         Program Version 4.1.2  - RELEASE  -
|  1> #Run DFT-D3 single point of the dimer
|  2> ! wB97X-D3 def2-TZVP TIGHTSCF CHELPG PMODEL PAL8
|  3>
|  4> %base "4-164_DFT_AB"
|  5>
|  6> %scf
|  7> MaxIter 1000
|  8> end
|  9>
| 10> * xyz 0 1
| 11>   C                      2.722578             4.133135             -4.885620
| 12>   O                      4.120572             4.134643             -4.407210
| 13>   H                      4.093610             4.370129             -3.497614
| 14>   H                      2.658445             4.004755             -5.980850
| 15>   H                      2.083581             3.392493             -4.388767
| 16>   H                      2.263852             5.133771             -4.764851
| 17>   C                      5.147577             7.515241             -3.265000
| 18>   O                      3.716713             7.577363             -3.335981
| 19>   H                      3.412833             6.771940             -3.793769
| 20>   H                      5.660477             8.347349             -2.790045
| 21>   H                      5.521592             6.700084             -2.687815
| 22>   H                      5.589001             7.427400             -4.268107
| 23> *
| 24>
| 25> #Run DFT-D3 single point of the molecule with dimer basis set
| 26> $new_job
| 27> %base "4-164_DFT_A"
| 28> ! wB97X-D3 def2-TZVP TIGHTSCF CHELPG PMODEL
| 29>
| 30> %scf
| 31> MaxIter 1000
| 32> end
| 33>
| 34> * xyz 0 1
| 35>   C                      2.722578             4.133135             -4.885620
| 36>   O                      4.120572             4.134643             -4.407210
| 37>   H                      4.093610             4.370129             -3.497614
| 38>   H                      2.658445             4.004755             -5.980850
| 39>   H                      2.083581             3.392493             -4.388767
| 40>   H                      2.263852             5.133771             -4.764851
| 41>   C                    : 5.147577             7.515241             -3.265000
| 42>   O                    : 3.716713             7.577363             -3.335981
| 43>   H                    : 3.412833             6.771940             -3.793769
| 44>   H                    : 5.660477             8.347349             -2.790045
| 45>   H                    : 5.521592             6.700084             -2.687815
| 46>   H                    : 5.589001             7.427400             -4.268107
| 47> *
| 48>
| 49> #Run DFT-D3 single point of the particle with dimer basis set
| 50> $new_job
| 51> %base "4-164_DFT_B"
| 52> ! wB97X-D3 def2-TZVP TIGHTSCF CHELPG PMODEL
| 53>
| 54> %scf
| 55> MaxIter 1000
| 56> end
| 57>
| 58> * xyz 0 1
| 59>   C                    : 2.722578             4.133135             -4.885620
| 60>   O                    : 4.120572             4.134643             -4.407210
| 61>   H                    : 4.093610             4.370129             -3.497614
| 62>   H                    : 2.658445             4.004755             -5.980850
| 63>   H                    : 2.083581             3.392493             -4.388767
| 64>   H                    : 2.263852             5.133771             -4.764851
| 65>   C                      5.147577             7.515241             -3.265000
| 66>   O                      3.716713             7.577363             -3.335981
| 67>   H                      3.412833             6.771940             -3.793769
| 68>   H                      5.660477             8.347349             -2.790045
| 69>   H                      5.521592             6.700084             -2.687815
| 70>   H                      5.589001             7.427400             -4.268107
| 71> *
| 72>
| 73>                          ****END OF INPUT****
 Total Charge           Charge          ....    0
 Multiplicity           Mult            ....    1
 Number of Electrons    NEL             ....   36
Dispersion correction           -0.002010729
FINAL SINGLE POINT ENERGY      -231.466616102722
Dispersion correction           -0.000277858
FINAL SINGLE POINT ENERGY      -115.732723050842

CARTESIAN COORDINATES (ANGSTROEM)
---------------------------------
  C      2.722578    4.133135   -4.885620
  O      4.120572    4.134643   -4.407210
  H      4.093610    4.370129   -3.497614
  H      2.658445    4.004755   -5.980850
  H      2.083581    3.392493   -4.388767
  H      2.263852    5.133771   -4.764851
  C      5.147577    7.515241   -3.265000
  O      3.716713    7.577363   -3.335981
  H      3.412833    6.771940   -3.793769
  H      5.660477    8.347349   -2.790045
  H      5.521592    6.700084   -2.687815
  H      5.589001    7.427400   -4.268107

 Multiplicity           Mult            ....    1
 Number of Electrons    NEL             ....   18
 Basis Dimension        Dim             ....  172

ORBITAL ENERGIES
----------------

  NO   OCC          E(Eh)            E(eV)
   0   2.0000     -19.234704      -523.4029
   1   2.0000     -10.311634      -280.5938
   2   2.0000      -1.128587       -30.7104
   3   2.0000      -0.800359       -21.7789
   4   2.0000      -0.606716       -16.5096
   5   2.0000      -0.540851       -14.7173
   6   2.0000      -0.527517       -14.3545
   7   2.0000      -0.432467       -11.7680
   8   2.0000      -0.375957       -10.2303
   9   0.0000       0.070045         1.9060
  10   0.0000       0.131377         3.5750
  11   0.0000       0.147430         4.0118
  12   0.0000       0.167192         4.5495
  13   0.0000       0.191234         5.2038

MULLIKEN ATOMIC CHARGES
-----------------------
   0 C :   -0.001373
   1 O :   -0.000062
   2 H :   -0.001113
   3 H :    0.000124
   4 H :    0.000074
   5 H :   -0.000399
   6 C :   -0.184143
   7 O :   -0.474252
   8 H :    0.320093
   9 H :    0.125997
  10 H :    0.109728
  11 H :    0.105326
Sum of atomic charges:    0.0000000

LOEWDIN ATOMIC CHARGES
----------------------
   0 C :   -0.003851
   1 O :   -0.001239
   2 H :   -0.002223
   3 H :   -0.000028
   4 H :   -0.000031
   5 H :   -0.003306
   6 C :   -0.376027
   7 O :   -0.090043
   8 H :    0.180614
   9 H :    0.108555
  10 H :    0.089811
  11 H :    0.097766

  Mayer bond orders larger than 0.1
B(  6-C ,  7-O ) :   0.9952 B(  6-C ,  9-H ) :   0.9723 B(  6-C , 10-H ) :   0.9743
B(  6-C , 11-H ) :   0.9821 B(  7-O ,  8-H ) :   0.8986

Dispersion correction           -0.000256831
FINAL SINGLE POINT ENERGY      -115.732023471508

DIPOLE MOMENT
-------------
                                X             Y             Z
Electronic contribution:     -1.93020       0.25486       0.01954
Nuclear contribution   :      2.33741      -0.78330      -0.26074
                        -----------------------------------------
Total Dipole Moment    :      0.40721      -0.52844      -0.24120
                        -----------------------------------------
Magnitude (a.u.)       :      0.70940
Magnitude (Debye)      :      1.80315

Rotational constants in cm-1:     4.505478     0.800237     0.773750
Rotational constants in MHz : 135070.845806 23990.507079 23196.431734

                             ****ORCA TERMINATED NORMALLY****
TOTAL RUN TIME: 0 days 0 hours 1 minutes 25 seconds 986 msec
