                         Program Version 4.1.2  - RELEASE  -
|  1> #Run DFT-D3 single point of the dimer
|  2> ! wB97X-D3 def2-TZVP TIGHTSCF CHELPG PMODEL PAL8
|  3>
|  4> %base "17-8_DFT_AB"
|  5>
|  6> %scf
|  7> MaxIter 1000
|  8> end
|  9>
| 10> * xyz 0 1
| 11>   C                      4.197069             -5.731458            9.963804
| 12>   O                      3.094894             -5.843376            9.191124
| 13>   H                      2.638128             -4.976491            9.044959
| 14>   H                      4.671865             -6.648630            10.240441
| 15>   H                      4.946971             -5.153106            9.403973
| 16>   H                      3.975430             -5.220114            10.891315
| 17>   C                      3.335256             -2.080908            8.211448
| 18>   O                      3.391253             -0.957846            8.954754
| 19>   H                      4.286924             -0.929275            9.319286
| 20>   H                      2.361145             -2.219645            7.766882
| 21>   H                      3.958356             -1.952691            7.293758
| 22>   H                      3.533792             -2.956038            8.799028
| 23> *
| 24>
| 25> #Run DFT-D3 single point of the molecule with dimer basis set
| 26> $new_job
| 27> %base "17-8_DFT_A"
| 28> ! wB97X-D3 def2-TZVP TIGHTSCF CHELPG PMODEL
| 29>
| 30> %scf
| 31> MaxIter 1000
| 32> end
| 33>
| 34> * xyz 0 1
| 35>   C                      4.197069             -5.731458            9.963804
| 36>   O                      3.094894             -5.843376            9.191124
| 37>   H                      2.638128             -4.976491            9.044959
| 38>   H                      4.671865             -6.648630            10.240441
| 39>   H                      4.946971             -5.153106            9.403973
| 40>   H                      3.975430             -5.220114            10.891315
| 41>   C                    : 3.335256             -2.080908            8.211448
| 42>   O                    : 3.391253             -0.957846            8.954754
| 43>   H                    : 4.286924             -0.929275            9.319286
| 44>   H                    : 2.361145             -2.219645            7.766882
| 45>   H                    : 3.958356             -1.952691            7.293758
| 46>   H                    : 3.533792             -2.956038            8.799028
| 47> *
| 48>
| 49> #Run DFT-D3 single point of the particle with dimer basis set
| 50> $new_job
| 51> %base "17-8_DFT_B"
| 52> ! wB97X-D3 def2-TZVP TIGHTSCF CHELPG PMODEL
| 53>
| 54> %scf
| 55> MaxIter 1000
| 56> end
| 57>
| 58> * xyz 0 1
| 59>   C                    : 4.197069             -5.731458            9.963804
| 60>   O                    : 3.094894             -5.843376            9.191124
| 61>   H                    : 2.638128             -4.976491            9.044959
| 62>   H                    : 4.671865             -6.648630            10.240441
| 63>   H                    : 4.946971             -5.153106            9.403973
| 64>   H                    : 3.975430             -5.220114            10.891315
| 65>   C                      3.335256             -2.080908            8.211448
| 66>   O                      3.391253             -0.957846            8.954754
| 67>   H                      4.286924             -0.929275            9.319286
| 68>   H                      2.361145             -2.219645            7.766882
| 69>   H                      3.958356             -1.952691            7.293758
| 70>   H                      3.533792             -2.956038            8.799028
| 71> *
| 72>
| 73>                          ****END OF INPUT****
 Total Charge           Charge          ....    0
 Multiplicity           Mult            ....    1
 Number of Electrons    NEL             ....   36
Dispersion correction           -0.001556112
FINAL SINGLE POINT ENERGY      -231.461512535444
Dispersion correction           -0.000216573
FINAL SINGLE POINT ENERGY      -115.730357388625

CARTESIAN COORDINATES (ANGSTROEM)
---------------------------------
  C      4.197069   -5.731458    9.963804
  O      3.094894   -5.843376    9.191124
  H      2.638128   -4.976491    9.044959
  H      4.671865   -6.648630   10.240441
  H      4.946971   -5.153106    9.403973
  H      3.975430   -5.220114   10.891315
  C      3.335256   -2.080908    8.211448
  O      3.391253   -0.957846    8.954754
  H      4.286924   -0.929275    9.319286
  H      2.361145   -2.219645    7.766882
  H      3.958356   -1.952691    7.293758
  H      3.533792   -2.956038    8.799028

 Multiplicity           Mult            ....    1
 Number of Electrons    NEL             ....   18
 Basis Dimension        Dim             ....  172

ORBITAL ENERGIES
----------------

  NO   OCC          E(Eh)            E(eV)
   0   2.0000     -19.230278      -523.2825
   1   2.0000     -10.304536      -280.4007
   2   2.0000      -1.158742       -31.5310
   3   2.0000      -0.792362       -21.5613
   4   2.0000      -0.617650       -16.8071
   5   2.0000      -0.560002       -15.2384
   6   2.0000      -0.537164       -14.6170
   7   2.0000      -0.423058       -11.5120
   8   2.0000      -0.371194       -10.1007
   9   0.0000       0.084017         2.2862
  10   0.0000       0.119708         3.2574
  11   0.0000       0.150304         4.0900
  12   0.0000       0.181624         4.9423
  13   0.0000       0.189718         5.1625

MULLIKEN ATOMIC CHARGES
-----------------------
   0 C :    0.001852
   1 O :    0.000026
   2 H :   -0.002786
   3 H :   -0.000012
   4 H :   -0.001415
   5 H :   -0.000072
   6 C :   -0.148615
   7 O :   -0.457528
   8 H :    0.319026
   9 H :    0.106559
  10 H :    0.088638
  11 H :    0.094327
Sum of atomic charges:    0.0000000

LOEWDIN ATOMIC CHARGES
----------------------
   0 C :   -0.004371
   1 O :   -0.000753
   2 H :   -0.006322
   3 H :   -0.000041
   4 H :   -0.001734
   5 H :   -0.000263
   6 C :   -0.438877
   7 O :   -0.028379
   8 H :    0.181983
   9 H :    0.105988
  10 H :    0.097641
  11 H :    0.095129

  Mayer bond orders larger than 0.1
B(  6-C ,  7-O ) :   1.0047 B(  6-C ,  9-H ) :   0.9680 B(  6-C , 10-H ) :   0.9820
B(  6-C , 11-H ) :   0.9839 B(  7-O ,  8-H ) :   0.8955

Dispersion correction           -0.000204306
FINAL SINGLE POINT ENERGY      -115.730508034141

DIPOLE MOMENT
-------------
                                X             Y             Z
Electronic contribution:     -0.04232       1.50465       1.08436
Nuclear contribution   :      0.55055      -1.87804      -1.11421
                        -----------------------------------------
Total Dipole Moment    :      0.50823      -0.37339      -0.02984
                        -----------------------------------------
Magnitude (a.u.)       :      0.63135
Magnitude (Debye)      :      1.60477

Rotational constants in cm-1:     4.310574     0.895405     0.874084
Rotational constants in MHz : 129227.761126 26843.579905 26204.366773

                             ****ORCA TERMINATED NORMALLY****
TOTAL RUN TIME: 0 days 0 hours 1 minutes 13 seconds 539 msec
