                         Program Version 4.1.2  - RELEASE  -
|  1> #Run DFT-D3 single point of the dimer
|  2> ! wB97X-D3 def2-TZVP TIGHTSCF CHELPG PMODEL PAL8
|  3>
|  4> %base "18-26_DFT_AB"
|  5>
|  6> %scf
|  7> MaxIter 1000
|  8> end
|  9>
| 10> * xyz 0 1
| 11>   C                      -5.176520            -0.642955            5.468790
| 12>   O                      -4.038877            -1.295501            5.945422
| 13>   H                      -4.126203            -2.205438            5.650035
| 14>   H                      -5.286508            -0.774904            4.375683
| 15>   H                      -6.105946            -0.911018            5.899308
| 16>   H                      -5.090722            0.414521             5.747167
| 17>   C                      -7.384442            -1.165331            10.746995
| 18>   O                      -6.362167            -2.136888            11.178194
| 19>   H                      -6.817572            -2.926173            11.560051
| 20>   H                      -8.102816            -1.054200            11.524197
| 21>   H                      -6.950755            -0.248826            10.362408
| 22>   H                      -7.875112            -1.673363            9.931249
| 23> *
| 24>
| 25> #Run DFT-D3 single point of the molecule with dimer basis set
| 26> $new_job
| 27> %base "18-26_DFT_A"
| 28> ! wB97X-D3 def2-TZVP TIGHTSCF CHELPG PMODEL
| 29>
| 30> %scf
| 31> MaxIter 1000
| 32> end
| 33>
| 34> * xyz 0 1
| 35>   C                      -5.176520            -0.642955            5.468790
| 36>   O                      -4.038877            -1.295501            5.945422
| 37>   H                      -4.126203            -2.205438            5.650035
| 38>   H                      -5.286508            -0.774904            4.375683
| 39>   H                      -6.105946            -0.911018            5.899308
| 40>   H                      -5.090722            0.414521             5.747167
| 41>   C                    : -7.384442            -1.165331            10.746995
| 42>   O                    : -6.362167            -2.136888            11.178194
| 43>   H                    : -6.817572            -2.926173            11.560051
| 44>   H                    : -8.102816            -1.054200            11.524197
| 45>   H                    : -6.950755            -0.248826            10.362408
| 46>   H                    : -7.875112            -1.673363            9.931249
| 47> *
| 48>
| 49> #Run DFT-D3 single point of the particle with dimer basis set
| 50> $new_job
| 51> %base "18-26_DFT_B"
| 52> ! wB97X-D3 def2-TZVP TIGHTSCF CHELPG PMODEL
| 53>
| 54> %scf
| 55> MaxIter 1000
| 56> end
| 57>
| 58> * xyz 0 1
| 59>   C                    : -5.176520            -0.642955            5.468790
| 60>   O                    : -4.038877            -1.295501            5.945422
| 61>   H                    : -4.126203            -2.205438            5.650035
| 62>   H                    : -5.286508            -0.774904            4.375683
| 63>   H                    : -6.105946            -0.911018            5.899308
| 64>   H                    : -5.090722            0.414521             5.747167
| 65>   C                      -7.384442            -1.165331            10.746995
| 66>   O                      -6.362167            -2.136888            11.178194
| 67>   H                      -6.817572            -2.926173            11.560051
| 68>   H                      -8.102816            -1.054200            11.524197
| 69>   H                      -6.950755            -0.248826            10.362408
| 70>   H                      -7.875112            -1.673363            9.931249
| 71> *
| 72>
| 73>                          ****END OF INPUT****
 Total Charge           Charge          ....    0
 Multiplicity           Mult            ....    1
 Number of Electrons    NEL             ....   36
Dispersion correction           -0.000610498
FINAL SINGLE POINT ENERGY      -231.463208350040
Dispersion correction           -0.000229559
FINAL SINGLE POINT ENERGY      -115.734097096724

CARTESIAN COORDINATES (ANGSTROEM)
---------------------------------
  C     -5.176520   -0.642955    5.468790
  O     -4.038877   -1.295501    5.945422
  H     -4.126203   -2.205438    5.650035
  H     -5.286508   -0.774904    4.375683
  H     -6.105946   -0.911018    5.899308
  H     -5.090722    0.414521    5.747167
  C     -7.384442   -1.165331   10.746995
  O     -6.362167   -2.136888   11.178194
  H     -6.817572   -2.926173   11.560051
  H     -8.102816   -1.054200   11.524197
  H     -6.950755   -0.248826   10.362408
  H     -7.875112   -1.673363    9.931249

 Multiplicity           Mult            ....    1
 Number of Electrons    NEL             ....   18
 Basis Dimension        Dim             ....  172

ORBITAL ENERGIES
----------------

  NO   OCC          E(Eh)            E(eV)
   0   2.0000     -19.225937      -523.1644
   1   2.0000     -10.312722      -280.6234
   2   2.0000      -1.110308       -30.2130
   3   2.0000      -0.798416       -21.7260
   4   2.0000      -0.595336       -16.1999
   5   2.0000      -0.538145       -14.6437
   6   2.0000      -0.528991       -14.3946
   7   2.0000      -0.433675       -11.8009
   8   2.0000      -0.368327       -10.0227
   9   0.0000       0.087674         2.3857
  10   0.0000       0.111371         3.0305
  11   0.0000       0.150058         4.0833
  12   0.0000       0.169300         4.6069
  13   0.0000       0.192823         5.2470

MULLIKEN ATOMIC CHARGES
-----------------------
   0 C :    0.000010
   1 O :   -0.000000
   2 H :   -0.000000
   3 H :   -0.000000
   4 H :   -0.000023
   5 H :   -0.000005
   6 C :   -0.163002
   7 O :   -0.498814
   8 H :    0.314028
   9 H :    0.111348
  10 H :    0.126948
  11 H :    0.109511
Sum of atomic charges:   -0.0000000

LOEWDIN ATOMIC CHARGES
----------------------
   0 C :   -0.000006
   1 O :   -0.000001
   2 H :   -0.000000
   3 H :   -0.000000
   4 H :   -0.000013
   5 H :   -0.000001
   6 C :   -0.331728
   7 O :   -0.141414
   8 H :    0.178382
   9 H :    0.090583
  10 H :    0.107796
  11 H :    0.096403

  Mayer bond orders larger than 0.1
B(  6-C ,  7-O ) :   0.9775 B(  6-C ,  9-H ) :   0.9773 B(  6-C , 10-H ) :   0.9692
B(  6-C , 11-H ) :   0.9870 B(  7-O ,  8-H ) :   0.8961

Dispersion correction           -0.000233715
FINAL SINGLE POINT ENERGY      -115.729376177534

DIPOLE MOMENT
-------------
                                X             Y             Z
Electronic contribution:      1.33374      -0.86210       0.52047
Nuclear contribution   :     -2.07883       0.79590      -0.48517
                        -----------------------------------------
Total Dipole Moment    :     -0.74509      -0.06620       0.03530
                        -----------------------------------------
Magnitude (a.u.)       :      0.74886
Magnitude (Debye)      :      1.90344

Rotational constants in cm-1:     4.278019     0.789413     0.754805
Rotational constants in MHz : 128251.768546 23666.010845 22628.482965

                             ****ORCA TERMINATED NORMALLY****
TOTAL RUN TIME: 0 days 0 hours 0 minutes 55 seconds 312 msec
