                         Program Version 4.1.2  - RELEASE  -
|  1> #Run DFT-D3 single point of the dimer
|  2> ! wB97X-D3 def2-TZVP TIGHTSCF CHELPG PMODEL PAL8
|  3>
|  4> %base "4-77_DFT_AB"
|  5>
|  6> %scf
|  7> MaxIter 1000
|  8> end
|  9>
| 10> * xyz 0 1
| 11>   C                      4.024355             -6.801977            -8.916837
| 12>   O                      2.663368             -6.801153            -9.057764
| 13>   H                      2.302271             -5.971964            -8.723730
| 14>   H                      4.469199             -5.890253            -9.387422
| 15>   H                      4.195968             -6.701892            -7.838637
| 16>   H                      4.536072             -7.759296            -9.102608
| 17>   C                      7.906974             -3.309118            -7.590803
| 18>   O                      8.886369             -4.075703            -7.023614
| 19>   H                      8.844728             -3.906499            -6.073545
| 20>   H                      6.880082             -3.727048            -7.403236
| 21>   H                      7.847218             -2.269303            -7.190911
| 22>   H                      7.917304             -3.275971            -8.715529
| 23> *
| 24>
| 25> #Run DFT-D3 single point of the molecule with dimer basis set
| 26> $new_job
| 27> %base "4-77_DFT_A"
| 28> ! wB97X-D3 def2-TZVP TIGHTSCF CHELPG PMODEL
| 29>
| 30> %scf
| 31> MaxIter 1000
| 32> end
| 33>
| 34> * xyz 0 1
| 35>   C                      4.024355             -6.801977            -8.916837
| 36>   O                      2.663368             -6.801153            -9.057764
| 37>   H                      2.302271             -5.971964            -8.723730
| 38>   H                      4.469199             -5.890253            -9.387422
| 39>   H                      4.195968             -6.701892            -7.838637
| 40>   H                      4.536072             -7.759296            -9.102608
| 41>   C                    : 7.906974             -3.309118            -7.590803
| 42>   O                    : 8.886369             -4.075703            -7.023614
| 43>   H                    : 8.844728             -3.906499            -6.073545
| 44>   H                    : 6.880082             -3.727048            -7.403236
| 45>   H                    : 7.847218             -2.269303            -7.190911
| 46>   H                    : 7.917304             -3.275971            -8.715529
| 47> *
| 48>
| 49> #Run DFT-D3 single point of the particle with dimer basis set
| 50> $new_job
| 51> %base "4-77_DFT_B"
| 52> ! wB97X-D3 def2-TZVP TIGHTSCF CHELPG PMODEL
| 53>
| 54> %scf
| 55> MaxIter 1000
| 56> end
| 57>
| 58> * xyz 0 1
| 59>   C                    : 4.024355             -6.801977            -8.916837
| 60>   O                    : 2.663368             -6.801153            -9.057764
| 61>   H                    : 2.302271             -5.971964            -8.723730
| 62>   H                    : 4.469199             -5.890253            -9.387422
| 63>   H                    : 4.195968             -6.701892            -7.838637
| 64>   H                    : 4.536072             -7.759296            -9.102608
| 65>   C                      7.906974             -3.309118            -7.590803
| 66>   O                      8.886369             -4.075703            -7.023614
| 67>   H                      8.844728             -3.906499            -6.073545
| 68>   H                      6.880082             -3.727048            -7.403236
| 69>   H                      7.847218             -2.269303            -7.190911
| 70>   H                      7.917304             -3.275971            -8.715529
| 71> *
| 72>
| 73>                          ****END OF INPUT****
 Total Charge           Charge          ....    0
 Multiplicity           Mult            ....    1
 Number of Electrons    NEL             ....   36
Dispersion correction           -0.000674668
FINAL SINGLE POINT ENERGY      -231.459349943233
Dispersion correction           -0.000212364
FINAL SINGLE POINT ENERGY      -115.727418180624

CARTESIAN COORDINATES (ANGSTROEM)
---------------------------------
  C      4.024355   -6.801977   -8.916837
  O      2.663368   -6.801153   -9.057764
  H      2.302271   -5.971964   -8.723730
  H      4.469199   -5.890253   -9.387422
  H      4.195968   -6.701892   -7.838637
  H      4.536072   -7.759296   -9.102608
  C      7.906974   -3.309118   -7.590803
  O      8.886369   -4.075703   -7.023614
  H      8.844728   -3.906499   -6.073545
  H      6.880082   -3.727048   -7.403236
  H      7.847218   -2.269303   -7.190911
  H      7.917304   -3.275971   -8.715529

 Multiplicity           Mult            ....    1
 Number of Electrons    NEL             ....   18
 Basis Dimension        Dim             ....  172

ORBITAL ENERGIES
----------------

  NO   OCC          E(Eh)            E(eV)
   0   2.0000     -19.235815      -523.4331
   1   2.0000     -10.318420      -280.7785
   2   2.0000      -1.154673       -31.4202
   3   2.0000      -0.787994       -21.4424
   4   2.0000      -0.622009       -16.9257
   5   2.0000      -0.541347       -14.7308
   6   2.0000      -0.531885       -14.4733
   7   2.0000      -0.432600       -11.7716
   8   2.0000      -0.368597       -10.0300
   9   0.0000       0.084715         2.3052
  10   0.0000       0.113950         3.1007
  11   0.0000       0.146672         3.9911
  12   0.0000       0.166852         4.5403
  13   0.0000       0.184740         5.0270

MULLIKEN ATOMIC CHARGES
-----------------------
   0 C :    0.000106
   1 O :    0.000004
   2 H :   -0.000001
   3 H :   -0.000143
   4 H :   -0.000069
   5 H :   -0.000017
   6 C :   -0.174243
   7 O :   -0.452942
   8 H :    0.320995
   9 H :    0.089485
  10 H :    0.098520
  11 H :    0.118306
Sum of atomic charges:    0.0000000

LOEWDIN ATOMIC CHARGES
----------------------
   0 C :   -0.000151
   1 O :   -0.000003
   2 H :   -0.000000
   3 H :   -0.000141
   4 H :   -0.000066
   5 H :   -0.000002
   6 C :   -0.441483
   7 O :   -0.040770
   8 H :    0.181400
   9 H :    0.093333
  10 H :    0.094953
  11 H :    0.112931

  Mayer bond orders larger than 0.1
B(  6-C ,  7-O ) :   1.0100 B(  6-C ,  9-H ) :   0.9752 B(  6-C , 10-H ) :   0.9764
B(  6-C , 11-H ) :   0.9704 B(  7-O ,  8-H ) :   0.8937

Dispersion correction           -0.000237399
FINAL SINGLE POINT ENERGY      -115.731735352349

DIPOLE MOMENT
-------------
                                X             Y             Z
Electronic contribution:      1.57663      -1.10054       0.65216
Nuclear contribution   :     -1.94149       1.47799      -0.25533
                        -----------------------------------------
Total Dipole Moment    :     -0.36486       0.37745       0.39683
                        -----------------------------------------
Magnitude (a.u.)       :      0.65807
Magnitude (Debye)      :      1.67268

Rotational constants in cm-1:     4.250083     0.865096     0.826014
Rotational constants in MHz : 127414.273059 25934.913590 24763.263886

                             ****ORCA TERMINATED NORMALLY****
TOTAL RUN TIME: 0 days 0 hours 1 minutes 32 seconds 666 msec
