                         Program Version 4.1.2  - RELEASE  -
|  1> #Run DFT-D3 single point of the dimer
|  2> ! wB97X-D3 def2-TZVP TIGHTSCF CHELPG PMODEL PAL8
|  3>
|  4> %base "20-103_DFT_AB"
|  5>
|  6> %scf
|  7> MaxIter 1000
|  8> end
|  9>
| 10> * xyz 0 1
| 11>   C                      9.120961             -6.849547            -2.911448
| 12>   O                      8.104281             -5.987390            -3.377930
| 13>   H                      7.520534             -6.399815            -3.979803
| 14>   H                      9.537305             -6.457883            -1.999201
| 15>   H                      8.666208             -7.838895            -2.838411
| 16>   H                      9.986982             -7.033741            -3.580794
| 17>   C                      5.397951             -6.825586            -0.794235
| 18>   O                      4.338888             -7.700226            -0.952280
| 19>   H                      3.633912             -7.443674            -0.352395
| 20>   H                      5.994437             -7.092302            0.040421
| 21>   H                      6.045232             -6.752992            -1.683795
| 22>   H                      4.948599             -5.871207            -0.564371
| 23> *
| 24>
| 25> #Run DFT-D3 single point of the molecule with dimer basis set
| 26> $new_job
| 27> %base "20-103_DFT_A"
| 28> ! wB97X-D3 def2-TZVP TIGHTSCF CHELPG PMODEL
| 29>
| 30> %scf
| 31> MaxIter 1000
| 32> end
| 33>
| 34> * xyz 0 1
| 35>   C                      9.120961             -6.849547            -2.911448
| 36>   O                      8.104281             -5.987390            -3.377930
| 37>   H                      7.520534             -6.399815            -3.979803
| 38>   H                      9.537305             -6.457883            -1.999201
| 39>   H                      8.666208             -7.838895            -2.838411
| 40>   H                      9.986982             -7.033741            -3.580794
| 41>   C                    : 5.397951             -6.825586            -0.794235
| 42>   O                    : 4.338888             -7.700226            -0.952280
| 43>   H                    : 3.633912             -7.443674            -0.352395
| 44>   H                    : 5.994437             -7.092302            0.040421
| 45>   H                    : 6.045232             -6.752992            -1.683795
| 46>   H                    : 4.948599             -5.871207            -0.564371
| 47> *
| 48>
| 49> #Run DFT-D3 single point of the particle with dimer basis set
| 50> $new_job
| 51> %base "20-103_DFT_B"
| 52> ! wB97X-D3 def2-TZVP TIGHTSCF CHELPG PMODEL
| 53>
| 54> %scf
| 55> MaxIter 1000
| 56> end
| 57>
| 58> * xyz 0 1
| 59>   C                    : 9.120961             -6.849547            -2.911448
| 60>   O                    : 8.104281             -5.987390            -3.377930
| 61>   H                    : 7.520534             -6.399815            -3.979803
| 62>   H                    : 9.537305             -6.457883            -1.999201
| 63>   H                    : 8.666208             -7.838895            -2.838411
| 64>   H                    : 9.986982             -7.033741            -3.580794
| 65>   C                      5.397951             -6.825586            -0.794235
| 66>   O                      4.338888             -7.700226            -0.952280
| 67>   H                      3.633912             -7.443674            -0.352395
| 68>   H                      5.994437             -7.092302            0.040421
| 69>   H                      6.045232             -6.752992            -1.683795
| 70>   H                      4.948599             -5.871207            -0.564371
| 71> *
| 72>
| 73>                          ****END OF INPUT****
 Total Charge           Charge          ....    0
 Multiplicity           Mult            ....    1
 Number of Electrons    NEL             ....   36
Dispersion correction           -0.001410658
FINAL SINGLE POINT ENERGY      -231.466009255664
Dispersion correction           -0.000248629
FINAL SINGLE POINT ENERGY      -115.732037887503

CARTESIAN COORDINATES (ANGSTROEM)
---------------------------------
  C      9.120961   -6.849547   -2.911448
  O      8.104281   -5.987390   -3.377930
  H      7.520534   -6.399815   -3.979803
  H      9.537305   -6.457883   -1.999201
  H      8.666208   -7.838895   -2.838411
  H      9.986982   -7.033741   -3.580794
  C      5.397951   -6.825586   -0.794235
  O      4.338888   -7.700226   -0.952280
  H      3.633912   -7.443674   -0.352395
  H      5.994437   -7.092302    0.040421
  H      6.045232   -6.752992   -1.683795
  H      4.948599   -5.871207   -0.564371

 Multiplicity           Mult            ....    1
 Number of Electrons    NEL             ....   18
 Basis Dimension        Dim             ....  172

ORBITAL ENERGIES
----------------

  NO   OCC          E(Eh)            E(eV)
   0   2.0000     -19.225731      -523.1587
   1   2.0000     -10.305674      -280.4316
   2   2.0000      -1.144602       -31.1462
   3   2.0000      -0.795524       -21.6473
   4   2.0000      -0.617074       -16.7914
   5   2.0000      -0.548114       -14.9149
   6   2.0000      -0.536845       -14.6083
   7   2.0000      -0.427621       -11.6362
   8   2.0000      -0.369184       -10.0460
   9   0.0000       0.085725         2.3327
  10   0.0000       0.113744         3.0951
  11   0.0000       0.157883         4.2962
  12   0.0000       0.164873         4.4864
  13   0.0000       0.191192         5.2026

MULLIKEN ATOMIC CHARGES
-----------------------
   0 C :   -0.000345
   1 O :    0.000327
   2 H :   -0.000095
   3 H :   -0.000027
   4 H :    0.000078
   5 H :    0.000020
   6 C :   -0.153492
   7 O :   -0.471534
   8 H :    0.316706
   9 H :    0.098312
  10 H :    0.116352
  11 H :    0.093699
Sum of atomic charges:   -0.0000000

LOEWDIN ATOMIC CHARGES
----------------------
   0 C :   -0.002059
   1 O :   -0.002092
   2 H :   -0.001335
   3 H :   -0.000084
   4 H :   -0.000421
   5 H :   -0.000018
   6 C :   -0.399850
   7 O :   -0.058419
   8 H :    0.172207
   9 H :    0.087206
  10 H :    0.111132
  11 H :    0.093732

  Mayer bond orders larger than 0.1
B(  6-C ,  7-O ) :   1.0078 B(  6-C ,  9-H ) :   0.9751 B(  6-C , 10-H ) :   0.9704
B(  6-C , 11-H ) :   0.9974 B(  7-O ,  8-H ) :   0.8976

Dispersion correction           -0.000210567
FINAL SINGLE POINT ENERGY      -115.732085020750

DIPOLE MOMENT
-------------
                                X             Y             Z
Electronic contribution:     -1.23000      -1.23642      -0.34954
Nuclear contribution   :      1.18185       1.74893       0.80053
                        -----------------------------------------
Total Dipole Moment    :     -0.04816       0.51251       0.45099
                        -----------------------------------------
Magnitude (a.u.)       :      0.68438
Magnitude (Debye)      :      1.73956

Rotational constants in cm-1:     4.376570     0.871744     0.833184
Rotational constants in MHz : 131206.257355 26134.229233 24978.232995

                             ****ORCA TERMINATED NORMALLY****
TOTAL RUN TIME: 0 days 0 hours 1 minutes 3 seconds 936 msec
