                         Program Version 4.1.2  - RELEASE  -
|  1> #Run DFT-D3 single point of the dimer
|  2> ! wB97X-D3 def2-TZVP TIGHTSCF CHELPG PMODEL PAL8
|  3>
|  4> %base "8-127_DFT_AB"
|  5>
|  6> %scf
|  7> MaxIter 1000
|  8> end
|  9>
| 10> * xyz 0 1
| 11>   C                      6.823729             6.653392             4.663200
| 12>   O                      5.853408             7.293050             3.735871
| 13>   H                      5.958699             6.875321             2.844677
| 14>   H                      6.405214             6.361899             5.666741
| 15>   H                      7.327214             5.758224             4.307533
| 16>   H                      7.632612             7.335827             4.701187
| 17>   C                      3.331205             8.879087             6.004327
| 18>   O                      4.379538             9.384621             5.205546
| 19>   H                      5.180893             8.897967             5.414773
| 20>   H                      2.426944             9.554563             6.046449
| 21>   H                      2.986649             7.898771             5.610622
| 22>   H                      3.675383             8.766237             7.041271
| 23> *
| 24>
| 25> #Run DFT-D3 single point of the molecule with dimer basis set
| 26> $new_job
| 27> %base "8-127_DFT_A"
| 28> ! wB97X-D3 def2-TZVP TIGHTSCF CHELPG PMODEL
| 29>
| 30> %scf
| 31> MaxIter 1000
| 32> end
| 33>
| 34> * xyz 0 1
| 35>   C                      6.823729             6.653392             4.663200
| 36>   O                      5.853408             7.293050             3.735871
| 37>   H                      5.958699             6.875321             2.844677
| 38>   H                      6.405214             6.361899             5.666741
| 39>   H                      7.327214             5.758224             4.307533
| 40>   H                      7.632612             7.335827             4.701187
| 41>   C                    : 3.331205             8.879087             6.004327
| 42>   O                    : 4.379538             9.384621             5.205546
| 43>   H                    : 5.180893             8.897967             5.414773
| 44>   H                    : 2.426944             9.554563             6.046449
| 45>   H                    : 2.986649             7.898771             5.610622
| 46>   H                    : 3.675383             8.766237             7.041271
| 47> *
| 48>
| 49> #Run DFT-D3 single point of the particle with dimer basis set
| 50> $new_job
| 51> %base "8-127_DFT_B"
| 52> ! wB97X-D3 def2-TZVP TIGHTSCF CHELPG PMODEL
| 53>
| 54> %scf
| 55> MaxIter 1000
| 56> end
| 57>
| 58> * xyz 0 1
| 59>   C                    : 6.823729             6.653392             4.663200
| 60>   O                    : 5.853408             7.293050             3.735871
| 61>   H                    : 5.958699             6.875321             2.844677
| 62>   H                    : 6.405214             6.361899             5.666741
| 63>   H                    : 7.327214             5.758224             4.307533
| 64>   H                    : 7.632612             7.335827             4.701187
| 65>   C                      3.331205             8.879087             6.004327
| 66>   O                      4.379538             9.384621             5.205546
| 67>   H                      5.180893             8.897967             5.414773
| 68>   H                      2.426944             9.554563             6.046449
| 69>   H                      2.986649             7.898771             5.610622
| 70>   H                      3.675383             8.766237             7.041271
| 71> *
| 72>
| 73>                          ****END OF INPUT****
 Total Charge           Charge          ....    0
 Multiplicity           Mult            ....    1
 Number of Electrons    NEL             ....   36
Dispersion correction           -0.001810438
FINAL SINGLE POINT ENERGY      -231.460490430996
Dispersion correction           -0.000287315
FINAL SINGLE POINT ENERGY      -115.725217232010

CARTESIAN COORDINATES (ANGSTROEM)
---------------------------------
  C      6.823729    6.653392    4.663200
  O      5.853408    7.293050    3.735871
  H      5.958699    6.875321    2.844677
  H      6.405214    6.361899    5.666741
  H      7.327214    5.758224    4.307533
  H      7.632612    7.335827    4.701187
  C      3.331205    8.879087    6.004327
  O      4.379538    9.384621    5.205546
  H      5.180893    8.897967    5.414773
  H      2.426944    9.554563    6.046449
  H      2.986649    7.898771    5.610622
  H      3.675383    8.766237    7.041271

 Multiplicity           Mult            ....    1
 Number of Electrons    NEL             ....   18
 Basis Dimension        Dim             ....  172

ORBITAL ENERGIES
----------------

  NO   OCC          E(Eh)            E(eV)
   0   2.0000     -19.231544      -523.3169
   1   2.0000     -10.320097      -280.8241
   2   2.0000      -1.137781       -30.9606
   3   2.0000      -0.791333       -21.5333
   4   2.0000      -0.610109       -16.6019
   5   2.0000      -0.542605       -14.7650
   6   2.0000      -0.528134       -14.3713
   7   2.0000      -0.429255       -11.6806
   8   2.0000      -0.373879       -10.1738
   9   0.0000       0.070732         1.9247
  10   0.0000       0.130747         3.5578
  11   0.0000       0.150308         4.0901
  12   0.0000       0.160946         4.3796
  13   0.0000       0.188283         5.1234

MULLIKEN ATOMIC CHARGES
-----------------------
   0 C :   -0.004974
   1 O :   -0.003919
   2 H :   -0.000483
   3 H :   -0.000022
   4 H :   -0.000187
   5 H :    0.000391
   6 C :   -0.162130
   7 O :   -0.467051
   8 H :    0.317797
   9 H :    0.119128
  10 H :    0.097166
  11 H :    0.104284
Sum of atomic charges:    0.0000000

LOEWDIN ATOMIC CHARGES
----------------------
   0 C :   -0.005686
   1 O :   -0.010105
   2 H :   -0.000564
   3 H :   -0.000581
   4 H :   -0.000115
   5 H :   -0.000273
   6 C :   -0.393061
   7 O :   -0.066910
   8 H :    0.171736
   9 H :    0.114254
  10 H :    0.095912
  11 H :    0.095390

  Mayer bond orders larger than 0.1
B(  6-C ,  7-O ) :   1.0006 B(  6-C ,  9-H ) :   0.9704 B(  6-C , 10-H ) :   0.9721
B(  6-C , 11-H ) :   0.9837 B(  7-O ,  8-H ) :   0.8990

Dispersion correction           -0.000243688
FINAL SINGLE POINT ENERGY      -115.735372556866

DIPOLE MOMENT
-------------
                                X             Y             Z
Electronic contribution:      1.26936       0.78066      -1.10365
Nuclear contribution   :     -1.18196      -1.27040       1.56935
                        -----------------------------------------
Total Dipole Moment    :      0.08740      -0.48974       0.46570
                        -----------------------------------------
Magnitude (a.u.)       :      0.68144
Magnitude (Debye)      :      1.73209

Rotational constants in cm-1:     4.212579     0.825827     0.798973
Rotational constants in MHz : 126289.935902 24757.671541 23952.608702

                             ****ORCA TERMINATED NORMALLY****
TOTAL RUN TIME: 0 days 0 hours 0 minutes 47 seconds 172 msec
