                         Program Version 4.1.2  - RELEASE  -
|  1> #Run DFT-D3 single point of the dimer
|  2> ! wB97X-D3 def2-TZVP TIGHTSCF CHELPG PMODEL PAL8
|  3>
|  4> %base "6-202_DFT_AB"
|  5>
|  6> %scf
|  7> MaxIter 1000
|  8> end
|  9>
| 10> * xyz 0 1
| 11>   C                      6.624132             7.413603             -8.245069
| 12>   O                      6.961184             7.120662             -6.934028
| 13>   H                      6.227871             6.513925             -6.667975
| 14>   H                      5.636665             7.834157             -8.331550
| 15>   H                      7.321227             8.095600             -8.805844
| 16>   H                      6.747616             6.490102             -8.871968
| 17>   C                      7.313492             5.352219             -3.875000
| 18>   O                      8.583517             5.934951             -3.688472
| 19>   H                      8.912932             5.914960             -4.629453
| 20>   H                      6.701947             5.408958             -2.954834
| 21>   H                      6.815108             5.840686             -4.748789
| 22>   H                      7.336305             4.377788             -4.229219
| 23> *
| 24>
| 25> #Run DFT-D3 single point of the molecule with dimer basis set
| 26> $new_job
| 27> %base "6-202_DFT_A"
| 28> ! wB97X-D3 def2-TZVP TIGHTSCF CHELPG PMODEL
| 29>
| 30> %scf
| 31> MaxIter 1000
| 32> end
| 33>
| 34> * xyz 0 1
| 35>   C                      6.624132             7.413603             -8.245069
| 36>   O                      6.961184             7.120662             -6.934028
| 37>   H                      6.227871             6.513925             -6.667975
| 38>   H                      5.636665             7.834157             -8.331550
| 39>   H                      7.321227             8.095600             -8.805844
| 40>   H                      6.747616             6.490102             -8.871968
| 41>   C                    : 7.313492             5.352219             -3.875000
| 42>   O                    : 8.583517             5.934951             -3.688472
| 43>   H                    : 8.912932             5.914960             -4.629453
| 44>   H                    : 6.701947             5.408958             -2.954834
| 45>   H                    : 6.815108             5.840686             -4.748789
| 46>   H                    : 7.336305             4.377788             -4.229219
| 47> *
| 48>
| 49> #Run DFT-D3 single point of the particle with dimer basis set
| 50> $new_job
| 51> %base "6-202_DFT_B"
| 52> ! wB97X-D3 def2-TZVP TIGHTSCF CHELPG PMODEL
| 53>
| 54> %scf
| 55> MaxIter 1000
| 56> end
| 57>
| 58> * xyz 0 1
| 59>   C                    : 6.624132             7.413603             -8.245069
| 60>   O                    : 6.961184             7.120662             -6.934028
| 61>   H                    : 6.227871             6.513925             -6.667975
| 62>   H                    : 5.636665             7.834157             -8.331550
| 63>   H                    : 7.321227             8.095600             -8.805844
| 64>   H                    : 6.747616             6.490102             -8.871968
| 65>   C                      7.313492             5.352219             -3.875000
| 66>   O                      8.583517             5.934951             -3.688472
| 67>   H                      8.912932             5.914960             -4.629453
| 68>   H                      6.701947             5.408958             -2.954834
| 69>   H                      6.815108             5.840686             -4.748789
| 70>   H                      7.336305             4.377788             -4.229219
| 71> *
| 72>
| 73>                          ****END OF INPUT****
 Total Charge           Charge          ....    0
 Multiplicity           Mult            ....    1
 Number of Electrons    NEL             ....   36
Dispersion correction           -0.001416422
FINAL SINGLE POINT ENERGY      -231.458178761973
Dispersion correction           -0.000222989
FINAL SINGLE POINT ENERGY      -115.729677015776

CARTESIAN COORDINATES (ANGSTROEM)
---------------------------------
  C      6.624132    7.413603   -8.245069
  O      6.961184    7.120662   -6.934028
  H      6.227871    6.513925   -6.667975
  H      5.636665    7.834157   -8.331550
  H      7.321227    8.095600   -8.805844
  H      6.747616    6.490102   -8.871968
  C      7.313492    5.352219   -3.875000
  O      8.583517    5.934951   -3.688472
  H      8.912932    5.914960   -4.629453
  H      6.701947    5.408958   -2.954834
  H      6.815108    5.840686   -4.748789
  H      7.336305    4.377788   -4.229219

 Multiplicity           Mult            ....    1
 Number of Electrons    NEL             ....   18
 Basis Dimension        Dim             ....  172

ORBITAL ENERGIES
----------------

  NO   OCC          E(Eh)            E(eV)
   0   2.0000     -19.236390      -523.4488
   1   2.0000     -10.310523      -280.5636
   2   2.0000      -1.137336       -30.9485
   3   2.0000      -0.791951       -21.5501
   4   2.0000      -0.614888       -16.7319
   5   2.0000      -0.535567       -14.5735
   6   2.0000      -0.526015       -14.3136
   7   2.0000      -0.447822       -12.1858
   8   2.0000      -0.369384       -10.0514
   9   0.0000       0.077030         2.0961
  10   0.0000       0.112971         3.0741
  11   0.0000       0.150725         4.1014
  12   0.0000       0.176177         4.7940
  13   0.0000       0.196176         5.3382

MULLIKEN ATOMIC CHARGES
-----------------------
   0 C :    0.000688
   1 O :    0.000898
   2 H :   -0.000194
   3 H :   -0.000044
   4 H :   -0.000016
   5 H :   -0.000055
   6 C :   -0.177767
   7 O :   -0.460125
   8 H :    0.316121
   9 H :    0.122565
  10 H :    0.085219
  11 H :    0.112710
Sum of atomic charges:   -0.0000000

LOEWDIN ATOMIC CHARGES
----------------------
   0 C :   -0.000204
   1 O :   -0.004536
   2 H :   -0.008993
   3 H :   -0.000003
   4 H :   -0.000004
   5 H :   -0.000004
   6 C :   -0.395149
   7 O :   -0.086028
   8 H :    0.196354
   9 H :    0.112007
  10 H :    0.104948
  11 H :    0.081612

  Mayer bond orders larger than 0.1
B(  6-C ,  7-O ) :   0.9996 B(  6-C ,  9-H ) :   0.9737 B(  6-C , 10-H ) :   0.9865
B(  6-C , 11-H ) :   0.9709 B(  7-O ,  8-H ) :   0.8978

Dispersion correction           -0.000210276
FINAL SINGLE POINT ENERGY      -115.727300172334

DIPOLE MOMENT
-------------
                                X             Y             Z
Electronic contribution:      1.67412       0.72212       0.57625
Nuclear contribution   :     -1.95041      -0.97816      -1.21885
                        -----------------------------------------
Total Dipole Moment    :     -0.27629      -0.25604      -0.64260
                        -----------------------------------------
Magnitude (a.u.)       :      0.74487
Magnitude (Debye)      :      1.89330

Rotational constants in cm-1:     4.218058     0.854593     0.800480
Rotational constants in MHz : 126454.202737 25620.052762 23997.787893

                             ****ORCA TERMINATED NORMALLY****
TOTAL RUN TIME: 0 days 0 hours 1 minutes 1 seconds 532 msec
