                         Program Version 4.1.2  - RELEASE  -
|  1> #Run DFT-D3 single point of the dimer
|  2> ! wB97X-D3 def2-TZVP TIGHTSCF CHELPG PMODEL PAL8
|  3>
|  4> %base "14-219_DFT_AB"
|  5>
|  6> %scf
|  7> MaxIter 1000
|  8> end
|  9>
| 10> * xyz 0 1
| 11>   C                      1.734911             0.716800             4.327203
| 12>   O                      0.791648             -0.304132            4.276472
| 13>   H                      1.048376             -0.965579            3.642560
| 14>   H                      2.449839             0.542115             3.497208
| 15>   H                      1.264994             1.720495             4.343686
| 16>   H                      2.275467             0.636369             5.293535
| 17>   C                      -0.478926            -1.224034            7.517796
| 18>   O                      -0.887550            -0.137277            6.675063
| 19>   H                      -0.301585            -0.075655            5.910543
| 20>   H                      -1.273776            -1.963109            7.510648
| 21>   H                      0.407688             -1.674293            7.115746
| 22>   H                      -0.179908            -0.907772            8.530023
| 23> *
| 24>
| 25> #Run DFT-D3 single point of the molecule with dimer basis set
| 26> $new_job
| 27> %base "14-219_DFT_A"
| 28> ! wB97X-D3 def2-TZVP TIGHTSCF CHELPG PMODEL
| 29>
| 30> %scf
| 31> MaxIter 1000
| 32> end
| 33>
| 34> * xyz 0 1
| 35>   C                      1.734911             0.716800             4.327203
| 36>   O                      0.791648             -0.304132            4.276472
| 37>   H                      1.048376             -0.965579            3.642560
| 38>   H                      2.449839             0.542115             3.497208
| 39>   H                      1.264994             1.720495             4.343686
| 40>   H                      2.275467             0.636369             5.293535
| 41>   C                    : -0.478926            -1.224034            7.517796
| 42>   O                    : -0.887550            -0.137277            6.675063
| 43>   H                    : -0.301585            -0.075655            5.910543
| 44>   H                    : -1.273776            -1.963109            7.510648
| 45>   H                    : 0.407688             -1.674293            7.115746
| 46>   H                    : -0.179908            -0.907772            8.530023
| 47> *
| 48>
| 49> #Run DFT-D3 single point of the particle with dimer basis set
| 50> $new_job
| 51> %base "14-219_DFT_B"
| 52> ! wB97X-D3 def2-TZVP TIGHTSCF CHELPG PMODEL
| 53>
| 54> %scf
| 55> MaxIter 1000
| 56> end
| 57>
| 58> * xyz 0 1
| 59>   C                    : 1.734911             0.716800             4.327203
| 60>   O                    : 0.791648             -0.304132            4.276472
| 61>   H                    : 1.048376             -0.965579            3.642560
| 62>   H                    : 2.449839             0.542115             3.497208
| 63>   H                    : 1.264994             1.720495             4.343686
| 64>   H                    : 2.275467             0.636369             5.293535
| 65>   C                      -0.478926            -1.224034            7.517796
| 66>   O                      -0.887550            -0.137277            6.675063
| 67>   H                      -0.301585            -0.075655            5.910543
| 68>   H                      -1.273776            -1.963109            7.510648
| 69>   H                      0.407688             -1.674293            7.115746
| 70>   H                      -0.179908            -0.907772            8.530023
| 71> *
| 72>
| 73>                          ****END OF INPUT****
 Total Charge           Charge          ....    0
 Multiplicity           Mult            ....    1
 Number of Electrons    NEL             ....   36
Dispersion correction           -0.001847011
FINAL SINGLE POINT ENERGY      -231.474428767044
Dispersion correction           -0.000235125
FINAL SINGLE POINT ENERGY      -115.732816416433

CARTESIAN COORDINATES (ANGSTROEM)
---------------------------------
  C      1.734911    0.716800    4.327203
  O      0.791648   -0.304132    4.276472
  H      1.048376   -0.965579    3.642560
  H      2.449839    0.542115    3.497208
  H      1.264994    1.720495    4.343686
  H      2.275467    0.636369    5.293535
  C     -0.478926   -1.224034    7.517796
  O     -0.887550   -0.137277    6.675063
  H     -0.301585   -0.075655    5.910543
  H     -1.273776   -1.963109    7.510648
  H      0.407688   -1.674293    7.115746
  H     -0.179908   -0.907772    8.530023

 Multiplicity           Mult            ....    1
 Number of Electrons    NEL             ....   18
 Basis Dimension        Dim             ....  172

ORBITAL ENERGIES
----------------

  NO   OCC          E(Eh)            E(eV)
   0   2.0000     -19.228265      -523.2277
   1   2.0000     -10.313577      -280.6467
   2   2.0000      -1.127151       -30.6713
   3   2.0000      -0.797882       -21.7115
   4   2.0000      -0.609284       -16.5795
   5   2.0000      -0.544307       -14.8114
   6   2.0000      -0.522853       -14.2275
   7   2.0000      -0.429600       -11.6900
   8   2.0000      -0.375311       -10.2127
   9   0.0000       0.067562         1.8385
  10   0.0000       0.136727         3.7205
  11   0.0000       0.152842         4.1590
  12   0.0000       0.158273         4.3068
  13   0.0000       0.187553         5.1036

MULLIKEN ATOMIC CHARGES
-----------------------
   0 C :   -0.005042
   1 O :   -0.003449
   2 H :   -0.000222
   3 H :   -0.000191
   4 H :    0.000741
   5 H :   -0.000220
   6 C :   -0.151422
   7 O :   -0.481203
   8 H :    0.316066
   9 H :    0.113990
  10 H :    0.104014
  11 H :    0.106939
Sum of atomic charges:    0.0000000

LOEWDIN ATOMIC CHARGES
----------------------
   0 C :   -0.007113
   1 O :   -0.017337
   2 H :   -0.000784
   3 H :   -0.000158
   4 H :   -0.000433
   5 H :   -0.000875
   6 C :   -0.361214
   7 O :   -0.085880
   8 H :    0.178076
   9 H :    0.100221
  10 H :    0.093137
  11 H :    0.102361

  Mayer bond orders larger than 0.1
B(  6-C ,  7-O ) :   0.9875 B(  6-C ,  9-H ) :   0.9802 B(  6-C , 10-H ) :   0.9848
B(  6-C , 11-H ) :   0.9703 B(  7-O ,  8-H ) :   0.9077

Dispersion correction           -0.000250938
FINAL SINGLE POINT ENERGY      -115.733986387066

DIPOLE MOMENT
-------------
                                X             Y             Z
Electronic contribution:     -0.65452       1.37766      -0.90322
Nuclear contribution   :      1.22831      -1.80264       0.74973
                        -----------------------------------------
Total Dipole Moment    :      0.57379      -0.42498      -0.15349
                        -----------------------------------------
Magnitude (a.u.)       :      0.73034
Magnitude (Debye)      :      1.85638

Rotational constants in cm-1:     4.332316     0.808551     0.788552
Rotational constants in MHz : 129879.562664 24239.749045 23640.206746

                             ****ORCA TERMINATED NORMALLY****
TOTAL RUN TIME: 0 days 0 hours 1 minutes 9 seconds 774 msec
