                         Program Version 4.1.2  - RELEASE  -
|  1> #Run DFT-D3 single point of the dimer
|  2> ! wB97X-D3 def2-TZVP TIGHTSCF CHELPG PMODEL PAL8
|  3>
|  4> %base "14-60_DFT_AB"
|  5>
|  6> %scf
|  7> MaxIter 1000
|  8> end
|  9>
| 10> * xyz 0 1
| 11>   C                      4.463888             10.329483            8.452455
| 12>   O                      5.053410             11.626280            8.445353
| 13>   H                      5.107064             11.999492            9.351809
| 14>   H                      3.465351             10.341592            8.955897
| 15>   H                      4.478914             10.000706            7.463618
| 16>   H                      5.187701             9.732460             8.978266
| 17>   C                      1.659542             8.064693             6.619045
| 18>   O                      1.285036             6.716515             6.451179
| 19>   H                      1.421251             6.185337             7.233705
| 20>   H                      1.064452             8.608270             7.410314
| 21>   H                      2.687417             8.150073             6.816097
| 22>   H                      1.495110             8.473051             5.686269
| 23> *
| 24>
| 25> #Run DFT-D3 single point of the molecule with dimer basis set
| 26> $new_job
| 27> %base "14-60_DFT_A"
| 28> ! wB97X-D3 def2-TZVP TIGHTSCF CHELPG PMODEL
| 29>
| 30> %scf
| 31> MaxIter 1000
| 32> end
| 33>
| 34> * xyz 0 1
| 35>   C                      4.463888             10.329483            8.452455
| 36>   O                      5.053410             11.626280            8.445353
| 37>   H                      5.107064             11.999492            9.351809
| 38>   H                      3.465351             10.341592            8.955897
| 39>   H                      4.478914             10.000706            7.463618
| 40>   H                      5.187701             9.732460             8.978266
| 41>   C                    : 1.659542             8.064693             6.619045
| 42>   O                    : 1.285036             6.716515             6.451179
| 43>   H                    : 1.421251             6.185337             7.233705
| 44>   H                    : 1.064452             8.608270             7.410314
| 45>   H                    : 2.687417             8.150073             6.816097
| 46>   H                    : 1.495110             8.473051             5.686269
| 47> *
| 48>
| 49> #Run DFT-D3 single point of the particle with dimer basis set
| 50> $new_job
| 51> %base "14-60_DFT_B"
| 52> ! wB97X-D3 def2-TZVP TIGHTSCF CHELPG PMODEL
| 53>
| 54> %scf
| 55> MaxIter 1000
| 56> end
| 57>
| 58> * xyz 0 1
| 59>   C                    : 4.463888             10.329483            8.452455
| 60>   O                    : 5.053410             11.626280            8.445353
| 61>   H                    : 5.107064             11.999492            9.351809
| 62>   H                    : 3.465351             10.341592            8.955897
| 63>   H                    : 4.478914             10.000706            7.463618
| 64>   H                    : 5.187701             9.732460             8.978266
| 65>   C                      1.659542             8.064693             6.619045
| 66>   O                      1.285036             6.716515             6.451179
| 67>   H                      1.421251             6.185337             7.233705
| 68>   H                      1.064452             8.608270             7.410314
| 69>   H                      2.687417             8.150073             6.816097
| 70>   H                      1.495110             8.473051             5.686269
| 71> *
| 72>
| 73>                          ****END OF INPUT****
 Total Charge           Charge          ....    0
 Multiplicity           Mult            ....    1
 Number of Electrons    NEL             ....   36
Dispersion correction           -0.001267259
FINAL SINGLE POINT ENERGY      -231.463205390108
Dispersion correction           -0.000225182
FINAL SINGLE POINT ENERGY      -115.730650921408

CARTESIAN COORDINATES (ANGSTROEM)
---------------------------------
  C      4.463888   10.329483    8.452455
  O      5.053410   11.626280    8.445353
  H      5.107064   11.999492    9.351809
  H      3.465351   10.341592    8.955897
  H      4.478914   10.000706    7.463618
  H      5.187701    9.732460    8.978266
  C      1.659542    8.064693    6.619045
  O      1.285036    6.716515    6.451179
  H      1.421251    6.185337    7.233705
  H      1.064452    8.608270    7.410314
  H      2.687417    8.150073    6.816097
  H      1.495110    8.473051    5.686269

 Multiplicity           Mult            ....    1
 Number of Electrons    NEL             ....   18
 Basis Dimension        Dim             ....  172

ORBITAL ENERGIES
----------------

  NO   OCC          E(Eh)            E(eV)
   0   2.0000     -19.225362      -523.1487
   1   2.0000     -10.304073      -280.3881
   2   2.0000      -1.133806       -30.8524
   3   2.0000      -0.804112       -21.8810
   4   2.0000      -0.612827       -16.6759
   5   2.0000      -0.543063       -14.7775
   6   2.0000      -0.530896       -14.4464
   7   2.0000      -0.430507       -11.7147
   8   2.0000      -0.373122       -10.1532
   9   0.0000       0.082897         2.2558
  10   0.0000       0.119387         3.2487
  11   0.0000       0.146838         3.9957
  12   0.0000       0.173292         4.7155
  13   0.0000       0.192065         5.2264

MULLIKEN ATOMIC CHARGES
-----------------------
   0 C :    0.000090
   1 O :   -0.000066
   2 H :   -0.000009
   3 H :   -0.000602
   4 H :   -0.001560
   5 H :   -0.000170
   6 C :   -0.133032
   7 O :   -0.490472
   8 H :    0.312207
   9 H :    0.091338
  10 H :    0.103180
  11 H :    0.119096
Sum of atomic charges:   -0.0000000

LOEWDIN ATOMIC CHARGES
----------------------
   0 C :   -0.003312
   1 O :   -0.000013
   2 H :   -0.000008
   3 H :   -0.000577
   4 H :   -0.002232
   5 H :   -0.000056
   6 C :   -0.371870
   7 O :   -0.071397
   8 H :    0.161217
   9 H :    0.102133
  10 H :    0.088103
  11 H :    0.098012

  Mayer bond orders larger than 0.1
B(  6-C ,  7-O ) :   0.9953 B(  6-C ,  9-H ) :   0.9733 B(  6-C , 10-H ) :   0.9818
B(  6-C , 11-H ) :   0.9738 B(  7-O ,  8-H ) :   0.8993

Dispersion correction           -0.000243261
FINAL SINGLE POINT ENERGY      -115.732114487023

DIPOLE MOMENT
-------------
                                X             Y             Z
Electronic contribution:     -0.46337      -1.62543      -0.31627
Nuclear contribution   :      0.72361       1.82602       0.86264
                        -----------------------------------------
Total Dipole Moment    :      0.26024       0.20058       0.54637
                        -----------------------------------------
Magnitude (a.u.)       :      0.63756
Magnitude (Debye)      :      1.62054

Rotational constants in cm-1:     4.469659     0.836910     0.813202
Rotational constants in MHz : 133997.009106 25089.932974 24379.187945

                             ****ORCA TERMINATED NORMALLY****
TOTAL RUN TIME: 0 days 0 hours 0 minutes 55 seconds 449 msec
