                         Program Version 4.1.2  - RELEASE  -
|  1> #Run DFT-D3 single point of the dimer
|  2> ! wB97X-D3 def2-TZVP TIGHTSCF CHELPG PMODEL PAL8
|  3>
|  4> %base "13-54_DFT_AB"
|  5>
|  6> %scf
|  7> MaxIter 1000
|  8> end
|  9>
| 10> * xyz 0 1
| 11>   C                      -2.615448            -10.755304           2.628873
| 12>   O                      -2.908532            -9.997534            1.453146
| 13>   H                      -3.393054            -10.558160           0.797230
| 14>   H                      -3.465573            -11.407798           2.994486
| 15>   H                      -1.643496            -11.228046           2.392343
| 16>   H                      -2.479222            -10.048655           3.452952
| 17>   C                      -0.871917            -9.728636            6.308521
| 18>   O                      -0.901668            -11.149804           6.117105
| 19>   H                      -0.155577            -11.415726           5.595408
| 20>   H                      0.147512             -9.421256            6.673948
| 21>   H                      -1.121014            -9.209050            5.312621
| 22>   H                      -1.619780            -9.423061            7.095162
| 23> *
| 24>
| 25> #Run DFT-D3 single point of the molecule with dimer basis set
| 26> $new_job
| 27> %base "13-54_DFT_A"
| 28> ! wB97X-D3 def2-TZVP TIGHTSCF CHELPG PMODEL
| 29>
| 30> %scf
| 31> MaxIter 1000
| 32> end
| 33>
| 34> * xyz 0 1
| 35>   C                      -2.615448            -10.755304           2.628873
| 36>   O                      -2.908532            -9.997534            1.453146
| 37>   H                      -3.393054            -10.558160           0.797230
| 38>   H                      -3.465573            -11.407798           2.994486
| 39>   H                      -1.643496            -11.228046           2.392343
| 40>   H                      -2.479222            -10.048655           3.452952
| 41>   C                    : -0.871917            -9.728636            6.308521
| 42>   O                    : -0.901668            -11.149804           6.117105
| 43>   H                    : -0.155577            -11.415726           5.595408
| 44>   H                    : 0.147512             -9.421256            6.673948
| 45>   H                    : -1.121014            -9.209050            5.312621
| 46>   H                    : -1.619780            -9.423061            7.095162
| 47> *
| 48>
| 49> #Run DFT-D3 single point of the particle with dimer basis set
| 50> $new_job
| 51> %base "13-54_DFT_B"
| 52> ! wB97X-D3 def2-TZVP TIGHTSCF CHELPG PMODEL
| 53>
| 54> %scf
| 55> MaxIter 1000
| 56> end
| 57>
| 58> * xyz 0 1
| 59>   C                    : -2.615448            -10.755304           2.628873
| 60>   O                    : -2.908532            -9.997534            1.453146
| 61>   H                    : -3.393054            -10.558160           0.797230
| 62>   H                    : -3.465573            -11.407798           2.994486
| 63>   H                    : -1.643496            -11.228046           2.392343
| 64>   H                    : -2.479222            -10.048655           3.452952
| 65>   C                      -0.871917            -9.728636            6.308521
| 66>   O                      -0.901668            -11.149804           6.117105
| 67>   H                      -0.155577            -11.415726           5.595408
| 68>   H                      0.147512             -9.421256            6.673948
| 69>   H                      -1.121014            -9.209050            5.312621
| 70>   H                      -1.619780            -9.423061            7.095162
| 71> *
| 72>
| 73>                          ****END OF INPUT****
 Total Charge           Charge          ....    0
 Multiplicity           Mult            ....    1
 Number of Electrons    NEL             ....   36
Dispersion correction           -0.001482259
FINAL SINGLE POINT ENERGY      -231.465257938551
Dispersion correction           -0.000258058
FINAL SINGLE POINT ENERGY      -115.730482530899

CARTESIAN COORDINATES (ANGSTROEM)
---------------------------------
  C     -2.615448  -10.755304    2.628873
  O     -2.908532   -9.997534    1.453146
  H     -3.393054  -10.558160    0.797230
  H     -3.465573  -11.407798    2.994486
  H     -1.643496  -11.228046    2.392343
  H     -2.479222  -10.048655    3.452952
  C     -0.871917   -9.728636    6.308521
  O     -0.901668  -11.149804    6.117105
  H     -0.155577  -11.415726    5.595408
  H      0.147512   -9.421256    6.673948
  H     -1.121014   -9.209050    5.312621
  H     -1.619780   -9.423061    7.095162

 Multiplicity           Mult            ....    1
 Number of Electrons    NEL             ....   18
 Basis Dimension        Dim             ....  172

ORBITAL ENERGIES
----------------

  NO   OCC          E(Eh)            E(eV)
   0   2.0000     -19.228733      -523.2404
   1   2.0000     -10.329079      -281.0685
   2   2.0000      -1.132028       -30.8041
   3   2.0000      -0.788395       -21.4533
   4   2.0000      -0.604322       -16.4444
   5   2.0000      -0.536102       -14.5881
   6   2.0000      -0.524378       -14.2690
   7   2.0000      -0.430161       -11.7053
   8   2.0000      -0.373241       -10.1564
   9   0.0000       0.085764         2.3338
  10   0.0000       0.121738         3.3127
  11   0.0000       0.148128         4.0308
  12   0.0000       0.173730         4.7274
  13   0.0000       0.191488         5.2107

MULLIKEN ATOMIC CHARGES
-----------------------
   0 C :   -0.004029
   1 O :    0.000023
   2 H :   -0.000006
   3 H :   -0.000066
   4 H :   -0.000733
   5 H :    0.004200
   6 C :   -0.167958
   7 O :   -0.477489
   8 H :    0.314476
   9 H :    0.106679
  10 H :    0.099032
  11 H :    0.125871
Sum of atomic charges:    0.0000000

LOEWDIN ATOMIC CHARGES
----------------------
   0 C :   -0.003629
   1 O :   -0.000033
   2 H :   -0.000015
   3 H :   -0.000172
   4 H :   -0.000412
   5 H :   -0.002897
   6 C :   -0.380453
   7 O :   -0.088890
   8 H :    0.158672
   9 H :    0.098923
  10 H :    0.104179
  11 H :    0.114727

  Mayer bond orders larger than 0.1
B(  6-C ,  7-O ) :   0.9902 B(  6-C ,  9-H ) :   0.9786 B(  6-C , 10-H ) :   0.9717
B(  6-C , 11-H ) :   0.9698 B(  7-O ,  8-H ) :   0.8998

Dispersion correction           -0.000259935
FINAL SINGLE POINT ENERGY      -115.733376991840

DIPOLE MOMENT
-------------
                                X             Y             Z
Electronic contribution:     -0.16608      -1.80473      -0.13089
Nuclear contribution   :      0.66110       2.19789      -0.09925
                        -----------------------------------------
Total Dipole Moment    :      0.49502       0.39316      -0.23014
                        -----------------------------------------
Magnitude (a.u.)       :      0.67274
Magnitude (Debye)      :      1.70996

Rotational constants in cm-1:     4.031632     0.804398     0.781360
Rotational constants in MHz : 120865.283585 24115.233344 23424.585819

                             ****ORCA TERMINATED NORMALLY****
TOTAL RUN TIME: 0 days 0 hours 1 minutes 6 seconds 629 msec
