                         Program Version 4.1.2  - RELEASE  -
|  1> #Run DFT-D3 single point of the dimer
|  2> ! wB97X-D3 def2-TZVP TIGHTSCF CHELPG PMODEL PAL8
|  3>
|  4> %base "20-147_DFT_AB"
|  5>
|  6> %scf
|  7> MaxIter 1000
|  8> end
|  9>
| 10> * xyz 0 1
| 11>   C                      -10.815946           -7.357765            -5.832672
| 12>   O                      -9.807173            -7.012819            -6.767564
| 13>   H                      -9.051649            -7.493465            -6.453725
| 14>   H                      -10.896860           -6.794769            -4.900034
| 15>   H                      -11.811929           -7.242348            -6.181496
| 16>   H                      -10.662162           -8.393658            -5.525683
| 17>   C                      -9.795031            -4.853311            -9.500963
| 18>   O                      -9.760380            -6.233288            -9.695946
| 19>   H                      -10.191948           -6.610613            -8.937936
| 20>   H                      -10.033155           -4.508786            -10.497452
| 21>   H                      -10.453588           -4.514258            -8.701359
| 22>   H                      -8.824919            -4.440529            -9.243631
| 23> *
| 24>
| 25> #Run DFT-D3 single point of the molecule with dimer basis set
| 26> $new_job
| 27> %base "20-147_DFT_A"
| 28> ! wB97X-D3 def2-TZVP TIGHTSCF CHELPG PMODEL
| 29>
| 30> %scf
| 31> MaxIter 1000
| 32> end
| 33>
| 34> * xyz 0 1
| 35>   C                      -10.815946           -7.357765            -5.832672
| 36>   O                      -9.807173            -7.012819            -6.767564
| 37>   H                      -9.051649            -7.493465            -6.453725
| 38>   H                      -10.896860           -6.794769            -4.900034
| 39>   H                      -11.811929           -7.242348            -6.181496
| 40>   H                      -10.662162           -8.393658            -5.525683
| 41>   C                    : -9.795031            -4.853311            -9.500963
| 42>   O                    : -9.760380            -6.233288            -9.695946
| 43>   H                    : -10.191948           -6.610613            -8.937936
| 44>   H                    : -10.033155           -4.508786            -10.497452
| 45>   H                    : -10.453588           -4.514258            -8.701359
| 46>   H                    : -8.824919            -4.440529            -9.243631
| 47> *
| 48>
| 49> #Run DFT-D3 single point of the particle with dimer basis set
| 50> $new_job
| 51> %base "20-147_DFT_B"
| 52> ! wB97X-D3 def2-TZVP TIGHTSCF CHELPG PMODEL
| 53>
| 54> %scf
| 55> MaxIter 1000
| 56> end
| 57>
| 58> * xyz 0 1
| 59>   C                    : -10.815946           -7.357765            -5.832672
| 60>   O                    : -9.807173            -7.012819            -6.767564
| 61>   H                    : -9.051649            -7.493465            -6.453725
| 62>   H                    : -10.896860           -6.794769            -4.900034
| 63>   H                    : -11.811929           -7.242348            -6.181496
| 64>   H                    : -10.662162           -8.393658            -5.525683
| 65>   C                      -9.795031            -4.853311            -9.500963
| 66>   O                      -9.760380            -6.233288            -9.695946
| 67>   H                      -10.191948           -6.610613            -8.937936
| 68>   H                      -10.033155           -4.508786            -10.497452
| 69>   H                      -10.453588           -4.514258            -8.701359
| 70>   H                      -8.824919            -4.440529            -9.243631
| 71> *
| 72>
| 73>                          ****END OF INPUT****
 Total Charge           Charge          ....    0
 Multiplicity           Mult            ....    1
 Number of Electrons    NEL             ....   36
Dispersion correction           -0.001650400
FINAL SINGLE POINT ENERGY      -231.468095132990
Dispersion correction           -0.000244826
FINAL SINGLE POINT ENERGY      -115.730432175527

CARTESIAN COORDINATES (ANGSTROEM)
---------------------------------
  C    -10.815946   -7.357765   -5.832672
  O     -9.807173   -7.012819   -6.767564
  H     -9.051649   -7.493465   -6.453725
  H    -10.896860   -6.794769   -4.900034
  H    -11.811929   -7.242348   -6.181496
  H    -10.662162   -8.393658   -5.525683
  C     -9.795031   -4.853311   -9.500963
  O     -9.760380   -6.233288   -9.695946
  H    -10.191948   -6.610613   -8.937936
  H    -10.033155   -4.508786  -10.497452
  H    -10.453588   -4.514258   -8.701359
  H     -8.824919   -4.440529   -9.243631

 Multiplicity           Mult            ....    1
 Number of Electrons    NEL             ....   18
 Basis Dimension        Dim             ....  172

ORBITAL ENERGIES
----------------

  NO   OCC          E(Eh)            E(eV)
   0   2.0000     -19.229000      -523.2477
   1   2.0000     -10.307777      -280.4889
   2   2.0000      -1.146364       -31.1941
   3   2.0000      -0.795949       -21.6589
   4   2.0000      -0.621880       -16.9222
   5   2.0000      -0.539156       -14.6712
   6   2.0000      -0.527407       -14.3515
   7   2.0000      -0.443374       -12.0648
   8   2.0000      -0.368953       -10.0397
   9   0.0000       0.068850         1.8735
  10   0.0000       0.129418         3.5216
  11   0.0000       0.155153         4.2219
  12   0.0000       0.161286         4.3888
  13   0.0000       0.192945         5.2503

MULLIKEN ATOMIC CHARGES
-----------------------
   0 C :   -0.001813
   1 O :   -0.004349
   2 H :   -0.000844
   3 H :    0.000018
   4 H :   -0.000057
   5 H :    0.000089
   6 C :   -0.163326
   7 O :   -0.459806
   8 H :    0.312743
   9 H :    0.114929
  10 H :    0.106408
  11 H :    0.096009
Sum of atomic charges:    0.0000000

LOEWDIN ATOMIC CHARGES
----------------------
   0 C :   -0.001651
   1 O :   -0.011083
   2 H :   -0.001143
   3 H :   -0.000027
   4 H :   -0.000153
   5 H :   -0.000022
   6 C :   -0.397688
   7 O :   -0.049713
   8 H :    0.165663
   9 H :    0.105552
  10 H :    0.096644
  11 H :    0.093621

  Mayer bond orders larger than 0.1
B(  6-C ,  7-O ) :   0.9951 B(  6-C ,  9-H ) :   0.9881 B(  6-C , 10-H ) :   0.9805
B(  6-C , 11-H ) :   0.9720 B(  7-O ,  8-H ) :   0.9082

Dispersion correction           -0.000228004
FINAL SINGLE POINT ENERGY      -115.731593630926

DIPOLE MOMENT
-------------
                                X             Y             Z
Electronic contribution:      0.03783      -1.75256      -0.31498
Nuclear contribution   :     -0.32982       2.03380       0.87494
                        -----------------------------------------
Total Dipole Moment    :     -0.29199       0.28124       0.55996
                        -----------------------------------------
Magnitude (a.u.)       :      0.69131
Magnitude (Debye)      :      1.75718

Rotational constants in cm-1:     4.317033     0.866517     0.824035
Rotational constants in MHz : 129421.381597 25977.522794 24703.938591

                             ****ORCA TERMINATED NORMALLY****
TOTAL RUN TIME: 0 days 0 hours 1 minutes 6 seconds 611 msec
