                         Program Version 4.1.2  - RELEASE  -
|  1> #Run DFT-D3 single point of the dimer
|  2> ! wB97X-D3 def2-TZVP TIGHTSCF CHELPG PMODEL PAL8
|  3>
|  4> %base "15-205_DFT_AB"
|  5>
|  6> %scf
|  7> MaxIter 1000
|  8> end
|  9>
| 10> * xyz 0 1
| 11>   C                      -9.116785            -10.529664           3.622843
| 12>   O                      -9.172273            -11.566663           4.534592
| 13>   H                      -9.388922            -11.088376           5.359630
| 14>   H                      -10.125791           -10.028202           3.430888
| 15>   H                      -8.407909            -9.813858            3.978789
| 16>   H                      -8.726457            -10.831544           2.693220
| 17>   C                      -10.115336           -9.962653            7.892501
| 18>   O                      -10.550402           -10.249533           6.554550
| 19>   H                      -11.498959           -10.343096           6.567028
| 20>   H                      -10.584167           -9.103896            8.312980
| 21>   H                      -10.367627           -10.756341           8.635410
| 22>   H                      -9.030777            -9.871222            7.854316
| 23> *
| 24>
| 25> #Run DFT-D3 single point of the molecule with dimer basis set
| 26> $new_job
| 27> %base "15-205_DFT_A"
| 28> ! wB97X-D3 def2-TZVP TIGHTSCF CHELPG PMODEL
| 29>
| 30> %scf
| 31> MaxIter 1000
| 32> end
| 33>
| 34> * xyz 0 1
| 35>   C                      -9.116785            -10.529664           3.622843
| 36>   O                      -9.172273            -11.566663           4.534592
| 37>   H                      -9.388922            -11.088376           5.359630
| 38>   H                      -10.125791           -10.028202           3.430888
| 39>   H                      -8.407909            -9.813858            3.978789
| 40>   H                      -8.726457            -10.831544           2.693220
| 41>   C                    : -10.115336           -9.962653            7.892501
| 42>   O                    : -10.550402           -10.249533           6.554550
| 43>   H                    : -11.498959           -10.343096           6.567028
| 44>   H                    : -10.584167           -9.103896            8.312980
| 45>   H                    : -10.367627           -10.756341           8.635410
| 46>   H                    : -9.030777            -9.871222            7.854316
| 47> *
| 48>
| 49> #Run DFT-D3 single point of the particle with dimer basis set
| 50> $new_job
| 51> %base "15-205_DFT_B"
| 52> ! wB97X-D3 def2-TZVP TIGHTSCF CHELPG PMODEL
| 53>
| 54> %scf
| 55> MaxIter 1000
| 56> end
| 57>
| 58> * xyz 0 1
| 59>   C                    : -9.116785            -10.529664           3.622843
| 60>   O                    : -9.172273            -11.566663           4.534592
| 61>   H                    : -9.388922            -11.088376           5.359630
| 62>   H                    : -10.125791           -10.028202           3.430888
| 63>   H                    : -8.407909            -9.813858            3.978789
| 64>   H                    : -8.726457            -10.831544           2.693220
| 65>   C                      -10.115336           -9.962653            7.892501
| 66>   O                      -10.550402           -10.249533           6.554550
| 67>   H                      -11.498959           -10.343096           6.567028
| 68>   H                      -10.584167           -9.103896            8.312980
| 69>   H                      -10.367627           -10.756341           8.635410
| 70>   H                      -9.030777            -9.871222            7.854316
| 71> *
| 72>
| 73>                          ****END OF INPUT****
 Total Charge           Charge          ....    0
 Multiplicity           Mult            ....    1
 Number of Electrons    NEL             ....   36
Dispersion correction           -0.001801186
FINAL SINGLE POINT ENERGY      -231.474231247103
Dispersion correction           -0.000210808
FINAL SINGLE POINT ENERGY      -115.731004117976

CARTESIAN COORDINATES (ANGSTROEM)
---------------------------------
  C     -9.116785  -10.529664    3.622843
  O     -9.172273  -11.566663    4.534592
  H     -9.388922  -11.088376    5.359630
  H    -10.125791  -10.028202    3.430888
  H     -8.407909   -9.813858    3.978789
  H     -8.726457  -10.831544    2.693220
  C    -10.115336   -9.962653    7.892501
  O    -10.550402  -10.249533    6.554550
  H    -11.498959  -10.343096    6.567028
  H    -10.584167   -9.103896    8.312980
  H    -10.367627  -10.756341    8.635410
  H     -9.030777   -9.871222    7.854316

 Multiplicity           Mult            ....    1
 Number of Electrons    NEL             ....   18
 Basis Dimension        Dim             ....  172

ORBITAL ENERGIES
----------------

  NO   OCC          E(Eh)            E(eV)
   0   2.0000     -19.231761      -523.3228
   1   2.0000     -10.313970      -280.6574
   2   2.0000      -1.132040       -30.8044
   3   2.0000      -0.799042       -21.7430
   4   2.0000      -0.614494       -16.7212
   5   2.0000      -0.533821       -14.5260
   6   2.0000      -0.522692       -14.2232
   7   2.0000      -0.443315       -12.0632
   8   2.0000      -0.374290       -10.1850
   9   0.0000       0.100964         2.7474
  10   0.0000       0.128306         3.4914
  11   0.0000       0.151933         4.1343
  12   0.0000       0.186248         5.0681
  13   0.0000       0.204782         5.5724

MULLIKEN ATOMIC CHARGES
-----------------------
   0 C :    0.005353
   1 O :    0.002116
   2 H :   -0.012546
   3 H :   -0.003326
   4 H :   -0.002136
   5 H :   -0.000305
   6 C :   -0.167591
   7 O :   -0.466374
   8 H :    0.308752
   9 H :    0.108664
  10 H :    0.099899
  11 H :    0.127494
Sum of atomic charges:   -0.0000000

LOEWDIN ATOMIC CHARGES
----------------------
   0 C :   -0.007982
   1 O :   -0.007604
   2 H :   -0.046829
   3 H :   -0.001601
   4 H :   -0.000564
   5 H :   -0.000101
   6 C :   -0.364888
   7 O :   -0.031547
   8 H :    0.161744
   9 H :    0.089796
  10 H :    0.098487
  11 H :    0.111089

  Mayer bond orders larger than 0.1
B(  6-C ,  7-O ) :   0.9901 B(  6-C ,  9-H ) :   0.9707 B(  6-C , 10-H ) :   0.9700
B(  6-C , 11-H ) :   0.9781 B(  7-O ,  8-H ) :   0.9014

Dispersion correction           -0.000251635
FINAL SINGLE POINT ENERGY      -115.735496791381

DIPOLE MOMENT
-------------
                                X             Y             Z
Electronic contribution:     -0.40676      -0.27773      -1.76908
Nuclear contribution   :     -0.02421       0.35187       2.33296
                        -----------------------------------------
Total Dipole Moment    :     -0.43097       0.07414       0.56389
                        -----------------------------------------
Magnitude (a.u.)       :      0.71358
Magnitude (Debye)      :      1.81378

Rotational constants in cm-1:     4.353100     0.813645     0.777333
Rotational constants in MHz : 130502.657221 24392.465686 23303.850552

                             ****ORCA TERMINATED NORMALLY****
TOTAL RUN TIME: 0 days 0 hours 1 minutes 4 seconds 682 msec
