                         Program Version 4.1.2  - RELEASE  -
|  1> #Run DFT-D3 single point of the dimer
|  2> ! wB97X-D3 def2-TZVP TIGHTSCF  CHELPG PAL8
|  3>
|  4> %base "41_charges"
|  5>
|  6> %scf
|  7> MaxIter 1000
|  8> end
|  9> %output
| 10>   Print[ P_Mayer ] 1
| 11>   Print[ P_NatPop ] 1
| 12>   Print[ P_Hirshfeld ] 1
| 13>   Print[ P_Mulliken ] 1
| 14>   Print [ P_Loewdin ] 1
| 15> end
| 16>
| 17> * xyz 0 1
| 18>   C                      -5.980714            -2.708293            4.643115
| 19>   O                      -6.313674            -1.414181            4.987013
| 20>   H                      -7.067591            -1.469599            5.564559
| 21>   H                      -5.583667            -3.296072            5.487559
| 22>   H                      -6.869678            -3.353969            4.374738
| 23>   H                      -5.224844            -2.773486            3.858224
| 24> *
| 25>
| 26>                          ****END OF INPUT****

CARTESIAN COORDINATES (ANGSTROEM)
---------------------------------
  C     -5.980714   -2.708293    4.643115
  O     -6.313674   -1.414181    4.987013
  H     -7.067591   -1.469599    5.564559
  H     -5.583667   -3.296072    5.487559
  H     -6.869678   -3.353969    4.374738
  H     -5.224844   -2.773486    3.858224

 Total Charge           Charge          ....    0
 Multiplicity           Mult            ....    1
 Number of Electrons    NEL             ....   18
 Basis Dimension        Dim             ....   86

ORBITAL ENERGIES
----------------

  NO   OCC          E(Eh)            E(eV)
   0   2.0000     -19.234002      -523.3838
   1   2.0000     -10.315131      -280.6890
   2   2.0000      -1.152109       -31.3505
   3   2.0000      -0.793329       -21.5876
   4   2.0000      -0.623364       -16.9626
   5   2.0000      -0.537532       -14.6270
   6   2.0000      -0.531855       -14.4725
   7   2.0000      -0.438693       -11.9374
   8   2.0000      -0.368775       -10.0349
   9   0.0000       0.114172         3.1068
  10   0.0000       0.154542         4.2053
  11   0.0000       0.200627         5.4593
  12   0.0000       0.206742         5.6257
  13   0.0000       0.232684         6.3316

MULLIKEN ATOMIC CHARGES
-----------------------
   0 C :   -0.172106
   1 O :   -0.454397
   2 H :    0.316998
   3 H :    0.095207
   4 H :    0.094775
   5 H :    0.119524
Sum of atomic charges:   -0.0000000

LOEWDIN ATOMIC CHARGES
----------------------
   0 C :   -0.422867
   1 O :   -0.043215
   2 H :    0.169879
   3 H :    0.091810
   4 H :    0.097938
   5 H :    0.106454

  Mayer bond orders larger than 0.1
B(  0-C ,  1-O ) :   1.0072 B(  0-C ,  3-H ) :   0.9734 B(  0-C ,  4-H ) :   0.9779
B(  0-C ,  5-H ) :   0.9730 B(  1-O ,  2-H ) :   0.8986

Dispersion correction           -0.000235311
FINAL SINGLE POINT ENERGY      -115.733074022118

DIPOLE MOMENT
-------------
                                X             Y             Z
Electronic contribution:     -0.29855       1.95972       0.30332
Nuclear contribution   :     -0.05309      -2.46444      -0.05774
                        -----------------------------------------
Total Dipole Moment    :     -0.35163      -0.50471       0.24558
                        -----------------------------------------
Magnitude (a.u.)       :      0.66234
Magnitude (Debye)      :      1.68353

Rotational constants in cm-1:     4.335851     0.858798     0.816760
Rotational constants in MHz : 129985.543788 25746.130910 24485.853882

                             ****ORCA TERMINATED NORMALLY****
TOTAL RUN TIME: 0 days 0 hours 0 minutes 41 seconds 929 msec
