                         Program Version 4.1.2  - RELEASE  -
|  1> #Run DFT-D3 single point of the dimer
|  2> ! wB97X-D3 def2-TZVP TIGHTSCF CHELPG PMODEL PAL8
|  3>
|  4> %base "16-199_DFT_AB"
|  5>
|  6> %scf
|  7> MaxIter 1000
|  8> end
|  9>
| 10> * xyz 0 1
| 11>   C                      -3.395351            6.784384             -2.825919
| 12>   O                      -2.005420            6.710775             -2.876607
| 13>   H                      -1.705436            7.353029             -3.498786
| 14>   H                      -3.842138            6.211098             -2.027504
| 15>   H                      -3.718787            7.793426             -2.627136
| 16>   H                      -3.854678            6.426844             -3.776562
| 17>   C                      0.274920             3.925468             -3.263197
| 18>   O                      0.237037             4.835659             -4.358688
| 19>   H                      -0.711993            4.816995             -4.566247
| 20>   H                      1.183004             3.952553             -2.643056
| 21>   H                      -0.466177            4.226683             -2.456109
| 22>   H                      -0.052460            2.866320             -3.460820
| 23> *
| 24>
| 25> #Run DFT-D3 single point of the molecule with dimer basis set
| 26> $new_job
| 27> %base "16-199_DFT_A"
| 28> ! wB97X-D3 def2-TZVP TIGHTSCF CHELPG PMODEL
| 29>
| 30> %scf
| 31> MaxIter 1000
| 32> end
| 33>
| 34> * xyz 0 1
| 35>   C                      -3.395351            6.784384             -2.825919
| 36>   O                      -2.005420            6.710775             -2.876607
| 37>   H                      -1.705436            7.353029             -3.498786
| 38>   H                      -3.842138            6.211098             -2.027504
| 39>   H                      -3.718787            7.793426             -2.627136
| 40>   H                      -3.854678            6.426844             -3.776562
| 41>   C                    : 0.274920             3.925468             -3.263197
| 42>   O                    : 0.237037             4.835659             -4.358688
| 43>   H                    : -0.711993            4.816995             -4.566247
| 44>   H                    : 1.183004             3.952553             -2.643056
| 45>   H                    : -0.466177            4.226683             -2.456109
| 46>   H                    : -0.052460            2.866320             -3.460820
| 47> *
| 48>
| 49> #Run DFT-D3 single point of the particle with dimer basis set
| 50> $new_job
| 51> %base "16-199_DFT_B"
| 52> ! wB97X-D3 def2-TZVP TIGHTSCF CHELPG PMODEL
| 53>
| 54> %scf
| 55> MaxIter 1000
| 56> end
| 57>
| 58> * xyz 0 1
| 59>   C                    : -3.395351            6.784384             -2.825919
| 60>   O                    : -2.005420            6.710775             -2.876607
| 61>   H                    : -1.705436            7.353029             -3.498786
| 62>   H                    : -3.842138            6.211098             -2.027504
| 63>   H                    : -3.718787            7.793426             -2.627136
| 64>   H                    : -3.854678            6.426844             -3.776562
| 65>   C                      0.274920             3.925468             -3.263197
| 66>   O                      0.237037             4.835659             -4.358688
| 67>   H                      -0.711993            4.816995             -4.566247
| 68>   H                      1.183004             3.952553             -2.643056
| 69>   H                      -0.466177            4.226683             -2.456109
| 70>   H                      -0.052460            2.866320             -3.460820
| 71> *
| 72>
| 73>                          ****END OF INPUT****
 Total Charge           Charge          ....    0
 Multiplicity           Mult            ....    1
 Number of Electrons    NEL             ....   36
Dispersion correction           -0.001680629
FINAL SINGLE POINT ENERGY      -231.465643485462
Dispersion correction           -0.000228169
FINAL SINGLE POINT ENERGY      -115.735241322943

CARTESIAN COORDINATES (ANGSTROEM)
---------------------------------
  C     -3.395351    6.784384   -2.825919
  O     -2.005420    6.710775   -2.876607
  H     -1.705436    7.353029   -3.498786
  H     -3.842138    6.211098   -2.027504
  H     -3.718787    7.793426   -2.627136
  H     -3.854678    6.426844   -3.776562
  C      0.274920    3.925468   -3.263197
  O      0.237037    4.835659   -4.358688
  H     -0.711993    4.816995   -4.566247
  H      1.183004    3.952553   -2.643056
  H     -0.466177    4.226683   -2.456109
  H     -0.052460    2.866320   -3.460820

 Multiplicity           Mult            ....    1
 Number of Electrons    NEL             ....   18
 Basis Dimension        Dim             ....  172

ORBITAL ENERGIES
----------------

  NO   OCC          E(Eh)            E(eV)
   0   2.0000     -19.241679      -523.5927
   1   2.0000     -10.323793      -280.9247
   2   2.0000      -1.140273       -31.0284
   3   2.0000      -0.790252       -21.5039
   4   2.0000      -0.610427       -16.6106
   5   2.0000      -0.537841       -14.6354
   6   2.0000      -0.522326       -14.2132
   7   2.0000      -0.441293       -12.0082
   8   2.0000      -0.375112       -10.2073
   9   0.0000       0.073493         1.9998
  10   0.0000       0.124584         3.3901
  11   0.0000       0.142022         3.8646
  12   0.0000       0.173809         4.7296
  13   0.0000       0.178824         4.8661

MULLIKEN ATOMIC CHARGES
-----------------------
   0 C :    0.000027
   1 O :   -0.001734
   2 H :   -0.001974
   3 H :   -0.000112
   4 H :   -0.000003
   5 H :   -0.000058
   6 C :   -0.209025
   7 O :   -0.447952
   8 H :    0.320488
   9 H :    0.129589
  10 H :    0.100489
  11 H :    0.110266
Sum of atomic charges:    0.0000000

LOEWDIN ATOMIC CHARGES
----------------------
   0 C :   -0.000683
   1 O :   -0.003910
   2 H :   -0.002083
   3 H :   -0.000057
   4 H :   -0.000011
   5 H :   -0.000062
   6 C :   -0.407238
   7 O :   -0.077639
   8 H :    0.182313
   9 H :    0.109753
  10 H :    0.099939
  11 H :    0.099676

  Mayer bond orders larger than 0.1
B(  6-C ,  7-O ) :   1.0074 B(  6-C ,  9-H ) :   0.9710 B(  6-C , 10-H ) :   0.9771
B(  6-C , 11-H ) :   0.9678 B(  7-O ,  8-H ) :   0.8982

Dispersion correction           -0.000256175
FINAL SINGLE POINT ENERGY      -115.727650201795

DIPOLE MOMENT
-------------
                                X             Y             Z
Electronic contribution:      0.30652       1.22938      -1.67747
Nuclear contribution   :     -0.86969      -1.56705       1.98439
                        -----------------------------------------
Total Dipole Moment    :     -0.56318      -0.33767       0.30692
                        -----------------------------------------
Magnitude (a.u.)       :      0.72484
Magnitude (Debye)      :      1.84239

Rotational constants in cm-1:     4.239298     0.809669     0.777428
Rotational constants in MHz : 127090.961718 24273.264258 23306.690664

                             ****ORCA TERMINATED NORMALLY****
TOTAL RUN TIME: 0 days 0 hours 1 minutes 1 seconds 364 msec
