                         Program Version 4.1.2  - RELEASE  -
|  1> #Run DFT-D3 single point of the dimer
|  2> ! wB97X-D3 def2-TZVP TIGHTSCF CHELPG PMODEL PAL8
|  3>
|  4> %base "22-75_DFT_AB"
|  5>
|  6> %scf
|  7> MaxIter 1000
|  8> end
|  9>
| 10> * xyz 0 1
| 11>   C                      -3.152113            -1.685180            5.511687
| 12>   O                      -3.578452            -2.644021            4.578806
| 13>   H                      -2.831220            -3.224825            4.420491
| 14>   H                      -2.231712            -1.127083            5.128433
| 15>   H                      -3.887088            -1.022022            5.889255
| 16>   H                      -2.718246            -2.180419            6.352590
| 17>   C                      -5.704143            -4.582436            9.340201
| 18>   O                      -6.258970            -4.143728            8.110816
| 19>   H                      -6.607318            -4.873166            7.598088
| 20>   H                      -5.487212            -3.772024            10.044190
| 21>   H                      -6.435321            -5.206368            9.937870
| 22>   H                      -4.824860            -5.154785            9.351215
| 23> *
| 24>
| 25> #Run DFT-D3 single point of the molecule with dimer basis set
| 26> $new_job
| 27> %base "22-75_DFT_A"
| 28> ! wB97X-D3 def2-TZVP TIGHTSCF CHELPG PMODEL
| 29>
| 30> %scf
| 31> MaxIter 1000
| 32> end
| 33>
| 34> * xyz 0 1
| 35>   C                      -3.152113            -1.685180            5.511687
| 36>   O                      -3.578452            -2.644021            4.578806
| 37>   H                      -2.831220            -3.224825            4.420491
| 38>   H                      -2.231712            -1.127083            5.128433
| 39>   H                      -3.887088            -1.022022            5.889255
| 40>   H                      -2.718246            -2.180419            6.352590
| 41>   C                    : -5.704143            -4.582436            9.340201
| 42>   O                    : -6.258970            -4.143728            8.110816
| 43>   H                    : -6.607318            -4.873166            7.598088
| 44>   H                    : -5.487212            -3.772024            10.044190
| 45>   H                    : -6.435321            -5.206368            9.937870
| 46>   H                    : -4.824860            -5.154785            9.351215
| 47> *
| 48>
| 49> #Run DFT-D3 single point of the particle with dimer basis set
| 50> $new_job
| 51> %base "22-75_DFT_B"
| 52> ! wB97X-D3 def2-TZVP TIGHTSCF CHELPG PMODEL
| 53>
| 54> %scf
| 55> MaxIter 1000
| 56> end
| 57>
| 58> * xyz 0 1
| 59>   C                    : -3.152113            -1.685180            5.511687
| 60>   O                    : -3.578452            -2.644021            4.578806
| 61>   H                    : -2.831220            -3.224825            4.420491
| 62>   H                    : -2.231712            -1.127083            5.128433
| 63>   H                    : -3.887088            -1.022022            5.889255
| 64>   H                    : -2.718246            -2.180419            6.352590
| 65>   C                      -5.704143            -4.582436            9.340201
| 66>   O                      -6.258970            -4.143728            8.110816
| 67>   H                      -6.607318            -4.873166            7.598088
| 68>   H                      -5.487212            -3.772024            10.044190
| 69>   H                      -6.435321            -5.206368            9.937870
| 70>   H                      -4.824860            -5.154785            9.351215
| 71> *
| 72>
| 73>                          ****END OF INPUT****
 Total Charge           Charge          ....    0
 Multiplicity           Mult            ....    1
 Number of Electrons    NEL             ....   36
Dispersion correction           -0.000763256
FINAL SINGLE POINT ENERGY      -231.459963722755
Dispersion correction           -0.000223718
FINAL SINGLE POINT ENERGY      -115.729829050906

CARTESIAN COORDINATES (ANGSTROEM)
---------------------------------
  C     -3.152113   -1.685180    5.511687
  O     -3.578452   -2.644021    4.578806
  H     -2.831220   -3.224825    4.420491
  H     -2.231712   -1.127083    5.128433
  H     -3.887088   -1.022022    5.889255
  H     -2.718246   -2.180419    6.352590
  C     -5.704143   -4.582436    9.340201
  O     -6.258970   -4.143728    8.110816
  H     -6.607318   -4.873166    7.598088
  H     -5.487212   -3.772024   10.044190
  H     -6.435321   -5.206368    9.937870
  H     -4.824860   -5.154785    9.351215

 Multiplicity           Mult            ....    1
 Number of Electrons    NEL             ....   18
 Basis Dimension        Dim             ....  172

ORBITAL ENERGIES
----------------

  NO   OCC          E(Eh)            E(eV)
   0   2.0000     -19.234740      -523.4039
   1   2.0000     -10.313516      -280.6450
   2   2.0000      -1.135308       -30.8933
   3   2.0000      -0.802808       -21.8455
   4   2.0000      -0.618165       -16.8211
   5   2.0000      -0.535401       -14.5690
   6   2.0000      -0.527747       -14.3607
   7   2.0000      -0.429096       -11.6763
   8   2.0000      -0.376876       -10.2553
   9   0.0000       0.092022         2.5040
  10   0.0000       0.117969         3.2101
  11   0.0000       0.147119         4.0033
  12   0.0000       0.171791         4.6747
  13   0.0000       0.200902         5.4668

MULLIKEN ATOMIC CHARGES
-----------------------
   0 C :   -0.001293
   1 O :    0.000148
   2 H :    0.000013
   3 H :   -0.000040
   4 H :    0.000127
   5 H :    0.000058
   6 C :   -0.170067
   7 O :   -0.477124
   8 H :    0.320257
   9 H :    0.121587
  10 H :    0.095310
  11 H :    0.111026
Sum of atomic charges:    0.0000000

LOEWDIN ATOMIC CHARGES
----------------------
   0 C :   -0.000582
   1 O :   -0.000022
   2 H :   -0.000007
   3 H :   -0.000024
   4 H :   -0.000057
   5 H :   -0.000081
   6 C :   -0.389227
   7 O :   -0.073410
   8 H :    0.168278
   9 H :    0.110470
  10 H :    0.100896
  11 H :    0.083765

  Mayer bond orders larger than 0.1
B(  6-C ,  7-O ) :   1.0042 B(  6-C ,  9-H ) :   0.9741 B(  6-C , 10-H ) :   0.9827
B(  6-C , 11-H ) :   0.9662 B(  7-O ,  8-H ) :   0.8939

Dispersion correction           -0.000276247
FINAL SINGLE POINT ENERGY      -115.730152552796

DIPOLE MOMENT
-------------
                                X             Y             Z
Electronic contribution:     -0.58790       0.72797      -1.77049
Nuclear contribution   :      0.59442      -1.37337       1.94250
                        -----------------------------------------
Total Dipole Moment    :      0.00653      -0.64540       0.17200
                        -----------------------------------------
Magnitude (a.u.)       :      0.66796
Magnitude (Debye)      :      1.69783

Rotational constants in cm-1:     4.603162     0.805095     0.778420
Rotational constants in MHz : 137999.310145 24136.146802 23336.444868

                             ****ORCA TERMINATED NORMALLY****
TOTAL RUN TIME: 0 days 0 hours 0 minutes 53 seconds 494 msec
