                         Program Version 4.1.2  - RELEASE  -
|  1> #Run DFT-D3 single point of the dimer
|  2> ! wB97X-D3 def2-TZVP TIGHTSCF CHELPG PMODEL PAL8
|  3>
|  4> %base "3-33_DFT_AB"
|  5>
|  6> %scf
|  7> MaxIter 1000
|  8> end
|  9>
| 10> * xyz 0 1
| 11>   C                      -4.983724            -1.861540            -7.037725
| 12>   O                      -5.308556            -0.500746            -6.993364
| 13>   H                      -5.230599            -0.272961            -7.890385
| 14>   H                      -4.141318            -2.148880            -7.659056
| 15>   H                      -4.764248            -2.337265            -6.067641
| 16>   H                      -5.873911            -2.396272            -7.501663
| 17>   C                      -2.163569            -4.260200            -5.067871
| 18>   O                      -2.162828            -4.313775            -6.512630
| 19>   H                      -1.241116            -4.481770            -6.787903
| 20>   H                      -2.978172            -3.697090            -4.729438
| 21>   H                      -2.359270            -5.261161            -4.629483
| 22>   H                      -1.257880            -3.868997            -4.675143
| 23> *
| 24>
| 25> #Run DFT-D3 single point of the molecule with dimer basis set
| 26> $new_job
| 27> %base "3-33_DFT_A"
| 28> ! wB97X-D3 def2-TZVP TIGHTSCF CHELPG PMODEL
| 29>
| 30> %scf
| 31> MaxIter 1000
| 32> end
| 33>
| 34> * xyz 0 1
| 35>   C                      -4.983724            -1.861540            -7.037725
| 36>   O                      -5.308556            -0.500746            -6.993364
| 37>   H                      -5.230599            -0.272961            -7.890385
| 38>   H                      -4.141318            -2.148880            -7.659056
| 39>   H                      -4.764248            -2.337265            -6.067641
| 40>   H                      -5.873911            -2.396272            -7.501663
| 41>   C                    : -2.163569            -4.260200            -5.067871
| 42>   O                    : -2.162828            -4.313775            -6.512630
| 43>   H                    : -1.241116            -4.481770            -6.787903
| 44>   H                    : -2.978172            -3.697090            -4.729438
| 45>   H                    : -2.359270            -5.261161            -4.629483
| 46>   H                    : -1.257880            -3.868997            -4.675143
| 47> *
| 48>
| 49> #Run DFT-D3 single point of the particle with dimer basis set
| 50> $new_job
| 51> %base "3-33_DFT_B"
| 52> ! wB97X-D3 def2-TZVP TIGHTSCF CHELPG PMODEL
| 53>
| 54> %scf
| 55> MaxIter 1000
| 56> end
| 57>
| 58> * xyz 0 1
| 59>   C                    : -4.983724            -1.861540            -7.037725
| 60>   O                    : -5.308556            -0.500746            -6.993364
| 61>   H                    : -5.230599            -0.272961            -7.890385
| 62>   H                    : -4.141318            -2.148880            -7.659056
| 63>   H                    : -4.764248            -2.337265            -6.067641
| 64>   H                    : -5.873911            -2.396272            -7.501663
| 65>   C                      -2.163569            -4.260200            -5.067871
| 66>   O                      -2.162828            -4.313775            -6.512630
| 67>   H                      -1.241116            -4.481770            -6.787903
| 68>   H                      -2.978172            -3.697090            -4.729438
| 69>   H                      -2.359270            -5.261161            -4.629483
| 70>   H                      -1.257880            -3.868997            -4.675143
| 71> *
| 72>
| 73>                          ****END OF INPUT****
 Total Charge           Charge          ....    0
 Multiplicity           Mult            ....    1
 Number of Electrons    NEL             ....   36
Dispersion correction           -0.001436960
FINAL SINGLE POINT ENERGY      -231.464552566883
Dispersion correction           -0.000226256
FINAL SINGLE POINT ENERGY      -115.729607747550

CARTESIAN COORDINATES (ANGSTROEM)
---------------------------------
  C     -4.983724   -1.861540   -7.037725
  O     -5.308556   -0.500746   -6.993364
  H     -5.230599   -0.272961   -7.890385
  H     -4.141318   -2.148880   -7.659056
  H     -4.764248   -2.337265   -6.067641
  H     -5.873911   -2.396272   -7.501663
  C     -2.163569   -4.260200   -5.067871
  O     -2.162828   -4.313775   -6.512630
  H     -1.241116   -4.481770   -6.787903
  H     -2.978172   -3.697090   -4.729438
  H     -2.359270   -5.261161   -4.629483
  H     -1.257880   -3.868997   -4.675143

 Multiplicity           Mult            ....    1
 Number of Electrons    NEL             ....   18
 Basis Dimension        Dim             ....  172

ORBITAL ENERGIES
----------------

  NO   OCC          E(Eh)            E(eV)
   0   2.0000     -19.231955      -523.3281
   1   2.0000     -10.308558      -280.5101
   2   2.0000      -1.124003       -30.5857
   3   2.0000      -0.801422       -21.8078
   4   2.0000      -0.605332       -16.4719
   5   2.0000      -0.536263       -14.5925
   6   2.0000      -0.528793       -14.3892
   7   2.0000      -0.441266       -12.0074
   8   2.0000      -0.373031       -10.1507
   9   0.0000       0.095620         2.6020
  10   0.0000       0.117835         3.2065
  11   0.0000       0.151528         4.1233
  12   0.0000       0.176324         4.7980
  13   0.0000       0.199219         5.4210

MULLIKEN ATOMIC CHARGES
-----------------------
   0 C :    0.001890
   1 O :    0.000013
   2 H :   -0.000002
   3 H :   -0.004583
   4 H :    0.000339
   5 H :   -0.000271
   6 C :   -0.169840
   7 O :   -0.473338
   8 H :    0.313200
   9 H :    0.123143
  10 H :    0.100100
  11 H :    0.109350
Sum of atomic charges:    0.0000000

LOEWDIN ATOMIC CHARGES
----------------------
   0 C :   -0.002547
   1 O :   -0.000020
   2 H :   -0.000002
   3 H :   -0.003014
   4 H :   -0.001649
   5 H :   -0.000030
   6 C :   -0.355165
   7 O :   -0.101133
   8 H :    0.176173
   9 H :    0.096601
  10 H :    0.100444
  11 H :    0.090343

  Mayer bond orders larger than 0.1
B(  6-C ,  7-O ) :   1.0056 B(  6-C ,  9-H ) :   0.9782 B(  6-C , 10-H ) :   0.9771
B(  6-C , 11-H ) :   0.9804 B(  7-O ,  8-H ) :   0.8997

Dispersion correction           -0.000251656
FINAL SINGLE POINT ENERGY      -115.733173395945

DIPOLE MOMENT
-------------
                                X             Y             Z
Electronic contribution:     -0.09261       0.05310      -1.81054
Nuclear contribution   :      0.66896      -0.11986       2.24525
                        -----------------------------------------
Total Dipole Moment    :      0.57635      -0.06676       0.43471
                        -----------------------------------------
Magnitude (a.u.)       :      0.72499
Magnitude (Debye)      :      1.84278

Rotational constants in cm-1:     4.409093     0.804526     0.774814
Rotational constants in MHz : 132181.269078 24119.094459 23228.339773

                             ****ORCA TERMINATED NORMALLY****
TOTAL RUN TIME: 0 days 0 hours 6 minutes 20 seconds 774 msec
