                         Program Version 4.1.2  - RELEASE  -
|  1> #Run DFT-D3 single point of the dimer
|  2> ! wB97X-D3 def2-TZVP TIGHTSCF CHELPG PMODEL PAL8
|  3>
|  4> %base "9-170_DFT_AB"
|  5>
|  6> %scf
|  7> MaxIter 1000
|  8> end
|  9>
| 10> * xyz 0 1
| 11>   C                      10.513409            -2.443197            4.555221
| 12>   O                      9.590248             -1.465275            4.817014
| 13>   H                      9.521846             -0.879403            4.054559
| 14>   H                      10.702406            -3.145262            5.437291
| 15>   H                      10.226027            -3.121277            3.698400
| 16>   H                      11.448458            -1.960485            4.280155
| 17>   C                      7.234744             1.137100             3.646333
| 18>   O                      8.644821             1.312440             3.660855
| 19>   H                      8.815920             1.757779             4.445385
| 20>   H                      6.947070             0.669658             2.727372
| 21>   H                      6.962892             0.448695             4.396575
| 22>   H                      6.738247             2.099635             3.923597
| 23> *
| 24>
| 25> #Run DFT-D3 single point of the molecule with dimer basis set
| 26> $new_job
| 27> %base "9-170_DFT_A"
| 28> ! wB97X-D3 def2-TZVP TIGHTSCF CHELPG PMODEL
| 29>
| 30> %scf
| 31> MaxIter 1000
| 32> end
| 33>
| 34> * xyz 0 1
| 35>   C                      10.513409            -2.443197            4.555221
| 36>   O                      9.590248             -1.465275            4.817014
| 37>   H                      9.521846             -0.879403            4.054559
| 38>   H                      10.702406            -3.145262            5.437291
| 39>   H                      10.226027            -3.121277            3.698400
| 40>   H                      11.448458            -1.960485            4.280155
| 41>   C                    : 7.234744             1.137100             3.646333
| 42>   O                    : 8.644821             1.312440             3.660855
| 43>   H                    : 8.815920             1.757779             4.445385
| 44>   H                    : 6.947070             0.669658             2.727372
| 45>   H                    : 6.962892             0.448695             4.396575
| 46>   H                    : 6.738247             2.099635             3.923597
| 47> *
| 48>
| 49> #Run DFT-D3 single point of the particle with dimer basis set
| 50> $new_job
| 51> %base "9-170_DFT_B"
| 52> ! wB97X-D3 def2-TZVP TIGHTSCF CHELPG PMODEL
| 53>
| 54> %scf
| 55> MaxIter 1000
| 56> end
| 57>
| 58> * xyz 0 1
| 59>   C                    : 10.513409            -2.443197            4.555221
| 60>   O                    : 9.590248             -1.465275            4.817014
| 61>   H                    : 9.521846             -0.879403            4.054559
| 62>   H                    : 10.702406            -3.145262            5.437291
| 63>   H                    : 10.226027            -3.121277            3.698400
| 64>   H                    : 11.448458            -1.960485            4.280155
| 65>   C                      7.234744             1.137100             3.646333
| 66>   O                      8.644821             1.312440             3.660855
| 67>   H                      8.815920             1.757779             4.445385
| 68>   H                      6.947070             0.669658             2.727372
| 69>   H                      6.962892             0.448695             4.396575
| 70>   H                      6.738247             2.099635             3.923597
| 71> *
| 72>
| 73>                          ****END OF INPUT****
 Total Charge           Charge          ....    0
 Multiplicity           Mult            ....    1
 Number of Electrons    NEL             ....   36
Dispersion correction           -0.001527010
FINAL SINGLE POINT ENERGY      -231.470318299274
Dispersion correction           -0.000231996
FINAL SINGLE POINT ENERGY      -115.732603845499

CARTESIAN COORDINATES (ANGSTROEM)
---------------------------------
  C     10.513409   -2.443197    4.555221
  O      9.590248   -1.465275    4.817014
  H      9.521846   -0.879403    4.054559
  H     10.702406   -3.145262    5.437291
  H     10.226027   -3.121277    3.698400
  H     11.448458   -1.960485    4.280155
  C      7.234744    1.137100    3.646333
  O      8.644821    1.312440    3.660855
  H      8.815920    1.757779    4.445385
  H      6.947070    0.669658    2.727372
  H      6.962892    0.448695    4.396575
  H      6.738247    2.099635    3.923597

 Multiplicity           Mult            ....    1
 Number of Electrons    NEL             ....   18
 Basis Dimension        Dim             ....  172

ORBITAL ENERGIES
----------------

  NO   OCC          E(Eh)            E(eV)
   0   2.0000     -19.224918      -523.1366
   1   2.0000     -10.309950      -280.5480
   2   2.0000      -1.144601       -31.1462
   3   2.0000      -0.801295       -21.8043
   4   2.0000      -0.615360       -16.7448
   5   2.0000      -0.544605       -14.8195
   6   2.0000      -0.528548       -14.3825
   7   2.0000      -0.444085       -12.0842
   8   2.0000      -0.371978       -10.1220
   9   0.0000       0.094002         2.5579
  10   0.0000       0.119844         3.2611
  11   0.0000       0.159439         4.3386
  12   0.0000       0.184520         5.0210
  13   0.0000       0.195463         5.3188

MULLIKEN ATOMIC CHARGES
-----------------------
   0 C :   -0.000177
   1 O :   -0.002079
   2 H :   -0.005667
   3 H :   -0.000002
   4 H :    0.000015
   5 H :   -0.000115
   6 C :   -0.167849
   7 O :   -0.464074
   8 H :    0.303463
   9 H :    0.122198
  10 H :    0.110609
  11 H :    0.103679
Sum of atomic charges:    0.0000000

LOEWDIN ATOMIC CHARGES
----------------------
   0 C :   -0.000334
   1 O :   -0.003549
   2 H :   -0.017665
   3 H :   -0.000006
   4 H :   -0.000003
   5 H :   -0.000027
   6 C :   -0.368504
   7 O :   -0.046637
   8 H :    0.140995
   9 H :    0.105501
  10 H :    0.087376
  11 H :    0.102854

  Mayer bond orders larger than 0.1
B(  6-C ,  7-O ) :   0.9767 B(  6-C ,  9-H ) :   0.9772 B(  6-C , 10-H ) :   0.9797
B(  6-C , 11-H ) :   0.9776 B(  7-O ,  8-H ) :   0.9126

Dispersion correction           -0.000210199
FINAL SINGLE POINT ENERGY      -115.730966989098

DIPOLE MOMENT
-------------
                                X             Y             Z
Electronic contribution:      1.73697       0.17246      -0.20942
Nuclear contribution   :     -2.20128       0.02304       0.71681
                        -----------------------------------------
Total Dipole Moment    :     -0.46431       0.19551       0.50740
                        -----------------------------------------
Magnitude (a.u.)       :      0.71503
Magnitude (Debye)      :      1.81745

Rotational constants in cm-1:     4.344861     0.845569     0.804371
Rotational constants in MHz : 130255.667527 25349.529864 24114.438734

                             ****ORCA TERMINATED NORMALLY****
TOTAL RUN TIME: 0 days 0 hours 0 minutes 44 seconds 934 msec
