                         Program Version 4.1.2  - RELEASE  -
|  1> #Run DFT-D3 single point of the dimer
|  2> ! wB97X-D3 def2-TZVP TIGHTSCF CHELPG PMODEL PAL8
|  3>
|  4> %base "6-72_DFT_AB"
|  5>
|  6> %scf
|  7> MaxIter 1000
|  8> end
|  9>
| 10> * xyz 0 1
| 11>   C                      -3.007502            9.442801             -7.537317
| 12>   O                      -3.771246            10.636848            -7.389227
| 13>   H                      -4.466168            10.347383            -6.812460
| 14>   H                      -3.662800            8.684267             -8.136335
| 15>   H                      -2.027431            9.581203             -7.950742
| 16>   H                      -2.782450            9.003005             -6.589918
| 17>   C                      -6.544571            9.089834             -5.773615
| 18>   O                      -5.919031            10.156145            -5.142529
| 19>   H                      -6.002642            9.975476             -4.176577
| 20>   H                      -7.467468            9.348802             -6.263411
| 21>   H                      -5.838317            8.621592             -6.419914
| 22>   H                      -6.835641            8.307691             -5.054093
| 23> *
| 24>
| 25> #Run DFT-D3 single point of the molecule with dimer basis set
| 26> $new_job
| 27> %base "6-72_DFT_A"
| 28> ! wB97X-D3 def2-TZVP TIGHTSCF CHELPG PMODEL
| 29>
| 30> %scf
| 31> MaxIter 1000
| 32> end
| 33>
| 34> * xyz 0 1
| 35>   C                      -3.007502            9.442801             -7.537317
| 36>   O                      -3.771246            10.636848            -7.389227
| 37>   H                      -4.466168            10.347383            -6.812460
| 38>   H                      -3.662800            8.684267             -8.136335
| 39>   H                      -2.027431            9.581203             -7.950742
| 40>   H                      -2.782450            9.003005             -6.589918
| 41>   C                    : -6.544571            9.089834             -5.773615
| 42>   O                    : -5.919031            10.156145            -5.142529
| 43>   H                    : -6.002642            9.975476             -4.176577
| 44>   H                    : -7.467468            9.348802             -6.263411
| 45>   H                    : -5.838317            8.621592             -6.419914
| 46>   H                    : -6.835641            8.307691             -5.054093
| 47> *
| 48>
| 49> #Run DFT-D3 single point of the particle with dimer basis set
| 50> $new_job
| 51> %base "6-72_DFT_B"
| 52> ! wB97X-D3 def2-TZVP TIGHTSCF CHELPG PMODEL
| 53>
| 54> %scf
| 55> MaxIter 1000
| 56> end
| 57>
| 58> * xyz 0 1
| 59>   C                    : -3.007502            9.442801             -7.537317
| 60>   O                    : -3.771246            10.636848            -7.389227
| 61>   H                    : -4.466168            10.347383            -6.812460
| 62>   H                    : -3.662800            8.684267             -8.136335
| 63>   H                    : -2.027431            9.581203             -7.950742
| 64>   H                    : -2.782450            9.003005             -6.589918
| 65>   C                      -6.544571            9.089834             -5.773615
| 66>   O                      -5.919031            10.156145            -5.142529
| 67>   H                      -6.002642            9.975476             -4.176577
| 68>   H                      -7.467468            9.348802             -6.263411
| 69>   H                      -5.838317            8.621592             -6.419914
| 70>   H                      -6.835641            8.307691             -5.054093
| 71> *
| 72>
| 73>                          ****END OF INPUT****
 Total Charge           Charge          ....    0
 Multiplicity           Mult            ....    1
 Number of Electrons    NEL             ....   36
Dispersion correction           -0.001921517
FINAL SINGLE POINT ENERGY      -231.465984960731
Dispersion correction           -0.000226279
FINAL SINGLE POINT ENERGY      -115.729320460711

CARTESIAN COORDINATES (ANGSTROEM)
---------------------------------
  C     -3.007502    9.442801   -7.537317
  O     -3.771246   10.636848   -7.389227
  H     -4.466168   10.347383   -6.812460
  H     -3.662800    8.684267   -8.136335
  H     -2.027431    9.581203   -7.950742
  H     -2.782450    9.003005   -6.589918
  C     -6.544571    9.089834   -5.773615
  O     -5.919031   10.156145   -5.142529
  H     -6.002642    9.975476   -4.176577
  H     -7.467468    9.348802   -6.263411
  H     -5.838317    8.621592   -6.419914
  H     -6.835641    8.307691   -5.054093

 Multiplicity           Mult            ....    1
 Number of Electrons    NEL             ....   18
 Basis Dimension        Dim             ....  172

ORBITAL ENERGIES
----------------

  NO   OCC          E(Eh)            E(eV)
   0   2.0000     -19.232223      -523.3354
   1   2.0000     -10.305869      -280.4369
   2   2.0000      -1.141495       -31.0617
   3   2.0000      -0.793618       -21.5954
   4   2.0000      -0.615121       -16.7383
   5   2.0000      -0.552838       -15.0435
   6   2.0000      -0.526020       -14.3137
   7   2.0000      -0.429206       -11.6793
   8   2.0000      -0.374621       -10.1940
   9   0.0000       0.093465         2.5433
  10   0.0000       0.116158         3.1608
  11   0.0000       0.157124         4.2756
  12   0.0000       0.189069         5.1448
  13   0.0000       0.193086         5.2541

MULLIKEN ATOMIC CHARGES
-----------------------
   0 C :    0.000294
   1 O :   -0.001314
   2 H :    0.002055
   3 H :   -0.000544
   4 H :    0.000002
   5 H :   -0.000917
   6 C :   -0.167254
   7 O :   -0.469037
   8 H :    0.319250
   9 H :    0.107446
  10 H :    0.111521
  11 H :    0.098498
Sum of atomic charges:    0.0000000

LOEWDIN ATOMIC CHARGES
----------------------
   0 C :   -0.003076
   1 O :   -0.002011
   2 H :   -0.018533
   3 H :   -0.001193
   4 H :   -0.000013
   5 H :   -0.000426
   6 C :   -0.400341
   7 O :   -0.055379
   8 H :    0.189293
   9 H :    0.094601
  10 H :    0.098702
  11 H :    0.098376

  Mayer bond orders larger than 0.1
B(  6-C ,  7-O ) :   1.0059 B(  6-C ,  9-H ) :   0.9755 B(  6-C , 10-H ) :   0.9784
B(  6-C , 11-H ) :   0.9884 B(  7-O ,  8-H ) :   0.8958

Dispersion correction           -0.000228061
FINAL SINGLE POINT ENERGY      -115.732186758826

DIPOLE MOMENT
-------------
                                X             Y             Z
Electronic contribution:      0.84561       1.54556       0.60709
Nuclear contribution   :     -1.13944      -2.07683      -0.21027
                        -----------------------------------------
Total Dipole Moment    :     -0.29383      -0.53127       0.39683
                        -----------------------------------------
Magnitude (a.u.)       :      0.72530
Magnitude (Debye)      :      1.84356

Rotational constants in cm-1:     4.319071     0.858739     0.829785
Rotational constants in MHz : 129482.488194 25744.344235 24876.321393

                             ****ORCA TERMINATED NORMALLY****
TOTAL RUN TIME: 0 days 0 hours 1 minutes 6 seconds 431 msec
