                         Program Version 4.1.2  - RELEASE  -
|  1> #Run DFT-D3 single point of the dimer
|  2> ! wB97X-D3 def2-TZVP TIGHTSCF CHELPG PMODEL PAL8
|  3>
|  4> %base "6-105_DFT_AB"
|  5>
|  6> %scf
|  7> MaxIter 1000
|  8> end
|  9>
| 10> * xyz 0 1
| 11>   C                      3.529877             9.232706             -3.207251
| 12>   O                      4.863596             9.674193             -2.807178
| 13>   H                      5.455587             9.027773             -3.182617
| 14>   H                      3.334047             9.461608             -4.247411
| 15>   H                      3.300273             8.202536             -2.897719
| 16>   H                      2.726748             9.884370             -2.661681
| 17>   C                      5.799702             10.013961            -6.139659
| 18>   O                      6.314410             9.354648             -5.022214
| 19>   H                      6.679682             8.539401             -5.378463
| 20>   H                      5.031475             9.459829             -6.584512
| 21>   H                      5.568476             11.039382            -5.914100
| 22>   H                      6.622979             10.145301            -6.957438
| 23> *
| 24>
| 25> #Run DFT-D3 single point of the molecule with dimer basis set
| 26> $new_job
| 27> %base "6-105_DFT_A"
| 28> ! wB97X-D3 def2-TZVP TIGHTSCF CHELPG PMODEL
| 29>
| 30> %scf
| 31> MaxIter 1000
| 32> end
| 33>
| 34> * xyz 0 1
| 35>   C                      3.529877             9.232706             -3.207251
| 36>   O                      4.863596             9.674193             -2.807178
| 37>   H                      5.455587             9.027773             -3.182617
| 38>   H                      3.334047             9.461608             -4.247411
| 39>   H                      3.300273             8.202536             -2.897719
| 40>   H                      2.726748             9.884370             -2.661681
| 41>   C                    : 5.799702             10.013961            -6.139659
| 42>   O                    : 6.314410             9.354648             -5.022214
| 43>   H                    : 6.679682             8.539401             -5.378463
| 44>   H                    : 5.031475             9.459829             -6.584512
| 45>   H                    : 5.568476             11.039382            -5.914100
| 46>   H                    : 6.622979             10.145301            -6.957438
| 47> *
| 48>
| 49> #Run DFT-D3 single point of the particle with dimer basis set
| 50> $new_job
| 51> %base "6-105_DFT_B"
| 52> ! wB97X-D3 def2-TZVP TIGHTSCF CHELPG PMODEL
| 53>
| 54> %scf
| 55> MaxIter 1000
| 56> end
| 57>
| 58> * xyz 0 1
| 59>   C                    : 3.529877             9.232706             -3.207251
| 60>   O                    : 4.863596             9.674193             -2.807178
| 61>   H                    : 5.455587             9.027773             -3.182617
| 62>   H                    : 3.334047             9.461608             -4.247411
| 63>   H                    : 3.300273             8.202536             -2.897719
| 64>   H                    : 2.726748             9.884370             -2.661681
| 65>   C                      5.799702             10.013961            -6.139659
| 66>   O                      6.314410             9.354648             -5.022214
| 67>   H                      6.679682             8.539401             -5.378463
| 68>   H                      5.031475             9.459829             -6.584512
| 69>   H                      5.568476             11.039382            -5.914100
| 70>   H                      6.622979             10.145301            -6.957438
| 71> *
| 72>
| 73>                          ****END OF INPUT****
 Total Charge           Charge          ....    0
 Multiplicity           Mult            ....    1
 Number of Electrons    NEL             ....   36
Dispersion correction           -0.002114394
FINAL SINGLE POINT ENERGY      -231.462253291734
Dispersion correction           -0.000270485
FINAL SINGLE POINT ENERGY      -115.731148264854

CARTESIAN COORDINATES (ANGSTROEM)
---------------------------------
  C      3.529877    9.232706   -3.207251
  O      4.863596    9.674193   -2.807178
  H      5.455587    9.027773   -3.182617
  H      3.334047    9.461608   -4.247411
  H      3.300273    8.202536   -2.897719
  H      2.726748    9.884370   -2.661681
  C      5.799702   10.013961   -6.139659
  O      6.314410    9.354648   -5.022214
  H      6.679682    8.539401   -5.378463
  H      5.031475    9.459829   -6.584512
  H      5.568476   11.039382   -5.914100
  H      6.622979   10.145301   -6.957438

 Multiplicity           Mult            ....    1
 Number of Electrons    NEL             ....   18
 Basis Dimension        Dim             ....  172

ORBITAL ENERGIES
----------------

  NO   OCC          E(Eh)            E(eV)
   0   2.0000     -19.232898      -523.3538
   1   2.0000     -10.312971      -280.6302
   2   2.0000      -1.145741       -31.1772
   3   2.0000      -0.793914       -21.6035
   4   2.0000      -0.615422       -16.7465
   5   2.0000      -0.552687       -15.0394
   6   2.0000      -0.525123       -14.2893
   7   2.0000      -0.436383       -11.8746
   8   2.0000      -0.372186       -10.1277
   9   0.0000       0.095699         2.6041
  10   0.0000       0.126048         3.4299
  11   0.0000       0.151860         4.1323
  12   0.0000       0.190296         5.1782
  13   0.0000       0.192837         5.2473

MULLIKEN ATOMIC CHARGES
-----------------------
   0 C :   -0.004814
   1 O :    0.005413
   2 H :   -0.011171
   3 H :    0.001714
   4 H :    0.000028
   5 H :   -0.000179
   6 C :   -0.169766
   7 O :   -0.460851
   8 H :    0.316373
   9 H :    0.112616
  10 H :    0.121481
  11 H :    0.089155
Sum of atomic charges:   -0.0000000

LOEWDIN ATOMIC CHARGES
----------------------
   0 C :   -0.007100
   1 O :   -0.012072
   2 H :   -0.032088
   3 H :   -0.001514
   4 H :   -0.000154
   5 H :   -0.000119
   6 C :   -0.396611
   7 O :   -0.021114
   8 H :    0.175320
   9 H :    0.084696
  10 H :    0.105689
  11 H :    0.105068

  Mayer bond orders larger than 0.1
B(  6-C ,  7-O ) :   0.9869 B(  6-C ,  9-H ) :   0.9753 B(  6-C , 10-H ) :   0.9755
B(  6-C , 11-H ) :   0.9743 B(  7-O ,  8-H ) :   0.8974

Dispersion correction           -0.000218250
FINAL SINGLE POINT ENERGY      -115.730669602238

DIPOLE MOMENT
-------------
                                X             Y             Z
Electronic contribution:      0.40521      -0.76389       1.67293
Nuclear contribution   :     -0.38376       0.51584      -2.31169
                        -----------------------------------------
Total Dipole Moment    :      0.02145      -0.24805      -0.63876
                        -----------------------------------------
Magnitude (a.u.)       :      0.68556
Magnitude (Debye)      :      1.74256

Rotational constants in cm-1:     4.241285     0.852815     0.821462
Rotational constants in MHz : 127150.514351 25566.764060 24626.813937

                             ****ORCA TERMINATED NORMALLY****
TOTAL RUN TIME: 0 days 0 hours 1 minutes 7 seconds 767 msec
