                         Program Version 4.1.2  - RELEASE  -
|  1> #Run DFT-D3 single point of the dimer
|  2> ! wB97X-D3 def2-TZVP TIGHTSCF CHELPG PMODEL PAL8
|  3>
|  4> %base "18-84_DFT_AB"
|  5>
|  6> %scf
|  7> MaxIter 1000
|  8> end
|  9>
| 10> * xyz 0 1
| 11>   C                      1.101496             -2.053978            7.307832
| 12>   O                      1.384987             -2.297058            5.969188
| 13>   H                      1.151471             -3.185395            5.702275
| 14>   H                      1.317104             -1.048099            7.698919
| 15>   H                      0.046442             -2.231063            7.406682
| 16>   H                      1.610017             -2.809292            7.907819
| 17>   C                      -3.528699            -0.465896            9.810445
| 18>   O                      -2.873749            0.137173             10.908916
| 19>   H                      -2.248066            0.745809             10.522661
| 20>   H                      -2.938057            -0.482912            8.871081
| 21>   H                      -3.683485            -1.523379            9.932027
| 22>   H                      -4.535832            -0.016877            9.543679
| 23> *
| 24>
| 25> #Run DFT-D3 single point of the molecule with dimer basis set
| 26> $new_job
| 27> %base "18-84_DFT_A"
| 28> ! wB97X-D3 def2-TZVP TIGHTSCF CHELPG PMODEL
| 29>
| 30> %scf
| 31> MaxIter 1000
| 32> end
| 33>
| 34> * xyz 0 1
| 35>   C                      1.101496             -2.053978            7.307832
| 36>   O                      1.384987             -2.297058            5.969188
| 37>   H                      1.151471             -3.185395            5.702275
| 38>   H                      1.317104             -1.048099            7.698919
| 39>   H                      0.046442             -2.231063            7.406682
| 40>   H                      1.610017             -2.809292            7.907819
| 41>   C                    : -3.528699            -0.465896            9.810445
| 42>   O                    : -2.873749            0.137173             10.908916
| 43>   H                    : -2.248066            0.745809             10.522661
| 44>   H                    : -2.938057            -0.482912            8.871081
| 45>   H                    : -3.683485            -1.523379            9.932027
| 46>   H                    : -4.535832            -0.016877            9.543679
| 47> *
| 48>
| 49> #Run DFT-D3 single point of the particle with dimer basis set
| 50> $new_job
| 51> %base "18-84_DFT_B"
| 52> ! wB97X-D3 def2-TZVP TIGHTSCF CHELPG PMODEL
| 53>
| 54> %scf
| 55> MaxIter 1000
| 56> end
| 57>
| 58> * xyz 0 1
| 59>   C                    : 1.101496             -2.053978            7.307832
| 60>   O                    : 1.384987             -2.297058            5.969188
| 61>   H                    : 1.151471             -3.185395            5.702275
| 62>   H                    : 1.317104             -1.048099            7.698919
| 63>   H                    : 0.046442             -2.231063            7.406682
| 64>   H                    : 1.610017             -2.809292            7.907819
| 65>   C                      -3.528699            -0.465896            9.810445
| 66>   O                      -2.873749            0.137173             10.908916
| 67>   H                      -2.248066            0.745809             10.522661
| 68>   H                      -2.938057            -0.482912            8.871081
| 69>   H                      -3.683485            -1.523379            9.932027
| 70>   H                      -4.535832            -0.016877            9.543679
| 71> *
| 72>
| 73>                          ****END OF INPUT****
 Total Charge           Charge          ....    0
 Multiplicity           Mult            ....    1
 Number of Electrons    NEL             ....   36
Dispersion correction           -0.000691443
FINAL SINGLE POINT ENERGY      -231.462751106184
Dispersion correction           -0.000215820
FINAL SINGLE POINT ENERGY      -115.730496981312

CARTESIAN COORDINATES (ANGSTROEM)
---------------------------------
  C      1.101496   -2.053978    7.307832
  O      1.384987   -2.297058    5.969188
  H      1.151471   -3.185395    5.702275
  H      1.317104   -1.048099    7.698919
  H      0.046442   -2.231063    7.406682
  H      1.610017   -2.809292    7.907819
  C     -3.528699   -0.465896    9.810445
  O     -2.873749    0.137173   10.908916
  H     -2.248066    0.745809   10.522661
  H     -2.938057   -0.482912    8.871081
  H     -3.683485   -1.523379    9.932027
  H     -4.535832   -0.016877    9.543679

 Multiplicity           Mult            ....    1
 Number of Electrons    NEL             ....   18
 Basis Dimension        Dim             ....  172

ORBITAL ENERGIES
----------------

  NO   OCC          E(Eh)            E(eV)
   0   2.0000     -19.235606      -523.4275
   1   2.0000     -10.317205      -280.7454
   2   2.0000      -1.141508       -31.0620
   3   2.0000      -0.795345       -21.6424
   4   2.0000      -0.614474       -16.7207
   5   2.0000      -0.537997       -14.6396
   6   2.0000      -0.526126       -14.3166
   7   2.0000      -0.433340       -11.7918
   8   2.0000      -0.377805       -10.2806
   9   0.0000       0.080797         2.1986
  10   0.0000       0.114023         3.1027
  11   0.0000       0.146128         3.9764
  12   0.0000       0.163629         4.4526
  13   0.0000       0.186573         5.0769

MULLIKEN ATOMIC CHARGES
-----------------------
   0 C :   -0.000034
   1 O :    0.000004
   2 H :    0.000001
   3 H :   -0.000008
   4 H :    0.000008
   5 H :   -0.000002
   6 C :   -0.180173
   7 O :   -0.460326
   8 H :    0.318771
   9 H :    0.103947
  10 H :    0.119134
  11 H :    0.098678
Sum of atomic charges:   -0.0000000

LOEWDIN ATOMIC CHARGES
----------------------
   0 C :   -0.000056
   1 O :   -0.000001
   2 H :   -0.000000
   3 H :   -0.000006
   4 H :   -0.000120
   5 H :   -0.000001
   6 C :   -0.400693
   7 O :   -0.069299
   8 H :    0.169674
   9 H :    0.098913
  10 H :    0.099725
  11 H :    0.101865

  Mayer bond orders larger than 0.1
B(  6-C ,  7-O ) :   1.0168 B(  6-C ,  9-H ) :   0.9808 B(  6-C , 10-H ) :   0.9739
B(  6-C , 11-H ) :   0.9704 B(  7-O ,  8-H ) :   0.9007

Dispersion correction           -0.000266439
FINAL SINGLE POINT ENERGY      -115.732025447030

DIPOLE MOMENT
-------------
                                X             Y             Z
Electronic contribution:      0.82231       0.77366       1.67797
Nuclear contribution   :     -0.64095      -0.64505      -2.35534
                        -----------------------------------------
Total Dipole Moment    :      0.18136       0.12861      -0.67737
                        -----------------------------------------
Magnitude (a.u.)       :      0.71292
Magnitude (Debye)      :      1.81210

Rotational constants in cm-1:     4.372160     0.813447     0.792779
Rotational constants in MHz : 131074.064033 24386.523272 23766.926004

                             ****ORCA TERMINATED NORMALLY****
TOTAL RUN TIME: 0 days 0 hours 1 minutes 2 seconds 390 msec
