                         Program Version 4.1.2  - RELEASE  -
|  1> #Run DFT-D3 single point of the dimer
|  2> ! wB97X-D3 def2-TZVP TIGHTSCF CHELPG PMODEL PAL8
|  3>
|  4> %base "13-191_DFT_AB"
|  5>
|  6> %scf
|  7> MaxIter 1000
|  8> end
|  9>
| 10> * xyz 0 1
| 11>   C                      -5.438823            2.939611             0.653369
| 12>   O                      -5.878226            2.898767             2.003602
| 13>   H                      -6.781193            3.161789             1.905700
| 14>   H                      -4.325486            2.925350             0.716673
| 15>   H                      -5.760783            2.003888             0.186387
| 16>   H                      -5.762836            3.829153             0.087394
| 17>   C                      -9.805900            3.760904             2.946252
| 18>   O                      -8.501350            3.221238             2.916457
| 19>   H                      -8.652052            2.302385             3.242100
| 20>   H                      -9.828623            4.738476             2.390986
| 21>   H                      -10.557161           3.187259             2.380926
| 22>   H                      -10.169463           4.061940             3.910981
| 23> *
| 24>
| 25> #Run DFT-D3 single point of the molecule with dimer basis set
| 26> $new_job
| 27> %base "13-191_DFT_A"
| 28> ! wB97X-D3 def2-TZVP TIGHTSCF CHELPG PMODEL
| 29>
| 30> %scf
| 31> MaxIter 1000
| 32> end
| 33>
| 34> * xyz 0 1
| 35>   C                      -5.438823            2.939611             0.653369
| 36>   O                      -5.878226            2.898767             2.003602
| 37>   H                      -6.781193            3.161789             1.905700
| 38>   H                      -4.325486            2.925350             0.716673
| 39>   H                      -5.760783            2.003888             0.186387
| 40>   H                      -5.762836            3.829153             0.087394
| 41>   C                    : -9.805900            3.760904             2.946252
| 42>   O                    : -8.501350            3.221238             2.916457
| 43>   H                    : -8.652052            2.302385             3.242100
| 44>   H                    : -9.828623            4.738476             2.390986
| 45>   H                    : -10.557161           3.187259             2.380926
| 46>   H                    : -10.169463           4.061940             3.910981
| 47> *
| 48>
| 49> #Run DFT-D3 single point of the particle with dimer basis set
| 50> $new_job
| 51> %base "13-191_DFT_B"
| 52> ! wB97X-D3 def2-TZVP TIGHTSCF CHELPG PMODEL
| 53>
| 54> %scf
| 55> MaxIter 1000
| 56> end
| 57>
| 58> * xyz 0 1
| 59>   C                    : -5.438823            2.939611             0.653369
| 60>   O                    : -5.878226            2.898767             2.003602
| 61>   H                    : -6.781193            3.161789             1.905700
| 62>   H                    : -4.325486            2.925350             0.716673
| 63>   H                    : -5.760783            2.003888             0.186387
| 64>   H                    : -5.762836            3.829153             0.087394
| 65>   C                      -9.805900            3.760904             2.946252
| 66>   O                      -8.501350            3.221238             2.916457
| 67>   H                      -8.652052            2.302385             3.242100
| 68>   H                      -9.828623            4.738476             2.390986
| 69>   H                      -10.557161           3.187259             2.380926
| 70>   H                      -10.169463           4.061940             3.910981
| 71> *
| 72>
| 73>                          ****END OF INPUT****
 Total Charge           Charge          ....    0
 Multiplicity           Mult            ....    1
 Number of Electrons    NEL             ....   36
Dispersion correction           -0.001375192
FINAL SINGLE POINT ENERGY      -231.470987418049
Dispersion correction           -0.000220712
FINAL SINGLE POINT ENERGY      -115.733707594526

CARTESIAN COORDINATES (ANGSTROEM)
---------------------------------
  C     -5.438823    2.939611    0.653369
  O     -5.878226    2.898767    2.003602
  H     -6.781193    3.161789    1.905700
  H     -4.325486    2.925350    0.716673
  H     -5.760783    2.003888    0.186387
  H     -5.762836    3.829153    0.087394
  C     -9.805900    3.760904    2.946252
  O     -8.501350    3.221238    2.916457
  H     -8.652052    2.302385    3.242100
  H     -9.828623    4.738476    2.390986
  H    -10.557161    3.187259    2.380926
  H    -10.169463    4.061940    3.910981

 Multiplicity           Mult            ....    1
 Number of Electrons    NEL             ....   18
 Basis Dimension        Dim             ....  172

ORBITAL ENERGIES
----------------

  NO   OCC          E(Eh)            E(eV)
   0   2.0000     -19.239934      -523.5452
   1   2.0000     -10.314445      -280.6703
   2   2.0000      -1.138337       -30.9757
   3   2.0000      -0.792798       -21.5731
   4   2.0000      -0.607011       -16.5176
   5   2.0000      -0.548477       -14.9248
   6   2.0000      -0.523306       -14.2399
   7   2.0000      -0.430625       -11.7179
   8   2.0000      -0.380172       -10.3450
   9   0.0000       0.098192         2.6719
  10   0.0000       0.120038         3.2664
  11   0.0000       0.149076         4.0566
  12   0.0000       0.190179         5.1750
  13   0.0000       0.207330         5.6417

MULLIKEN ATOMIC CHARGES
-----------------------
   0 C :    0.000850
   1 O :    0.001957
   2 H :   -0.014095
   3 H :   -0.000090
   4 H :   -0.000164
   5 H :   -0.000135
   6 C :   -0.174444
   7 O :   -0.450951
   8 H :    0.317819
   9 H :    0.111918
  10 H :    0.105146
  11 H :    0.102188
Sum of atomic charges:   -0.0000000

LOEWDIN ATOMIC CHARGES
----------------------
   0 C :   -0.001268
   1 O :   -0.007209
   2 H :   -0.036687
   3 H :   -0.000028
   4 H :   -0.000067
   5 H :   -0.000051
   6 C :   -0.404188
   7 O :   -0.043451
   8 H :    0.190895
   9 H :    0.114540
  10 H :    0.097199
  11 H :    0.090314

  Mayer bond orders larger than 0.1
B(  6-C ,  7-O ) :   1.0056 B(  6-C ,  9-H ) :   0.9790 B(  6-C , 10-H ) :   0.9735
B(  6-C , 11-H ) :   0.9689 B(  7-O ,  8-H ) :   0.8943

Dispersion correction           -0.000250801
FINAL SINGLE POINT ENERGY      -115.731924751268

DIPOLE MOMENT
-------------
                                X             Y             Z
Electronic contribution:      1.82733      -0.72786       0.03285
Nuclear contribution   :     -2.42141       0.38956       0.17035
                        -----------------------------------------
Total Dipole Moment    :     -0.59409      -0.33830       0.20319
                        -----------------------------------------
Magnitude (a.u.)       :      0.71321
Magnitude (Debye)      :      1.81285

Rotational constants in cm-1:     4.300401     0.823730     0.797456
Rotational constants in MHz : 128922.792787 24694.810470 23907.122863

                             ****ORCA TERMINATED NORMALLY****
TOTAL RUN TIME: 0 days 0 hours 1 minutes 7 seconds 243 msec
