                         Program Version 4.1.2  - RELEASE  -
|  1> #Run DFT-D3 single point of the dimer
|  2> ! wB97X-D3 def2-TZVP TIGHTSCF CHELPG PMODEL PAL8
|  3>
|  4> %base "19-78_DFT_AB"
|  5>
|  6> %scf
|  7> MaxIter 1000
|  8> end
|  9>
| 10> * xyz 0 1
| 11>   C                      -4.824653            -10.147423           5.995258
| 12>   O                      -3.540694            -9.794573            6.520729
| 13>   H                      -3.402781            -8.849417            6.277806
| 14>   H                      -5.412021            -9.291457            5.854448
| 15>   H                      -4.591156            -10.588656           5.073679
| 16>   H                      -5.447185            -10.807198           6.600243
| 17>   C                      -4.820240            -6.867480            7.732437
| 18>   O                      -3.651096            -7.047806            6.967407
| 19>   H                      -2.892290            -6.756424            7.484280
| 20>   H                      -5.073807            -7.703325            8.381583
| 21>   H                      -4.832445            -5.895153            8.276370
| 22>   H                      -5.724504            -6.692857            7.115147
| 23> *
| 24>
| 25> #Run DFT-D3 single point of the molecule with dimer basis set
| 26> $new_job
| 27> %base "19-78_DFT_A"
| 28> ! wB97X-D3 def2-TZVP TIGHTSCF CHELPG PMODEL
| 29>
| 30> %scf
| 31> MaxIter 1000
| 32> end
| 33>
| 34> * xyz 0 1
| 35>   C                      -4.824653            -10.147423           5.995258
| 36>   O                      -3.540694            -9.794573            6.520729
| 37>   H                      -3.402781            -8.849417            6.277806
| 38>   H                      -5.412021            -9.291457            5.854448
| 39>   H                      -4.591156            -10.588656           5.073679
| 40>   H                      -5.447185            -10.807198           6.600243
| 41>   C                    : -4.820240            -6.867480            7.732437
| 42>   O                    : -3.651096            -7.047806            6.967407
| 43>   H                    : -2.892290            -6.756424            7.484280
| 44>   H                    : -5.073807            -7.703325            8.381583
| 45>   H                    : -4.832445            -5.895153            8.276370
| 46>   H                    : -5.724504            -6.692857            7.115147
| 47> *
| 48>
| 49> #Run DFT-D3 single point of the particle with dimer basis set
| 50> $new_job
| 51> %base "19-78_DFT_B"
| 52> ! wB97X-D3 def2-TZVP TIGHTSCF CHELPG PMODEL
| 53>
| 54> %scf
| 55> MaxIter 1000
| 56> end
| 57>
| 58> * xyz 0 1
| 59>   C                    : -4.824653            -10.147423           5.995258
| 60>   O                    : -3.540694            -9.794573            6.520729
| 61>   H                    : -3.402781            -8.849417            6.277806
| 62>   H                    : -5.412021            -9.291457            5.854448
| 63>   H                    : -4.591156            -10.588656           5.073679
| 64>   H                    : -5.447185            -10.807198           6.600243
| 65>   C                      -4.820240            -6.867480            7.732437
| 66>   O                      -3.651096            -7.047806            6.967407
| 67>   H                      -2.892290            -6.756424            7.484280
| 68>   H                      -5.073807            -7.703325            8.381583
| 69>   H                      -4.832445            -5.895153            8.276370
| 70>   H                      -5.724504            -6.692857            7.115147
| 71> *
| 72>
| 73>                          ****END OF INPUT****
 Total Charge           Charge          ....    0
 Multiplicity           Mult            ....    1
 Number of Electrons    NEL             ....   36
Dispersion correction           -0.002200762
FINAL SINGLE POINT ENERGY      -231.469098487554
Dispersion correction           -0.000224396
FINAL SINGLE POINT ENERGY      -115.728669791043

CARTESIAN COORDINATES (ANGSTROEM)
---------------------------------
  C     -4.824653  -10.147423    5.995258
  O     -3.540694   -9.794573    6.520729
  H     -3.402781   -8.849417    6.277806
  H     -5.412021   -9.291457    5.854448
  H     -4.591156  -10.588656    5.073679
  H     -5.447185  -10.807198    6.600243
  C     -4.820240   -6.867480    7.732437
  O     -3.651096   -7.047806    6.967407
  H     -2.892290   -6.756424    7.484280
  H     -5.073807   -7.703325    8.381583
  H     -4.832445   -5.895153    8.276370
  H     -5.724504   -6.692857    7.115147

 Multiplicity           Mult            ....    1
 Number of Electrons    NEL             ....   18
 Basis Dimension        Dim             ....  172

ORBITAL ENERGIES
----------------

  NO   OCC          E(Eh)            E(eV)
   0   2.0000     -19.234419      -523.3951
   1   2.0000     -10.315806      -280.7074
   2   2.0000      -1.138349       -30.9761
   3   2.0000      -0.795984       -21.6598
   4   2.0000      -0.611778       -16.6473
   5   2.0000      -0.547452       -14.8969
   6   2.0000      -0.525203       -14.2915
   7   2.0000      -0.422877       -11.5071
   8   2.0000      -0.379149       -10.3172
   9   0.0000       0.096600         2.6286
  10   0.0000       0.126813         3.4508
  11   0.0000       0.147795         4.0217
  12   0.0000       0.188464         5.1284
  13   0.0000       0.194411         5.2902

MULLIKEN ATOMIC CHARGES
-----------------------
   0 C :    0.001446
   1 O :   -0.000962
   2 H :   -0.009484
   3 H :    0.000812
   4 H :    0.000109
   5 H :   -0.000345
   6 C :   -0.182251
   7 O :   -0.468637
   8 H :    0.320156
   9 H :    0.113208
  10 H :    0.109818
  11 H :    0.116131
Sum of atomic charges:   -0.0000000

LOEWDIN ATOMIC CHARGES
----------------------
   0 C :   -0.003877
   1 O :   -0.008417
   2 H :   -0.043255
   3 H :   -0.001509
   4 H :   -0.000027
   5 H :   -0.000078
   6 C :   -0.399360
   7 O :   -0.026753
   8 H :    0.174102
   9 H :    0.095551
  10 H :    0.102614
  11 H :    0.111009

  Mayer bond orders larger than 0.1
B(  6-C ,  7-O ) :   0.9955 B(  6-C ,  9-H ) :   0.9730 B(  6-C , 10-H ) :   0.9751
B(  6-C , 11-H ) :   0.9734 B(  7-O ,  8-H ) :   0.8941

Dispersion correction           -0.000263160
FINAL SINGLE POINT ENERGY      -115.733277689891

DIPOLE MOMENT
-------------
                                X             Y             Z
Electronic contribution:      1.57109      -0.39296      -1.07790
Nuclear contribution   :     -1.56083       0.68258       1.69638
                        -----------------------------------------
Total Dipole Moment    :      0.01026       0.28962       0.61848
                        -----------------------------------------
Magnitude (a.u.)       :      0.68301
Magnitude (Debye)      :      1.73607

Rotational constants in cm-1:     4.385737     0.815792     0.798221
Rotational constants in MHz : 131481.093672 24456.826068 23930.067522

                             ****ORCA TERMINATED NORMALLY****
TOTAL RUN TIME: 0 days 0 hours 2 minutes 24 seconds 173 msec
