                         Program Version 4.1.2  - RELEASE  -
|  1> #Run DFT-D3 single point of the dimer
|  2> ! wB97X-D3 def2-TZVP TIGHTSCF CHELPG PMODEL PAL8
|  3>
|  4> %base "22-57_DFT_AB"
|  5>
|  6> %scf
|  7> MaxIter 1000
|  8> end
|  9>
| 10> * xyz 0 1
| 11>   C                      5.509219             -5.286384            -2.629828
| 12>   O                      6.356411             -4.322206            -3.312786
| 13>   H                      5.806492             -3.659072            -3.753185
| 14>   H                      4.710320             -5.785805            -3.279945
| 15>   H                      6.199272             -6.152955            -2.356879
| 16>   H                      4.910016             -4.863904            -1.771712
| 17>   C                      3.665648             -7.821168            -5.400636
| 18>   O                      2.313230             -7.911947            -5.669289
| 19>   H                      1.928492             -8.336179            -4.940872
| 20>   H                      4.116049             -8.827274            -5.247889
| 21>   H                      4.117865             -7.403982            -6.311332
| 22>   H                      3.967369             -7.184332            -4.616387
| 23> *
| 24>
| 25> #Run DFT-D3 single point of the molecule with dimer basis set
| 26> $new_job
| 27> %base "22-57_DFT_A"
| 28> ! wB97X-D3 def2-TZVP TIGHTSCF CHELPG PMODEL
| 29>
| 30> %scf
| 31> MaxIter 1000
| 32> end
| 33>
| 34> * xyz 0 1
| 35>   C                      5.509219             -5.286384            -2.629828
| 36>   O                      6.356411             -4.322206            -3.312786
| 37>   H                      5.806492             -3.659072            -3.753185
| 38>   H                      4.710320             -5.785805            -3.279945
| 39>   H                      6.199272             -6.152955            -2.356879
| 40>   H                      4.910016             -4.863904            -1.771712
| 41>   C                    : 3.665648             -7.821168            -5.400636
| 42>   O                    : 2.313230             -7.911947            -5.669289
| 43>   H                    : 1.928492             -8.336179            -4.940872
| 44>   H                    : 4.116049             -8.827274            -5.247889
| 45>   H                    : 4.117865             -7.403982            -6.311332
| 46>   H                    : 3.967369             -7.184332            -4.616387
| 47> *
| 48>
| 49> #Run DFT-D3 single point of the particle with dimer basis set
| 50> $new_job
| 51> %base "22-57_DFT_B"
| 52> ! wB97X-D3 def2-TZVP TIGHTSCF CHELPG PMODEL
| 53>
| 54> %scf
| 55> MaxIter 1000
| 56> end
| 57>
| 58> * xyz 0 1
| 59>   C                    : 5.509219             -5.286384            -2.629828
| 60>   O                    : 6.356411             -4.322206            -3.312786
| 61>   H                    : 5.806492             -3.659072            -3.753185
| 62>   H                    : 4.710320             -5.785805            -3.279945
| 63>   H                    : 6.199272             -6.152955            -2.356879
| 64>   H                    : 4.910016             -4.863904            -1.771712
| 65>   C                      3.665648             -7.821168            -5.400636
| 66>   O                      2.313230             -7.911947            -5.669289
| 67>   H                      1.928492             -8.336179            -4.940872
| 68>   H                      4.116049             -8.827274            -5.247889
| 69>   H                      4.117865             -7.403982            -6.311332
| 70>   H                      3.967369             -7.184332            -4.616387
| 71> *
| 72>
| 73>                          ****END OF INPUT****
 Total Charge           Charge          ....    0
 Multiplicity           Mult            ....    1
 Number of Electrons    NEL             ....   36
Dispersion correction           -0.001273376
FINAL SINGLE POINT ENERGY      -231.463403264460
Dispersion correction           -0.000300120
FINAL SINGLE POINT ENERGY      -115.730036535386

CARTESIAN COORDINATES (ANGSTROEM)
---------------------------------
  C      5.509219   -5.286384   -2.629828
  O      6.356411   -4.322206   -3.312786
  H      5.806492   -3.659072   -3.753185
  H      4.710320   -5.785805   -3.279945
  H      6.199272   -6.152955   -2.356879
  H      4.910016   -4.863904   -1.771712
  C      3.665648   -7.821168   -5.400636
  O      2.313230   -7.911947   -5.669289
  H      1.928492   -8.336179   -4.940872
  H      4.116049   -8.827274   -5.247889
  H      4.117865   -7.403982   -6.311332
  H      3.967369   -7.184332   -4.616387

 Multiplicity           Mult            ....    1
 Number of Electrons    NEL             ....   18
 Basis Dimension        Dim             ....  172

ORBITAL ENERGIES
----------------

  NO   OCC          E(Eh)            E(eV)
   0   2.0000     -19.228676      -523.2389
   1   2.0000     -10.307645      -280.4853
   2   2.0000      -1.154933       -31.4273
   3   2.0000      -0.798847       -21.7377
   4   2.0000      -0.622827       -16.9480
   5   2.0000      -0.548955       -14.9378
   6   2.0000      -0.527717       -14.3599
   7   2.0000      -0.433422       -11.7940
   8   2.0000      -0.376188       -10.2366
   9   0.0000       0.084538         2.3004
  10   0.0000       0.121509         3.3064
  11   0.0000       0.157136         4.2759
  12   0.0000       0.165616         4.5066
  13   0.0000       0.190260         5.1772

MULLIKEN ATOMIC CHARGES
-----------------------
   0 C :   -0.006422
   1 O :    0.000109
   2 H :    0.000012
   3 H :    0.011040
   4 H :    0.000198
   5 H :    0.000153
   6 C :   -0.152044
   7 O :   -0.457991
   8 H :    0.307947
   9 H :    0.097939
  10 H :    0.111739
  11 H :    0.087319
Sum of atomic charges:    0.0000000

LOEWDIN ATOMIC CHARGES
----------------------
   0 C :   -0.003129
   1 O :   -0.000009
   2 H :   -0.000008
   3 H :   -0.008961
   4 H :   -0.000122
   5 H :   -0.000022
   6 C :   -0.404765
   7 O :   -0.032120
   8 H :    0.149596
   9 H :    0.097652
  10 H :    0.112827
  11 H :    0.089060

  Mayer bond orders larger than 0.1
B(  6-C ,  7-O ) :   0.9984 B(  6-C ,  9-H ) :   0.9877 B(  6-C , 10-H ) :   0.9779
B(  6-C , 11-H ) :   0.9637 B(  7-O ,  8-H ) :   0.9084

Dispersion correction           -0.000223802
FINAL SINGLE POINT ENERGY      -115.733361886287

DIPOLE MOMENT
-------------
                                X             Y             Z
Electronic contribution:     -1.83173      -0.00913      -0.33653
Nuclear contribution   :      2.08739      -0.21343       0.89981
                        -----------------------------------------
Total Dipole Moment    :      0.25566      -0.22256       0.56328
                        -----------------------------------------
Magnitude (a.u.)       :      0.65741
Magnitude (Debye)      :      1.67099

Rotational constants in cm-1:     4.410465     0.865469     0.835014
Rotational constants in MHz : 132222.414080 25946.105190 25033.075436

                             ****ORCA TERMINATED NORMALLY****
TOTAL RUN TIME: 0 days 0 hours 0 minutes 52 seconds 191 msec
