                         Program Version 4.1.2  - RELEASE  -
|  1> #Run DFT-D3 single point of the dimer
|  2> ! wB97X-D3 def2-TZVP TIGHTSCF CHELPG PMODEL PAL8
|  3>
|  4> %base "11-108_DFT_AB"
|  5>
|  6> %scf
|  7> MaxIter 1000
|  8> end
|  9>
| 10> * xyz 0 1
| 11>   C                      -8.009871            -4.711269            -2.147200
| 12>   O                      -8.298918            -5.552520            -1.027599
| 13>   H                      -8.177552            -5.122342            -0.191332
| 14>   H                      -8.178726            -5.149591            -3.108748
| 15>   H                      -8.576040            -3.788171            -2.055177
| 16>   H                      -7.060665            -4.281000            -2.058181
| 17>   C                      -10.396146           -7.647223            -3.446009
| 18>   O                      -10.484767           -6.889899            -2.261590
| 19>   H                      -9.554610            -6.738956            -2.021986
| 20>   H                      -11.373736           -7.836111            -3.842640
| 21>   H                      -9.853171            -7.138727            -4.248777
| 22>   H                      -9.812399            -8.584707            -3.369534
| 23> *
| 24>
| 25> #Run DFT-D3 single point of the molecule with dimer basis set
| 26> $new_job
| 27> %base "11-108_DFT_A"
| 28> ! wB97X-D3 def2-TZVP TIGHTSCF CHELPG PMODEL
| 29>
| 30> %scf
| 31> MaxIter 1000
| 32> end
| 33>
| 34> * xyz 0 1
| 35>   C                      -8.009871            -4.711269            -2.147200
| 36>   O                      -8.298918            -5.552520            -1.027599
| 37>   H                      -8.177552            -5.122342            -0.191332
| 38>   H                      -8.178726            -5.149591            -3.108748
| 39>   H                      -8.576040            -3.788171            -2.055177
| 40>   H                      -7.060665            -4.281000            -2.058181
| 41>   C                    : -10.396146           -7.647223            -3.446009
| 42>   O                    : -10.484767           -6.889899            -2.261590
| 43>   H                    : -9.554610            -6.738956            -2.021986
| 44>   H                    : -11.373736           -7.836111            -3.842640
| 45>   H                    : -9.853171            -7.138727            -4.248777
| 46>   H                    : -9.812399            -8.584707            -3.369534
| 47> *
| 48>
| 49> #Run DFT-D3 single point of the particle with dimer basis set
| 50> $new_job
| 51> %base "11-108_DFT_B"
| 52> ! wB97X-D3 def2-TZVP TIGHTSCF CHELPG PMODEL
| 53>
| 54> %scf
| 55> MaxIter 1000
| 56> end
| 57>
| 58> * xyz 0 1
| 59>   C                    : -8.009871            -4.711269            -2.147200
| 60>   O                    : -8.298918            -5.552520            -1.027599
| 61>   H                    : -8.177552            -5.122342            -0.191332
| 62>   H                    : -8.178726            -5.149591            -3.108748
| 63>   H                    : -8.576040            -3.788171            -2.055177
| 64>   H                    : -7.060665            -4.281000            -2.058181
| 65>   C                      -10.396146           -7.647223            -3.446009
| 66>   O                      -10.484767           -6.889899            -2.261590
| 67>   H                      -9.554610            -6.738956            -2.021986
| 68>   H                      -11.373736           -7.836111            -3.842640
| 69>   H                      -9.853171            -7.138727            -4.248777
| 70>   H                      -9.812399            -8.584707            -3.369534
| 71> *
| 72>
| 73>                          ****END OF INPUT****
 Total Charge           Charge          ....    0
 Multiplicity           Mult            ....    1
 Number of Electrons    NEL             ....   36
Dispersion correction           -0.001872870
FINAL SINGLE POINT ENERGY      -231.468132308095
Dispersion correction           -0.000237372
FINAL SINGLE POINT ENERGY      -115.728043464087

CARTESIAN COORDINATES (ANGSTROEM)
---------------------------------
  C     -8.009871   -4.711269   -2.147200
  O     -8.298918   -5.552520   -1.027599
  H     -8.177552   -5.122342   -0.191332
  H     -8.178726   -5.149591   -3.108748
  H     -8.576040   -3.788171   -2.055177
  H     -7.060665   -4.281000   -2.058181
  C    -10.396146   -7.647223   -3.446009
  O    -10.484767   -6.889899   -2.261590
  H     -9.554610   -6.738956   -2.021986
  H    -11.373736   -7.836111   -3.842640
  H     -9.853171   -7.138727   -4.248777
  H     -9.812399   -8.584707   -3.369534

 Multiplicity           Mult            ....    1
 Number of Electrons    NEL             ....   18
 Basis Dimension        Dim             ....  172

ORBITAL ENERGIES
----------------

  NO   OCC          E(Eh)            E(eV)
   0   2.0000     -19.237778      -523.4866
   1   2.0000     -10.311895      -280.6009
   2   2.0000      -1.141146       -31.0522
   3   2.0000      -0.795552       -21.6481
   4   2.0000      -0.616419       -16.7736
   5   2.0000      -0.534880       -14.5548
   6   2.0000      -0.528491       -14.3810
   7   2.0000      -0.446162       -12.1407
   8   2.0000      -0.373101       -10.1526
   9   0.0000       0.073776         2.0075
  10   0.0000       0.131406         3.5757
  11   0.0000       0.148436         4.0391
  12   0.0000       0.168369         4.5816
  13   0.0000       0.199942         5.4407

MULLIKEN ATOMIC CHARGES
-----------------------
   0 C :   -0.008499
   1 O :    0.000006
   2 H :   -0.000111
   3 H :   -0.000666
   4 H :    0.000573
   5 H :   -0.000654
   6 C :   -0.177218
   7 O :   -0.449413
   8 H :    0.313986
   9 H :    0.121308
  10 H :    0.098122
  11 H :    0.102566
Sum of atomic charges:    0.0000000

LOEWDIN ATOMIC CHARGES
----------------------
   0 C :   -0.012732
   1 O :   -0.016534
   2 H :   -0.000725
   3 H :   -0.002685
   4 H :   -0.000421
   5 H :   -0.000264
   6 C :   -0.395859
   7 O :   -0.055174
   8 H :    0.190903
   9 H :    0.103857
  10 H :    0.093196
  11 H :    0.096440

  Mayer bond orders larger than 0.1
B(  6-C ,  7-O ) :   1.0109 B(  6-C ,  9-H ) :   0.9764 B(  6-C , 10-H ) :   0.9716
B(  6-C , 11-H ) :   0.9778 B(  7-O ,  8-H ) :   0.9012

Dispersion correction           -0.000235529
FINAL SINGLE POINT ENERGY      -115.734694910390

DIPOLE MOMENT
-------------
                                X             Y             Z
Electronic contribution:     -0.38446       0.98170       1.64525
Nuclear contribution   :      0.97741      -1.17543      -1.96377
                        -----------------------------------------
Total Dipole Moment    :      0.59294      -0.19373      -0.31852
                        -----------------------------------------
Magnitude (a.u.)       :      0.70041
Magnitude (Debye)      :      1.78029

Rotational constants in cm-1:     4.347295     0.837913     0.798340
Rotational constants in MHz : 130328.636318 25119.986965 23933.642659

                             ****ORCA TERMINATED NORMALLY****
TOTAL RUN TIME: 0 days 0 hours 1 minutes 12 seconds 387 msec
