                         Program Version 4.1.2  - RELEASE  -
|  1> #Run DFT-D3 single point of the dimer
|  2> ! wB97X-D3 def2-TZVP TIGHTSCF CHELPG PMODEL PAL8
|  3>
|  4> %base "15-172_DFT_AB"
|  5>
|  6> %scf
|  7> MaxIter 1000
|  8> end
|  9>
| 10> * xyz 0 1
| 11>   C                      -0.016333            -2.488242            -0.118915
| 12>   O                      1.397039             -2.664913            -0.010818
| 13>   H                      1.520192             -3.372147            0.554595
| 14>   H                      -0.521164            -3.413662            -0.468075
| 15>   H                      -0.463068            -2.346561            0.852921
| 16>   H                      -0.441045            -1.658200            -0.760794
| 17>   C                      4.428965             -1.741349            -2.223065
| 18>   O                      3.103806             -1.366639            -1.848671
| 19>   H                      3.017153             -1.586818            -0.897268
| 20>   H                      4.623394             -1.404204            -3.261641
| 21>   H                      5.154205             -1.239087            -1.567647
| 22>   H                      4.599700             -2.855086            -2.210963
| 23> *
| 24>
| 25> #Run DFT-D3 single point of the molecule with dimer basis set
| 26> $new_job
| 27> %base "15-172_DFT_A"
| 28> ! wB97X-D3 def2-TZVP TIGHTSCF CHELPG PMODEL
| 29>
| 30> %scf
| 31> MaxIter 1000
| 32> end
| 33>
| 34> * xyz 0 1
| 35>   C                      -0.016333            -2.488242            -0.118915
| 36>   O                      1.397039             -2.664913            -0.010818
| 37>   H                      1.520192             -3.372147            0.554595
| 38>   H                      -0.521164            -3.413662            -0.468075
| 39>   H                      -0.463068            -2.346561            0.852921
| 40>   H                      -0.441045            -1.658200            -0.760794
| 41>   C                    : 4.428965             -1.741349            -2.223065
| 42>   O                    : 3.103806             -1.366639            -1.848671
| 43>   H                    : 3.017153             -1.586818            -0.897268
| 44>   H                    : 4.623394             -1.404204            -3.261641
| 45>   H                    : 5.154205             -1.239087            -1.567647
| 46>   H                    : 4.599700             -2.855086            -2.210963
| 47> *
| 48>
| 49> #Run DFT-D3 single point of the particle with dimer basis set
| 50> $new_job
| 51> %base "15-172_DFT_B"
| 52> ! wB97X-D3 def2-TZVP TIGHTSCF CHELPG PMODEL
| 53>
| 54> %scf
| 55> MaxIter 1000
| 56> end
| 57>
| 58> * xyz 0 1
| 59>   C                    : -0.016333            -2.488242            -0.118915
| 60>   O                    : 1.397039             -2.664913            -0.010818
| 61>   H                    : 1.520192             -3.372147            0.554595
| 62>   H                    : -0.521164            -3.413662            -0.468075
| 63>   H                    : -0.463068            -2.346561            0.852921
| 64>   H                    : -0.441045            -1.658200            -0.760794
| 65>   C                      4.428965             -1.741349            -2.223065
| 66>   O                      3.103806             -1.366639            -1.848671
| 67>   H                      3.017153             -1.586818            -0.897268
| 68>   H                      4.623394             -1.404204            -3.261641
| 69>   H                      5.154205             -1.239087            -1.567647
| 70>   H                      4.599700             -2.855086            -2.210963
| 71> *
| 72>
| 73>                          ****END OF INPUT****
 Total Charge           Charge          ....    0
 Multiplicity           Mult            ....    1
 Number of Electrons    NEL             ....   36
Dispersion correction           -0.001449380
FINAL SINGLE POINT ENERGY      -231.467083044792
Dispersion correction           -0.000250070
FINAL SINGLE POINT ENERGY      -115.727763382783

CARTESIAN COORDINATES (ANGSTROEM)
---------------------------------
  C     -0.016333   -2.488242   -0.118915
  O      1.397039   -2.664913   -0.010818
  H      1.520192   -3.372147    0.554595
  H     -0.521164   -3.413662   -0.468075
  H     -0.463068   -2.346561    0.852921
  H     -0.441045   -1.658200   -0.760794
  C      4.428965   -1.741349   -2.223065
  O      3.103806   -1.366639   -1.848671
  H      3.017153   -1.586818   -0.897268
  H      4.623394   -1.404204   -3.261641
  H      5.154205   -1.239087   -1.567647
  H      4.599700   -2.855086   -2.210963

 Multiplicity           Mult            ....    1
 Number of Electrons    NEL             ....   18
 Basis Dimension        Dim             ....  172

ORBITAL ENERGIES
----------------

  NO   OCC          E(Eh)            E(eV)
   0   2.0000     -19.234687      -523.4024
   1   2.0000     -10.319787      -280.8157
   2   2.0000      -1.130803       -30.7707
   3   2.0000      -0.789670       -21.4880
   4   2.0000      -0.604430       -16.4474
   5   2.0000      -0.540244       -14.7008
   6   2.0000      -0.523480       -14.2446
   7   2.0000      -0.434645       -11.8273
   8   2.0000      -0.375100       -10.2070
   9   0.0000       0.078896         2.1469
  10   0.0000       0.122602         3.3362
  11   0.0000       0.151614         4.1256
  12   0.0000       0.171817         4.6754
  13   0.0000       0.197084         5.3629

MULLIKEN ATOMIC CHARGES
-----------------------
   0 C :   -0.003448
   1 O :   -0.003262
   2 H :   -0.000341
   3 H :    0.000257
   4 H :    0.000001
   5 H :   -0.000303
   6 C :   -0.168887
   7 O :   -0.464856
   8 H :    0.316994
   9 H :    0.118709
  10 H :    0.104773
  11 H :    0.100363
Sum of atomic charges:    0.0000000

LOEWDIN ATOMIC CHARGES
----------------------
   0 C :   -0.003159
   1 O :   -0.016071
   2 H :   -0.001127
   3 H :   -0.000042
   4 H :   -0.000068
   5 H :   -0.000310
   6 C :   -0.385813
   7 O :   -0.084373
   8 H :    0.185807
   9 H :    0.110936
  10 H :    0.095142
  11 H :    0.099079

  Mayer bond orders larger than 0.1
B(  6-C ,  7-O ) :   1.0046 B(  6-C ,  9-H ) :   0.9733 B(  6-C , 10-H ) :   0.9804
B(  6-C , 11-H ) :   0.9669 B(  7-O ,  8-H ) :   0.8954

Dispersion correction           -0.000250367
FINAL SINGLE POINT ENERGY      -115.736170089074

DIPOLE MOMENT
-------------
                                X             Y             Z
Electronic contribution:     -1.72711       0.53471       0.33923
Nuclear contribution   :      2.20979      -0.79754       0.08380
                        -----------------------------------------
Total Dipole Moment    :      0.48268      -0.26283       0.42303
                        -----------------------------------------
Magnitude (a.u.)       :      0.69355
Magnitude (Debye)      :      1.76287

Rotational constants in cm-1:     4.134439     0.815157     0.787603
Rotational constants in MHz : 123947.368587 24437.800174 23611.735541

                             ****ORCA TERMINATED NORMALLY****
TOTAL RUN TIME: 0 days 0 hours 1 minutes 3 seconds 107 msec
