                         Program Version 4.1.2  - RELEASE  -
|  1> #Run DFT-D3 single point of the dimer
|  2> ! wB97X-D3 def2-TZVP TIGHTSCF CHELPG PMODEL PAL8
|  3>
|  4> %base "12-197_DFT_AB"
|  5>
|  6> %scf
|  7> MaxIter 1000
|  8> end
|  9>
| 10> * xyz 0 1
| 11>   C                      -7.867867            5.494909             -8.873180
| 12>   O                      -7.980815            4.918481             -7.512188
| 13>   H                      -8.024387            3.921917             -7.523858
| 14>   H                      -8.636594            6.169124             -9.121153
| 15>   H                      -6.906587            5.950155             -9.093008
| 16>   H                      -7.769638            4.660096             -9.544670
| 17>   C                      -7.819457            0.426416             -10.315546
| 18>   O                      -7.990569            1.743504             -9.793378
| 19>   H                      -8.515047            1.698552             -8.973592
| 20>   H                      -6.998953            -0.118980            -9.874243
| 21>   H                      -8.737981            -0.115613            -10.095287
| 22>   H                      -7.639506            0.411101             -11.368478
| 23> *
| 24>
| 25> #Run DFT-D3 single point of the molecule with dimer basis set
| 26> $new_job
| 27> %base "12-197_DFT_A"
| 28> ! wB97X-D3 def2-TZVP TIGHTSCF CHELPG PMODEL
| 29>
| 30> %scf
| 31> MaxIter 1000
| 32> end
| 33>
| 34> * xyz 0 1
| 35>   C                      -7.867867            5.494909             -8.873180
| 36>   O                      -7.980815            4.918481             -7.512188
| 37>   H                      -8.024387            3.921917             -7.523858
| 38>   H                      -8.636594            6.169124             -9.121153
| 39>   H                      -6.906587            5.950155             -9.093008
| 40>   H                      -7.769638            4.660096             -9.544670
| 41>   C                    : -7.819457            0.426416             -10.315546
| 42>   O                    : -7.990569            1.743504             -9.793378
| 43>   H                    : -8.515047            1.698552             -8.973592
| 44>   H                    : -6.998953            -0.118980            -9.874243
| 45>   H                    : -8.737981            -0.115613            -10.095287
| 46>   H                    : -7.639506            0.411101             -11.368478
| 47> *
| 48>
| 49> #Run DFT-D3 single point of the particle with dimer basis set
| 50> $new_job
| 51> %base "12-197_DFT_B"
| 52> ! wB97X-D3 def2-TZVP TIGHTSCF CHELPG PMODEL
| 53>
| 54> %scf
| 55> MaxIter 1000
| 56> end
| 57>
| 58> * xyz 0 1
| 59>   C                    : -7.867867            5.494909             -8.873180
| 60>   O                    : -7.980815            4.918481             -7.512188
| 61>   H                    : -8.024387            3.921917             -7.523858
| 62>   H                    : -8.636594            6.169124             -9.121153
| 63>   H                    : -6.906587            5.950155             -9.093008
| 64>   H                    : -7.769638            4.660096             -9.544670
| 65>   C                      -7.819457            0.426416             -10.315546
| 66>   O                      -7.990569            1.743504             -9.793378
| 67>   H                      -8.515047            1.698552             -8.973592
| 68>   H                      -6.998953            -0.118980            -9.874243
| 69>   H                      -8.737981            -0.115613            -10.095287
| 70>   H                      -7.639506            0.411101             -11.368478
| 71> *
| 72>
| 73>                          ****END OF INPUT****
 Total Charge           Charge          ....    0
 Multiplicity           Mult            ....    1
 Number of Electrons    NEL             ....   36
Dispersion correction           -0.001389536
FINAL SINGLE POINT ENERGY      -231.458957530961
Dispersion correction           -0.000275769
FINAL SINGLE POINT ENERGY      -115.723461283034

CARTESIAN COORDINATES (ANGSTROEM)
---------------------------------
  C     -7.867867    5.494909   -8.873180
  O     -7.980815    4.918481   -7.512188
  H     -8.024387    3.921917   -7.523858
  H     -8.636594    6.169124   -9.121153
  H     -6.906587    5.950155   -9.093008
  H     -7.769638    4.660096   -9.544670
  C     -7.819457    0.426416  -10.315546
  O     -7.990569    1.743504   -9.793378
  H     -8.515047    1.698552   -8.973592
  H     -6.998953   -0.118980   -9.874243
  H     -8.737981   -0.115613  -10.095287
  H     -7.639506    0.411101  -11.368478

 Multiplicity           Mult            ....    1
 Number of Electrons    NEL             ....   18
 Basis Dimension        Dim             ....  172

ORBITAL ENERGIES
----------------

  NO   OCC          E(Eh)            E(eV)
   0   2.0000     -19.230162      -523.2793
   1   2.0000     -10.310005      -280.5495
   2   2.0000      -1.128464       -30.7071
   3   2.0000      -0.799300       -21.7501
   4   2.0000      -0.607033       -16.5182
   5   2.0000      -0.541910       -14.7461
   6   2.0000      -0.533289       -14.5115
   7   2.0000      -0.430938       -11.7264
   8   2.0000      -0.373187       -10.1549
   9   0.0000       0.092512         2.5174
  10   0.0000       0.121307         3.3009
  11   0.0000       0.151386         4.1194
  12   0.0000       0.179765         4.8917
  13   0.0000       0.200903         5.4669

MULLIKEN ATOMIC CHARGES
-----------------------
   0 C :    0.002619
   1 O :    0.000237
   2 H :   -0.002399
   3 H :   -0.000048
   4 H :   -0.000161
   5 H :   -0.006671
   6 C :   -0.166006
   7 O :   -0.476782
   8 H :    0.319814
   9 H :    0.102154
  10 H :    0.104300
  11 H :    0.122944
Sum of atomic charges:    0.0000000

LOEWDIN ATOMIC CHARGES
----------------------
   0 C :   -0.001823
   1 O :   -0.000079
   2 H :   -0.002030
   3 H :   -0.000012
   4 H :   -0.000014
   5 H :   -0.004767
   6 C :   -0.368961
   7 O :   -0.090760
   8 H :    0.177581
   9 H :    0.091887
  10 H :    0.097440
  11 H :    0.101539

  Mayer bond orders larger than 0.1
B(  6-C ,  7-O ) :   0.9993 B(  6-C ,  9-H ) :   0.9697 B(  6-C , 10-H ) :   0.9896
B(  6-C , 11-H ) :   0.9748 B(  7-O ,  8-H ) :   0.8931

Dispersion correction           -0.000242458
FINAL SINGLE POINT ENERGY      -115.734055225434

DIPOLE MOMENT
-------------
                                X             Y             Z
Electronic contribution:     -0.08634       1.73189       0.48845
Nuclear contribution   :     -0.18363      -2.31933      -0.19541
                        -----------------------------------------
Total Dipole Moment    :     -0.26997      -0.58744       0.29304
                        -----------------------------------------
Magnitude (a.u.)       :      0.70982
Magnitude (Debye)      :      1.80422

Rotational constants in cm-1:     4.416994     0.819239     0.787651
Rotational constants in MHz : 132418.147112 24560.161472 23613.191530

                             ****ORCA TERMINATED NORMALLY****
TOTAL RUN TIME: 0 days 0 hours 0 minutes 56 seconds 894 msec
