                         Program Version 4.1.2  - RELEASE  -
|  1> #Run DFT-D3 single point of the dimer
|  2> ! wB97X-D3 def2-TZVP TIGHTSCF CHELPG PMODEL PAL8
|  3>
|  4> %base "1-101_DFT_AB"
|  5>
|  6> %scf
|  7> MaxIter 1000
|  8> end
|  9>
| 10> * xyz 0 1
| 11>   C                      -0.021919            8.009453             2.783988
| 12>   O                      -0.528219            7.199774             3.833651
| 13>   H                      0.125578             6.504699             4.084652
| 14>   H                      0.915588             8.444604             3.152632
| 15>   H                      0.145282             7.447361             1.830952
| 16>   H                      -0.773289            8.872872             2.476492
| 17>   C                      3.124411             6.760712             0.079226
| 18>   O                      3.436967             7.917179             -0.688378
| 19>   H                      4.331407             7.963091             -0.943924
| 20>   H                      3.279896             7.001139             1.161215
| 21>   H                      2.073027             6.448068             0.115483
| 22>   H                      3.707843             5.875850             -0.206455
| 23> *
| 24>
| 25> #Run DFT-D3 single point of the molecule with dimer basis set
| 26> $new_job
| 27> %base "1-101_DFT_A"
| 28> ! wB97X-D3 def2-TZVP TIGHTSCF CHELPG PMODEL
| 29>
| 30> %scf
| 31> MaxIter 1000
| 32> end
| 33>
| 34> * xyz 0 1
| 35>   C                      -0.021919            8.009453             2.783988
| 36>   O                      -0.528219            7.199774             3.833651
| 37>   H                      0.125578             6.504699             4.084652
| 38>   H                      0.915588             8.444604             3.152632
| 39>   H                      0.145282             7.447361             1.830952
| 40>   H                      -0.773289            8.872872             2.476492
| 41>   C                    : 3.124411             6.760712             0.079226
| 42>   O                    : 3.436967             7.917179             -0.688378
| 43>   H                    : 4.331407             7.963091             -0.943924
| 44>   H                    : 3.279896             7.001139             1.161215
| 45>   H                    : 2.073027             6.448068             0.115483
| 46>   H                    : 3.707843             5.875850             -0.206455
| 47> *
| 48>
| 49> #Run DFT-D3 single point of the particle with dimer basis set
| 50> $new_job
| 51> %base "1-101_DFT_B"
| 52> ! wB97X-D3 def2-TZVP TIGHTSCF CHELPG PMODEL
| 53>
| 54> %scf
| 55> MaxIter 1000
| 56> end
| 57>
| 58> * xyz 0 1
| 59>   C                    : -0.021919            8.009453             2.783988
| 60>   O                    : -0.528219            7.199774             3.833651
| 61>   H                    : 0.125578             6.504699             4.084652
| 62>   H                    : 0.915588             8.444604             3.152632
| 63>   H                    : 0.145282             7.447361             1.830952
| 64>   H                    : -0.773289            8.872872             2.476492
| 65>   C                      3.124411             6.760712             0.079226
| 66>   O                      3.436967             7.917179             -0.688378
| 67>   H                      4.331407             7.963091             -0.943924
| 68>   H                      3.279896             7.001139             1.161215
| 69>   H                      2.073027             6.448068             0.115483
| 70>   H                      3.707843             5.875850             -0.206455
| 71> *
| 72>
| 73>                          ****END OF INPUT****
 Total Charge           Charge          ....    0
 Multiplicity           Mult            ....    1
 Number of Electrons    NEL             ....   36
Dispersion correction           -0.001249815
FINAL SINGLE POINT ENERGY      -231.459961035085
Dispersion correction           -0.000261686
FINAL SINGLE POINT ENERGY      -115.729118877435

CARTESIAN COORDINATES (ANGSTROEM)
---------------------------------
  C     -0.021919    8.009453    2.783988
  O     -0.528219    7.199774    3.833651
  H      0.125578    6.504699    4.084652
  H      0.915588    8.444604    3.152632
  H      0.145282    7.447361    1.830952
  H     -0.773289    8.872872    2.476492
  C      3.124411    6.760712    0.079226
  O      3.436967    7.917179   -0.688378
  H      4.331407    7.963091   -0.943924
  H      3.279896    7.001139    1.161215
  H      2.073027    6.448068    0.115483
  H      3.707843    5.875850   -0.206455

 Multiplicity           Mult            ....    1
 Number of Electrons    NEL             ....   18
 Basis Dimension        Dim             ....  172

ORBITAL ENERGIES
----------------

  NO   OCC          E(Eh)            E(eV)
   0   2.0000     -19.226935      -523.1915
   1   2.0000     -10.318721      -280.7867
   2   2.0000      -1.136091       -30.9146
   3   2.0000      -0.800389       -21.7797
   4   2.0000      -0.614501       -16.7214
   5   2.0000      -0.539550       -14.6819
   6   2.0000      -0.527378       -14.3507
   7   2.0000      -0.427436       -11.6311
   8   2.0000      -0.371332       -10.1045
   9   0.0000       0.085985         2.3398
  10   0.0000       0.121191         3.2978
  11   0.0000       0.152859         4.1595
  12   0.0000       0.164085         4.4650
  13   0.0000       0.181108         4.9282

MULLIKEN ATOMIC CHARGES
-----------------------
   0 C :    0.000364
   1 O :    0.000032
   2 H :   -0.000007
   3 H :    0.000005
   4 H :   -0.000478
   5 H :   -0.000040
   6 C :   -0.169416
   7 O :   -0.479964
   8 H :    0.315073
   9 H :    0.101936
  10 H :    0.123371
  11 H :    0.109124
Sum of atomic charges:   -0.0000000

LOEWDIN ATOMIC CHARGES
----------------------
   0 C :   -0.000794
   1 O :   -0.000006
   2 H :   -0.000010
   3 H :   -0.000219
   4 H :   -0.001419
   5 H :   -0.000006
   6 C :   -0.382116
   7 O :   -0.070488
   8 H :    0.149196
   9 H :    0.100845
  10 H :    0.108240
  11 H :    0.096778

  Mayer bond orders larger than 0.1
B(  6-C ,  7-O ) :   0.9975 B(  6-C ,  9-H ) :   0.9821 B(  6-C , 10-H ) :   0.9680
B(  6-C , 11-H ) :   0.9750 B(  7-O ,  8-H ) :   0.9003

Dispersion correction           -0.000269780
FINAL SINGLE POINT ENERGY      -115.730243176463

DIPOLE MOMENT
-------------
                                X             Y             Z
Electronic contribution:      0.30349       1.50026      -1.13608
Nuclear contribution   :      0.14986      -1.95734       1.27642
                        -----------------------------------------
Total Dipole Moment    :      0.45335      -0.45708       0.14034
                        -----------------------------------------
Magnitude (a.u.)       :      0.65890
Magnitude (Debye)      :      1.67478

Rotational constants in cm-1:     4.477673     0.805760     0.780272
Rotational constants in MHz : 134237.254811 24156.090675 23391.958355

                             ****ORCA TERMINATED NORMALLY****
TOTAL RUN TIME: 0 days 0 hours 4 minutes 22 seconds 439 msec
