                         Program Version 4.1.2  - RELEASE  -
|  1> #Run DFT-D3 single point of the dimer
|  2> ! wB97X-D3 def2-TZVP TIGHTSCF CHELPG PMODEL PAL8
|  3>
|  4> %base "14-161_DFT_AB"
|  5>
|  6> %scf
|  7> MaxIter 1000
|  8> end
|  9>
| 10> * xyz 0 1
| 11>   C                      3.464582             8.813456             -10.428779
| 12>   O                      2.336244             8.000384             -10.454320
| 13>   H                      1.787386             8.235680             -11.193072
| 14>   H                      3.296530             9.821968             -10.304526
| 15>   H                      4.093428             8.402228             -9.639219
| 16>   H                      4.030470             8.628090             -11.359857
| 17>   C                      -0.625806            5.810472             -9.874929
| 18>   O                      0.376086             6.112436             -10.788742
| 19>   H                      0.915324             6.570061             -10.169449
| 20>   H                      -0.324112            5.804178             -8.817376
| 21>   H                      -1.405672            6.594113             -9.918091
| 22>   H                      -1.220156            4.938651             -10.091798
| 23> *
| 24>
| 25> #Run DFT-D3 single point of the molecule with dimer basis set
| 26> $new_job
| 27> %base "14-161_DFT_A"
| 28> ! wB97X-D3 def2-TZVP TIGHTSCF CHELPG PMODEL
| 29>
| 30> %scf
| 31> MaxIter 1000
| 32> end
| 33>
| 34> * xyz 0 1
| 35>   C                      3.464582             8.813456             -10.428779
| 36>   O                      2.336244             8.000384             -10.454320
| 37>   H                      1.787386             8.235680             -11.193072
| 38>   H                      3.296530             9.821968             -10.304526
| 39>   H                      4.093428             8.402228             -9.639219
| 40>   H                      4.030470             8.628090             -11.359857
| 41>   C                    : -0.625806            5.810472             -9.874929
| 42>   O                    : 0.376086             6.112436             -10.788742
| 43>   H                    : 0.915324             6.570061             -10.169449
| 44>   H                    : -0.324112            5.804178             -8.817376
| 45>   H                    : -1.405672            6.594113             -9.918091
| 46>   H                    : -1.220156            4.938651             -10.091798
| 47> *
| 48>
| 49> #Run DFT-D3 single point of the particle with dimer basis set
| 50> $new_job
| 51> %base "14-161_DFT_B"
| 52> ! wB97X-D3 def2-TZVP TIGHTSCF CHELPG PMODEL
| 53>
| 54> %scf
| 55> MaxIter 1000
| 56> end
| 57>
| 58> * xyz 0 1
| 59>   C                    : 3.464582             8.813456             -10.428779
| 60>   O                    : 2.336244             8.000384             -10.454320
| 61>   H                    : 1.787386             8.235680             -11.193072
| 62>   H                    : 3.296530             9.821968             -10.304526
| 63>   H                    : 4.093428             8.402228             -9.639219
| 64>   H                    : 4.030470             8.628090             -11.359857
| 65>   C                      -0.625806            5.810472             -9.874929
| 66>   O                      0.376086             6.112436             -10.788742
| 67>   H                      0.915324             6.570061             -10.169449
| 68>   H                      -0.324112            5.804178             -8.817376
| 69>   H                      -1.405672            6.594113             -9.918091
| 70>   H                      -1.220156            4.938651             -10.091798
| 71> *
| 72>
| 73>                          ****END OF INPUT****
 Total Charge           Charge          ....    0
 Multiplicity           Mult            ....    1
 Number of Electrons    NEL             ....   36
Dispersion correction           -0.001349556
FINAL SINGLE POINT ENERGY      -231.464809236414
Dispersion correction           -0.000218485
FINAL SINGLE POINT ENERGY      -115.732936423390

CARTESIAN COORDINATES (ANGSTROEM)
---------------------------------
  C      3.464582    8.813456  -10.428779
  O      2.336244    8.000384  -10.454320
  H      1.787386    8.235680  -11.193072
  H      3.296530    9.821968  -10.304526
  H      4.093428    8.402228   -9.639219
  H      4.030470    8.628090  -11.359857
  C     -0.625806    5.810472   -9.874929
  O      0.376086    6.112436  -10.788742
  H      0.915324    6.570061  -10.169449
  H     -0.324112    5.804178   -8.817376
  H     -1.405672    6.594113   -9.918091
  H     -1.220156    4.938651  -10.091798

 Multiplicity           Mult            ....    1
 Number of Electrons    NEL             ....   18
 Basis Dimension        Dim             ....  172

ORBITAL ENERGIES
----------------

  NO   OCC          E(Eh)            E(eV)
   0   2.0000     -19.236342      -523.4475
   1   2.0000     -10.312830      -280.6264
   2   2.0000      -1.161006       -31.5926
   3   2.0000      -0.793638       -21.5960
   4   2.0000      -0.622210       -16.9312
   5   2.0000      -0.537865       -14.6361
   6   2.0000      -0.535848       -14.5812
   7   2.0000      -0.452520       -12.3137
   8   2.0000      -0.370470       -10.0810
   9   0.0000       0.079789         2.1712
  10   0.0000       0.121941         3.3182
  11   0.0000       0.154096         4.1932
  12   0.0000       0.176129         4.7927
  13   0.0000       0.199529         5.4294

MULLIKEN ATOMIC CHARGES
-----------------------
   0 C :   -0.000466
   1 O :   -0.003099
   2 H :   -0.004997
   3 H :   -0.000039
   4 H :    0.000011
   5 H :    0.000003
   6 C :   -0.197384
   7 O :   -0.428504
   8 H :    0.315008
   9 H :    0.106282
  10 H :    0.095509
  11 H :    0.117677
Sum of atomic charges:    0.0000000

LOEWDIN ATOMIC CHARGES
----------------------
   0 C :   -0.000913
   1 O :   -0.018439
   2 H :   -0.008430
   3 H :   -0.000026
   4 H :   -0.000047
   5 H :   -0.000026
   6 C :   -0.417730
   7 O :   -0.027004
   8 H :    0.176589
   9 H :    0.098181
  10 H :    0.096342
  11 H :    0.101504

  Mayer bond orders larger than 0.1
B(  6-C ,  7-O ) :   1.0135 B(  6-C ,  9-H ) :   0.9842 B(  6-C , 10-H ) :   0.9773
B(  6-C , 11-H ) :   0.9741 B(  7-O ,  8-H ) :   0.9023

Dispersion correction           -0.000213401
FINAL SINGLE POINT ENERGY      -115.725930508640

DIPOLE MOMENT
-------------
                                X             Y             Z
Electronic contribution:      1.44636       0.17653      -1.40571
Nuclear contribution   :     -1.48581      -0.01841       2.11780
                        -----------------------------------------
Total Dipole Moment    :     -0.03945       0.15812       0.71210
                        -----------------------------------------
Magnitude (a.u.)       :      0.73051
Magnitude (Debye)      :      1.85680

Rotational constants in cm-1:     4.380223     0.865590     0.822868
Rotational constants in MHz : 131315.780116 25949.725277 24668.974876

                             ****ORCA TERMINATED NORMALLY****
TOTAL RUN TIME: 0 days 0 hours 1 minutes 8 seconds 873 msec
