                         Program Version 4.1.2  - RELEASE  -
|  1> #Run DFT-D3 single point of the dimer
|  2> ! wB97X-D3 def2-TZVP TIGHTSCF CHELPG PMODEL PAL8
|  3>
|  4> %base "18-200_DFT_AB"
|  5>
|  6> %scf
|  7> MaxIter 1000
|  8> end
|  9>
| 10> * xyz 0 1
| 11>   C                      -3.375293            -4.371187            -11.085779
| 12>   O                      -3.565899            -3.036521            -10.753621
| 13>   H                      -4.492599            -2.863608            -10.785166
| 14>   H                      -2.646114            -4.498764            -11.924313
| 15>   H                      -2.873743            -4.873393            -10.315072
| 16>   H                      -4.377217            -4.896034            -11.305137
| 17>   C                      -0.754769            -1.422631            -9.306047
| 18>   O                      -1.310124            -2.712683            -9.086233
| 19>   H                      -1.951903            -2.836514            -9.786444
| 20>   H                      -0.309444            -0.936969            -8.370109
| 21>   H                      0.081290             -1.454435            -10.056730
| 22>   H                      -1.496361            -0.747542            -9.587582
| 23> *
| 24>
| 25> #Run DFT-D3 single point of the molecule with dimer basis set
| 26> $new_job
| 27> %base "18-200_DFT_A"
| 28> ! wB97X-D3 def2-TZVP TIGHTSCF CHELPG PMODEL
| 29>
| 30> %scf
| 31> MaxIter 1000
| 32> end
| 33>
| 34> * xyz 0 1
| 35>   C                      -3.375293            -4.371187            -11.085779
| 36>   O                      -3.565899            -3.036521            -10.753621
| 37>   H                      -4.492599            -2.863608            -10.785166
| 38>   H                      -2.646114            -4.498764            -11.924313
| 39>   H                      -2.873743            -4.873393            -10.315072
| 40>   H                      -4.377217            -4.896034            -11.305137
| 41>   C                    : -0.754769            -1.422631            -9.306047
| 42>   O                    : -1.310124            -2.712683            -9.086233
| 43>   H                    : -1.951903            -2.836514            -9.786444
| 44>   H                    : -0.309444            -0.936969            -8.370109
| 45>   H                    : 0.081290             -1.454435            -10.056730
| 46>   H                    : -1.496361            -0.747542            -9.587582
| 47> *
| 48>
| 49> #Run DFT-D3 single point of the particle with dimer basis set
| 50> $new_job
| 51> %base "18-200_DFT_B"
| 52> ! wB97X-D3 def2-TZVP TIGHTSCF CHELPG PMODEL
| 53>
| 54> %scf
| 55> MaxIter 1000
| 56> end
| 57>
| 58> * xyz 0 1
| 59>   C                    : -3.375293            -4.371187            -11.085779
| 60>   O                    : -3.565899            -3.036521            -10.753621
| 61>   H                    : -4.492599            -2.863608            -10.785166
| 62>   H                    : -2.646114            -4.498764            -11.924313
| 63>   H                    : -2.873743            -4.873393            -10.315072
| 64>   H                    : -4.377217            -4.896034            -11.305137
| 65>   C                      -0.754769            -1.422631            -9.306047
| 66>   O                      -1.310124            -2.712683            -9.086233
| 67>   H                      -1.951903            -2.836514            -9.786444
| 68>   H                      -0.309444            -0.936969            -8.370109
| 69>   H                      0.081290             -1.454435            -10.056730
| 70>   H                      -1.496361            -0.747542            -9.587582
| 71> *
| 72>
| 73>                          ****END OF INPUT****
 Total Charge           Charge          ....    0
 Multiplicity           Mult            ....    1
 Number of Electrons    NEL             ....   36
Dispersion correction           -0.001795816
FINAL SINGLE POINT ENERGY      -231.467518004401
Dispersion correction           -0.000243485
FINAL SINGLE POINT ENERGY      -115.729969159394

CARTESIAN COORDINATES (ANGSTROEM)
---------------------------------
  C     -3.375293   -4.371187  -11.085779
  O     -3.565899   -3.036521  -10.753621
  H     -4.492599   -2.863608  -10.785166
  H     -2.646114   -4.498764  -11.924313
  H     -2.873743   -4.873393  -10.315072
  H     -4.377217   -4.896034  -11.305137
  C     -0.754769   -1.422631   -9.306047
  O     -1.310124   -2.712683   -9.086233
  H     -1.951903   -2.836514   -9.786444
  H     -0.309444   -0.936969   -8.370109
  H      0.081290   -1.454435  -10.056730
  H     -1.496361   -0.747542   -9.587582

 Multiplicity           Mult            ....    1
 Number of Electrons    NEL             ....   18
 Basis Dimension        Dim             ....  172

ORBITAL ENERGIES
----------------

  NO   OCC          E(Eh)            E(eV)
   0   2.0000     -19.233011      -523.3568
   1   2.0000     -10.317250      -280.7466
   2   2.0000      -1.137503       -30.9530
   3   2.0000      -0.794271       -21.6132
   4   2.0000      -0.611821       -16.6485
   5   2.0000      -0.543645       -14.7933
   6   2.0000      -0.523956       -14.2576
   7   2.0000      -0.432653       -11.7731
   8   2.0000      -0.376379       -10.2418
   9   0.0000       0.073068         1.9883
  10   0.0000       0.132638         3.6093
  11   0.0000       0.156489         4.2583
  12   0.0000       0.160334         4.3629
  13   0.0000       0.197644         5.3782

MULLIKEN ATOMIC CHARGES
-----------------------
   0 C :   -0.002947
   1 O :   -0.004385
   2 H :   -0.000417
   3 H :    0.000406
   4 H :   -0.000453
   5 H :    0.000064
   6 C :   -0.174978
   7 O :   -0.460567
   8 H :    0.313692
   9 H :    0.112281
  10 H :    0.100741
  11 H :    0.116563
Sum of atomic charges:   -0.0000000

LOEWDIN ATOMIC CHARGES
----------------------
   0 C :   -0.011494
   1 O :   -0.021165
   2 H :   -0.000945
   3 H :   -0.000535
   4 H :   -0.002460
   5 H :   -0.000155
   6 C :   -0.384188
   7 O :   -0.063062
   8 H :    0.182878
   9 H :    0.116405
  10 H :    0.100097
  11 H :    0.084623

  Mayer bond orders larger than 0.1
B(  6-C ,  7-O ) :   0.9967 B(  6-C ,  9-H ) :   0.9717 B(  6-C , 10-H ) :   0.9753
B(  6-C , 11-H ) :   0.9800 B(  7-O ,  8-H ) :   0.9063

Dispersion correction           -0.000247902
FINAL SINGLE POINT ENERGY      -115.731385426561

DIPOLE MOMENT
-------------
                                X             Y             Z
Electronic contribution:     -0.71069      -1.71497       0.36870
Nuclear contribution   :      0.49770       2.17417      -0.88293
                        -----------------------------------------
Total Dipole Moment    :     -0.21299       0.45919      -0.51424
                        -----------------------------------------
Magnitude (a.u.)       :      0.72157
Magnitude (Debye)      :      1.83408

Rotational constants in cm-1:     4.297112     0.815090     0.792929
Rotational constants in MHz : 128824.186725 24435.776324 23771.426682

                             ****ORCA TERMINATED NORMALLY****
TOTAL RUN TIME: 0 days 0 hours 1 minutes 7 seconds 509 msec
