                         Program Version 4.1.2  - RELEASE  -
|  1> #Run DFT-D3 single point of the dimer
|  2> ! wB97X-D3 def2-TZVP TIGHTSCF CHELPG PMODEL PAL8
|  3>
|  4> %base "14-61_DFT_AB"
|  5>
|  6> %scf
|  7> MaxIter 1000
|  8> end
|  9>
| 10> * xyz 0 1
| 11>   C                      4.463888             10.329483            8.452455
| 12>   O                      5.053410             11.626280            8.445353
| 13>   H                      5.107064             11.999492            9.351809
| 14>   H                      3.465351             10.341592            8.955897
| 15>   H                      4.478914             10.000706            7.463618
| 16>   H                      5.187701             9.732460             8.978266
| 17>   C                      6.831958             6.294291             6.415026
| 18>   O                      7.505123             6.261990             5.193583
| 19>   H                      8.148449             6.962906             5.154953
| 20>   H                      7.482049             6.064620             7.250410
| 21>   H                      6.397184             7.314095             6.694785
| 22>   H                      5.952161             5.499594             6.404224
| 23> *
| 24>
| 25> #Run DFT-D3 single point of the molecule with dimer basis set
| 26> $new_job
| 27> %base "14-61_DFT_A"
| 28> ! wB97X-D3 def2-TZVP TIGHTSCF CHELPG PMODEL
| 29>
| 30> %scf
| 31> MaxIter 1000
| 32> end
| 33>
| 34> * xyz 0 1
| 35>   C                      4.463888             10.329483            8.452455
| 36>   O                      5.053410             11.626280            8.445353
| 37>   H                      5.107064             11.999492            9.351809
| 38>   H                      3.465351             10.341592            8.955897
| 39>   H                      4.478914             10.000706            7.463618
| 40>   H                      5.187701             9.732460             8.978266
| 41>   C                    : 6.831958             6.294291             6.415026
| 42>   O                    : 7.505123             6.261990             5.193583
| 43>   H                    : 8.148449             6.962906             5.154953
| 44>   H                    : 7.482049             6.064620             7.250410
| 45>   H                    : 6.397184             7.314095             6.694785
| 46>   H                    : 5.952161             5.499594             6.404224
| 47> *
| 48>
| 49> #Run DFT-D3 single point of the particle with dimer basis set
| 50> $new_job
| 51> %base "14-61_DFT_B"
| 52> ! wB97X-D3 def2-TZVP TIGHTSCF CHELPG PMODEL
| 53>
| 54> %scf
| 55> MaxIter 1000
| 56> end
| 57>
| 58> * xyz 0 1
| 59>   C                    : 4.463888             10.329483            8.452455
| 60>   O                    : 5.053410             11.626280            8.445353
| 61>   H                    : 5.107064             11.999492            9.351809
| 62>   H                    : 3.465351             10.341592            8.955897
| 63>   H                    : 4.478914             10.000706            7.463618
| 64>   H                    : 5.187701             9.732460             8.978266
| 65>   C                      6.831958             6.294291             6.415026
| 66>   O                      7.505123             6.261990             5.193583
| 67>   H                      8.148449             6.962906             5.154953
| 68>   H                      7.482049             6.064620             7.250410
| 69>   H                      6.397184             7.314095             6.694785
| 70>   H                      5.952161             5.499594             6.404224
| 71> *
| 72>
| 73>                          ****END OF INPUT****
 Total Charge           Charge          ....    0
 Multiplicity           Mult            ....    1
 Number of Electrons    NEL             ....   36
Dispersion correction           -0.000805326
FINAL SINGLE POINT ENERGY      -231.461399271926
Dispersion correction           -0.000225182
FINAL SINGLE POINT ENERGY      -115.730623313386

CARTESIAN COORDINATES (ANGSTROEM)
---------------------------------
  C      4.463888   10.329483    8.452455
  O      5.053410   11.626280    8.445353
  H      5.107064   11.999492    9.351809
  H      3.465351   10.341592    8.955897
  H      4.478914   10.000706    7.463618
  H      5.187701    9.732460    8.978266
  C      6.831958    6.294291    6.415026
  O      7.505123    6.261990    5.193583
  H      8.148449    6.962906    5.154953
  H      7.482049    6.064620    7.250410
  H      6.397184    7.314095    6.694785
  H      5.952161    5.499594    6.404224

 Multiplicity           Mult            ....    1
 Number of Electrons    NEL             ....   18
 Basis Dimension        Dim             ....  172

ORBITAL ENERGIES
----------------

  NO   OCC          E(Eh)            E(eV)
   0   2.0000     -19.232596      -523.3456
   1   2.0000     -10.325810      -280.9796
   2   2.0000      -1.144691       -31.1486
   3   2.0000      -0.788321       -21.4513
   4   2.0000      -0.619411       -16.8550
   5   2.0000      -0.535613       -14.5748
   6   2.0000      -0.522209       -14.2100
   7   2.0000      -0.429688       -11.6924
   8   2.0000      -0.372525       -10.1369
   9   0.0000       0.082477         2.2443
  10   0.0000       0.116106         3.1594
  11   0.0000       0.142414         3.8753
  12   0.0000       0.165596         4.5061
  13   0.0000       0.185270         5.0414

MULLIKEN ATOMIC CHARGES
-----------------------
   0 C :    0.000076
   1 O :   -0.000004
   2 H :   -0.000001
   3 H :   -0.000016
   4 H :   -0.000159
   5 H :   -0.000236
   6 C :   -0.162815
   7 O :   -0.466469
   8 H :    0.315754
   9 H :    0.104530
  10 H :    0.093636
  11 H :    0.115705
Sum of atomic charges:   -0.0000000

LOEWDIN ATOMIC CHARGES
----------------------
   0 C :   -0.000587
   1 O :   -0.000005
   2 H :   -0.000000
   3 H :   -0.000003
   4 H :   -0.000404
   5 H :   -0.000233
   6 C :   -0.415511
   7 O :   -0.058853
   8 H :    0.165219
   9 H :    0.087938
  10 H :    0.098213
  11 H :    0.124227

  Mayer bond orders larger than 0.1
B(  6-C ,  7-O ) :   1.0012 B(  6-C ,  9-H ) :   0.9716 B(  6-C , 10-H ) :   0.9725
B(  6-C , 11-H ) :   0.9697 B(  7-O ,  8-H ) :   0.8962

Dispersion correction           -0.000259673
FINAL SINGLE POINT ENERGY      -115.730367410641

DIPOLE MOMENT
-------------
                                X             Y             Z
Electronic contribution:      0.90802      -0.14190      -1.71181
Nuclear contribution   :     -0.72195       0.60458       2.15202
                        -----------------------------------------
Total Dipole Moment    :      0.18607       0.46268       0.44021
                        -----------------------------------------
Magnitude (a.u.)       :      0.66519
Magnitude (Debye)      :      1.69077

Rotational constants in cm-1:     4.124782     0.838634     0.797373
Rotational constants in MHz : 123657.848627 25141.607666 23904.649776

                             ****ORCA TERMINATED NORMALLY****
TOTAL RUN TIME: 0 days 0 hours 0 minutes 51 seconds 694 msec
