                         Program Version 4.1.2  - RELEASE  -
|  1> #Run DFT-D3 single point of the dimer
|  2> ! wB97X-D3 def2-TZVP TIGHTSCF CHELPG PMODEL PAL8
|  3>
|  4> %base "14-56_DFT_AB"
|  5>
|  6> %scf
|  7> MaxIter 1000
|  8> end
|  9>
| 10> * xyz 0 1
| 11>   C                      -3.823675            4.289136             -8.766144
| 12>   O                      -4.377185            5.267155             -9.559197
| 13>   H                      -4.576584            6.000657             -8.961619
| 14>   H                      -2.831440            4.544331             -8.466993
| 15>   H                      -4.245802            4.234392             -7.782589
| 16>   H                      -3.906820            3.308003             -9.284825
| 17>   C                      -4.073277            7.976176             -7.110372
| 18>   O                      -5.078021            7.769096             -8.089968
| 19>   H                      -5.291997            8.628323             -8.440307
| 20>   H                      -4.462552            8.605275             -6.311199
| 21>   H                      -3.792457            7.025304             -6.538516
| 22>   H                      -3.206535            8.432150             -7.580872
| 23> *
| 24>
| 25> #Run DFT-D3 single point of the molecule with dimer basis set
| 26> $new_job
| 27> %base "14-56_DFT_A"
| 28> ! wB97X-D3 def2-TZVP TIGHTSCF CHELPG PMODEL
| 29>
| 30> %scf
| 31> MaxIter 1000
| 32> end
| 33>
| 34> * xyz 0 1
| 35>   C                      -3.823675            4.289136             -8.766144
| 36>   O                      -4.377185            5.267155             -9.559197
| 37>   H                      -4.576584            6.000657             -8.961619
| 38>   H                      -2.831440            4.544331             -8.466993
| 39>   H                      -4.245802            4.234392             -7.782589
| 40>   H                      -3.906820            3.308003             -9.284825
| 41>   C                    : -4.073277            7.976176             -7.110372
| 42>   O                    : -5.078021            7.769096             -8.089968
| 43>   H                    : -5.291997            8.628323             -8.440307
| 44>   H                    : -4.462552            8.605275             -6.311199
| 45>   H                    : -3.792457            7.025304             -6.538516
| 46>   H                    : -3.206535            8.432150             -7.580872
| 47> *
| 48>
| 49> #Run DFT-D3 single point of the particle with dimer basis set
| 50> $new_job
| 51> %base "14-56_DFT_B"
| 52> ! wB97X-D3 def2-TZVP TIGHTSCF CHELPG PMODEL
| 53>
| 54> %scf
| 55> MaxIter 1000
| 56> end
| 57>
| 58> * xyz 0 1
| 59>   C                    : -3.823675            4.289136             -8.766144
| 60>   O                    : -4.377185            5.267155             -9.559197
| 61>   H                    : -4.576584            6.000657             -8.961619
| 62>   H                    : -2.831440            4.544331             -8.466993
| 63>   H                    : -4.245802            4.234392             -7.782589
| 64>   H                    : -3.906820            3.308003             -9.284825
| 65>   C                      -4.073277            7.976176             -7.110372
| 66>   O                      -5.078021            7.769096             -8.089968
| 67>   H                      -5.291997            8.628323             -8.440307
| 68>   H                      -4.462552            8.605275             -6.311199
| 69>   H                      -3.792457            7.025304             -6.538516
| 70>   H                      -3.206535            8.432150             -7.580872
| 71> *
| 72>
| 73>                          ****END OF INPUT****
 Total Charge           Charge          ....    0
 Multiplicity           Mult            ....    1
 Number of Electrons    NEL             ....   36
Dispersion correction           -0.001871489
FINAL SINGLE POINT ENERGY      -231.471284715584
Dispersion correction           -0.000209828
FINAL SINGLE POINT ENERGY      -115.730314789971

CARTESIAN COORDINATES (ANGSTROEM)
---------------------------------
  C     -3.823675    4.289136   -8.766144
  O     -4.377185    5.267155   -9.559197
  H     -4.576584    6.000657   -8.961619
  H     -2.831440    4.544331   -8.466993
  H     -4.245802    4.234392   -7.782589
  H     -3.906820    3.308003   -9.284825
  C     -4.073277    7.976176   -7.110372
  O     -5.078021    7.769096   -8.089968
  H     -5.291997    8.628323   -8.440307
  H     -4.462552    8.605275   -6.311199
  H     -3.792457    7.025304   -6.538516
  H     -3.206535    8.432150   -7.580872

 Multiplicity           Mult            ....    1
 Number of Electrons    NEL             ....   18
 Basis Dimension        Dim             ....  172

ORBITAL ENERGIES
----------------

  NO   OCC          E(Eh)            E(eV)
   0   2.0000     -19.229712      -523.2671
   1   2.0000     -10.317442      -280.7519
   2   2.0000      -1.137786       -30.9607
   3   2.0000      -0.792384       -21.5619
   4   2.0000      -0.608292       -16.5525
   5   2.0000      -0.550138       -14.9700
   6   2.0000      -0.522681       -14.2229
   7   2.0000      -0.430103       -11.7037
   8   2.0000      -0.374501       -10.1907
   9   0.0000       0.095545         2.5999
  10   0.0000       0.123521         3.3612
  11   0.0000       0.151304         4.1172
  12   0.0000       0.186023         5.0619
  13   0.0000       0.199859         5.4384

MULLIKEN ATOMIC CHARGES
-----------------------
   0 C :    0.001108
   1 O :   -0.002019
   2 H :   -0.005768
   3 H :   -0.000258
   4 H :   -0.000568
   5 H :    0.000004
   6 C :   -0.175126
   7 O :   -0.465540
   8 H :    0.311708
   9 H :    0.107301
  10 H :    0.120596
  11 H :    0.108561
Sum of atomic charges:   -0.0000000

LOEWDIN ATOMIC CHARGES
----------------------
   0 C :   -0.001615
   1 O :   -0.004200
   2 H :   -0.033503
   3 H :   -0.000242
   4 H :   -0.000394
   5 H :   -0.000011
   6 C :   -0.384586
   7 O :   -0.048825
   8 H :    0.164238
   9 H :    0.094696
  10 H :    0.120229
  11 H :    0.094213

  Mayer bond orders larger than 0.1
B(  6-C ,  7-O ) :   0.9807 B(  6-C ,  9-H ) :   0.9723 B(  6-C , 10-H ) :   0.9721
B(  6-C , 11-H ) :   0.9787 B(  7-O ,  8-H ) :   0.8988

Dispersion correction           -0.000233022
FINAL SINGLE POINT ENERGY      -115.733338398178

DIPOLE MOMENT
-------------
                                X             Y             Z
Electronic contribution:     -1.24270      -0.39654      -1.28605
Nuclear contribution   :      1.49783       1.03102       1.47632
                        -----------------------------------------
Total Dipole Moment    :      0.25513       0.63449       0.19027
                        -----------------------------------------
Magnitude (a.u.)       :      0.70983
Magnitude (Debye)      :      1.80426

Rotational constants in cm-1:     4.231905     0.826209     0.796608
Rotational constants in MHz : 126869.334019 24769.126655 23881.716134

                             ****ORCA TERMINATED NORMALLY****
TOTAL RUN TIME: 0 days 0 hours 0 minutes 59 seconds 515 msec
