                         Program Version 4.1.2  - RELEASE  -
|  1> #Run DFT-D3 single point of the dimer
|  2> ! wB97X-D3 def2-TZVP TIGHTSCF CHELPG PMODEL PAL8
|  3>
|  4> %base "1-43_DFT_AB"
|  5>
|  6> %scf
|  7> MaxIter 1000
|  8> end
|  9>
| 10> * xyz 0 1
| 11>   C                      -2.553089            -9.341690            7.829840
| 12>   O                      -3.202982            -9.262673            6.528423
| 13>   H                      -3.995979            -9.807772            6.501171
| 14>   H                      -1.675079            -8.720392            7.907150
| 15>   H                      -3.152298            -8.937749            8.646217
| 16>   H                      -2.217675            -10.345372           8.116701
| 17>   C                      -0.665410            -8.380681            4.393711
| 18>   O                      0.289953             -8.164521            5.389637
| 19>   H                      0.352855             -8.938722            5.877031
| 20>   H                      -0.398421            -7.807642            3.558172
| 21>   H                      -0.649855            -9.464361            4.143995
| 22>   H                      -1.682944            -8.024090            4.647246
| 23> *
| 24>
| 25> #Run DFT-D3 single point of the molecule with dimer basis set
| 26> $new_job
| 27> %base "1-43_DFT_A"
| 28> ! wB97X-D3 def2-TZVP TIGHTSCF CHELPG PMODEL
| 29>
| 30> %scf
| 31> MaxIter 1000
| 32> end
| 33>
| 34> * xyz 0 1
| 35>   C                      -2.553089            -9.341690            7.829840
| 36>   O                      -3.202982            -9.262673            6.528423
| 37>   H                      -3.995979            -9.807772            6.501171
| 38>   H                      -1.675079            -8.720392            7.907150
| 39>   H                      -3.152298            -8.937749            8.646217
| 40>   H                      -2.217675            -10.345372           8.116701
| 41>   C                    : -0.665410            -8.380681            4.393711
| 42>   O                    : 0.289953             -8.164521            5.389637
| 43>   H                    : 0.352855             -8.938722            5.877031
| 44>   H                    : -0.398421            -7.807642            3.558172
| 45>   H                    : -0.649855            -9.464361            4.143995
| 46>   H                    : -1.682944            -8.024090            4.647246
| 47> *
| 48>
| 49> #Run DFT-D3 single point of the particle with dimer basis set
| 50> $new_job
| 51> %base "1-43_DFT_B"
| 52> ! wB97X-D3 def2-TZVP TIGHTSCF CHELPG PMODEL
| 53>
| 54> %scf
| 55> MaxIter 1000
| 56> end
| 57>
| 58> * xyz 0 1
| 59>   C                    : -2.553089            -9.341690            7.829840
| 60>   O                    : -3.202982            -9.262673            6.528423
| 61>   H                    : -3.995979            -9.807772            6.501171
| 62>   H                    : -1.675079            -8.720392            7.907150
| 63>   H                    : -3.152298            -8.937749            8.646217
| 64>   H                    : -2.217675            -10.345372           8.116701
| 65>   C                      -0.665410            -8.380681            4.393711
| 66>   O                      0.289953             -8.164521            5.389637
| 67>   H                      0.352855             -8.938722            5.877031
| 68>   H                      -0.398421            -7.807642            3.558172
| 69>   H                      -0.649855            -9.464361            4.143995
| 70>   H                      -1.682944            -8.024090            4.647246
| 71> *
| 72>
| 73>                          ****END OF INPUT****
 Total Charge           Charge          ....    0
 Multiplicity           Mult            ....    1
 Number of Electrons    NEL             ....   36
Dispersion correction           -0.001950794
FINAL SINGLE POINT ENERGY      -231.466221550927
Dispersion correction           -0.000288248
FINAL SINGLE POINT ENERGY      -115.732580313248

CARTESIAN COORDINATES (ANGSTROEM)
---------------------------------
  C     -2.553089   -9.341690    7.829840
  O     -3.202982   -9.262673    6.528423
  H     -3.995979   -9.807772    6.501171
  H     -1.675079   -8.720392    7.907150
  H     -3.152298   -8.937749    8.646217
  H     -2.217675  -10.345372    8.116701
  C     -0.665410   -8.380681    4.393711
  O      0.289953   -8.164521    5.389637
  H      0.352855   -8.938722    5.877031
  H     -0.398421   -7.807642    3.558172
  H     -0.649855   -9.464361    4.143995
  H     -1.682944   -8.024090    4.647246

 Multiplicity           Mult            ....    1
 Number of Electrons    NEL             ....   18
 Basis Dimension        Dim             ....  172

ORBITAL ENERGIES
----------------

  NO   OCC          E(Eh)            E(eV)
   0   2.0000     -19.225813      -523.1610
   1   2.0000     -10.310406      -280.5604
   2   2.0000      -1.151404       -31.3313
   3   2.0000      -0.800445       -21.7812
   4   2.0000      -0.616837       -16.7850
   5   2.0000      -0.545686       -14.8489
   6   2.0000      -0.536357       -14.5950
   7   2.0000      -0.434977       -11.8363
   8   2.0000      -0.373578       -10.1656
   9   0.0000       0.078498         2.1360
  10   0.0000       0.127519         3.4700
  11   0.0000       0.145173         3.9504
  12   0.0000       0.180447         4.9102
  13   0.0000       0.186164         5.0658

MULLIKEN ATOMIC CHARGES
-----------------------
   0 C :    0.001511
   1 O :    0.000320
   2 H :   -0.000172
   3 H :   -0.005795
   4 H :   -0.000177
   5 H :    0.000106
   6 C :   -0.165706
   7 O :   -0.454649
   8 H :    0.307622
   9 H :    0.123622
  10 H :    0.099168
  11 H :    0.094148
Sum of atomic charges:    0.0000000

LOEWDIN ATOMIC CHARGES
----------------------
   0 C :   -0.002534
   1 O :   -0.003621
   2 H :   -0.000251
   3 H :   -0.002658
   4 H :   -0.000025
   5 H :   -0.000043
   6 C :   -0.388143
   7 O :   -0.039416
   8 H :    0.141007
   9 H :    0.095660
  10 H :    0.102331
  11 H :    0.097693

  Mayer bond orders larger than 0.1
B(  6-C ,  7-O ) :   1.0083 B(  6-C ,  9-H ) :   0.9795 B(  6-C , 10-H ) :   0.9908
B(  6-C , 11-H ) :   0.9707 B(  7-O ,  8-H ) :   0.9121

Dispersion correction           -0.000227501
FINAL SINGLE POINT ENERGY      -115.731785810164

DIPOLE MOMENT
-------------
                                X             Y             Z
Electronic contribution:      1.24913       0.40946       1.22899
Nuclear contribution   :     -1.55087      -0.98710      -1.32468
                        -----------------------------------------
Total Dipole Moment    :     -0.30175      -0.57765      -0.09569
                        -----------------------------------------
Magnitude (a.u.)       :      0.65870
Magnitude (Debye)      :      1.67428

Rotational constants in cm-1:     4.368509     0.857224     0.823694
Rotational constants in MHz : 130964.595117 25698.917924 24693.727418

                             ****ORCA TERMINATED NORMALLY****
TOTAL RUN TIME: 0 days 0 hours 6 minutes 19 seconds 65 msec
