                         Program Version 4.1.2  - RELEASE  -
|  1> #Run DFT-D3 single point of the dimer
|  2> ! wB97X-D3 def2-TZVP TIGHTSCF CHELPG PMODEL PAL8
|  3>
|  4> %base "19-30_DFT_AB"
|  5>
|  6> %scf
|  7> MaxIter 1000
|  8> end
|  9>
| 10> * xyz 0 1
| 11>   C                      -9.778594            2.584819             -7.098236
| 12>   O                      -10.503116           3.623638             -6.480022
| 13>   H                      -10.501269           4.334988             -7.158476
| 14>   H                      -9.911806            2.435577             -8.131833
| 15>   H                      -8.678102            2.671316             -7.052734
| 16>   H                      -9.924804            1.624095             -6.681747
| 17>   C                      -9.656386            8.004466             -4.055375
| 18>   O                      -9.827183            6.696000             -4.516681
| 19>   H                      -9.087512            6.304048             -4.075677
| 20>   H                      -9.612539            7.925407             -2.937611
| 21>   H                      -8.707890            8.407722             -4.410754
| 22>   H                      -10.451495           8.603904             -4.404213
| 23> *
| 24>
| 25> #Run DFT-D3 single point of the molecule with dimer basis set
| 26> $new_job
| 27> %base "19-30_DFT_A"
| 28> ! wB97X-D3 def2-TZVP TIGHTSCF CHELPG PMODEL
| 29>
| 30> %scf
| 31> MaxIter 1000
| 32> end
| 33>
| 34> * xyz 0 1
| 35>   C                      -9.778594            2.584819             -7.098236
| 36>   O                      -10.503116           3.623638             -6.480022
| 37>   H                      -10.501269           4.334988             -7.158476
| 38>   H                      -9.911806            2.435577             -8.131833
| 39>   H                      -8.678102            2.671316             -7.052734
| 40>   H                      -9.924804            1.624095             -6.681747
| 41>   C                    : -9.656386            8.004466             -4.055375
| 42>   O                    : -9.827183            6.696000             -4.516681
| 43>   H                    : -9.087512            6.304048             -4.075677
| 44>   H                    : -9.612539            7.925407             -2.937611
| 45>   H                    : -8.707890            8.407722             -4.410754
| 46>   H                    : -10.451495           8.603904             -4.404213
| 47> *
| 48>
| 49> #Run DFT-D3 single point of the particle with dimer basis set
| 50> $new_job
| 51> %base "19-30_DFT_B"
| 52> ! wB97X-D3 def2-TZVP TIGHTSCF CHELPG PMODEL
| 53>
| 54> %scf
| 55> MaxIter 1000
| 56> end
| 57>
| 58> * xyz 0 1
| 59>   C                    : -9.778594            2.584819             -7.098236
| 60>   O                    : -10.503116           3.623638             -6.480022
| 61>   H                    : -10.501269           4.334988             -7.158476
| 62>   H                    : -9.911806            2.435577             -8.131833
| 63>   H                    : -8.678102            2.671316             -7.052734
| 64>   H                    : -9.924804            1.624095             -6.681747
| 65>   C                      -9.656386            8.004466             -4.055375
| 66>   O                      -9.827183            6.696000             -4.516681
| 67>   H                      -9.087512            6.304048             -4.075677
| 68>   H                      -9.612539            7.925407             -2.937611
| 69>   H                      -8.707890            8.407722             -4.410754
| 70>   H                      -10.451495           8.603904             -4.404213
| 71> *
| 72>
| 73>                          ****END OF INPUT****
 Total Charge           Charge          ....    0
 Multiplicity           Mult            ....    1
 Number of Electrons    NEL             ....   36
Dispersion correction           -0.000818196
FINAL SINGLE POINT ENERGY      -231.459000264592
Dispersion correction           -0.000251189
FINAL SINGLE POINT ENERGY      -115.728635645928

CARTESIAN COORDINATES (ANGSTROEM)
---------------------------------
  C     -9.778594    2.584819   -7.098236
  O    -10.503116    3.623638   -6.480022
  H    -10.501269    4.334988   -7.158476
  H     -9.911806    2.435577   -8.131833
  H     -8.678102    2.671316   -7.052734
  H     -9.924804    1.624095   -6.681747
  C     -9.656386    8.004466   -4.055375
  O     -9.827183    6.696000   -4.516681
  H     -9.087512    6.304048   -4.075677
  H     -9.612539    7.925407   -2.937611
  H     -8.707890    8.407722   -4.410754
  H    -10.451495    8.603904   -4.404213

 Multiplicity           Mult            ....    1
 Number of Electrons    NEL             ....   18
 Basis Dimension        Dim             ....  172

ORBITAL ENERGIES
----------------

  NO   OCC          E(Eh)            E(eV)
   0   2.0000     -19.228006      -523.2206
   1   2.0000     -10.311149      -280.5806
   2   2.0000      -1.151207       -31.3259
   3   2.0000      -0.791025       -21.5249
   4   2.0000      -0.614993       -16.7348
   5   2.0000      -0.547266       -14.8919
   6   2.0000      -0.531085       -14.4516
   7   2.0000      -0.446195       -12.1416
   8   2.0000      -0.369987       -10.0678
   9   0.0000       0.091710         2.4955
  10   0.0000       0.114089         3.1045
  11   0.0000       0.159512         4.3406
  12   0.0000       0.182309         4.9609
  13   0.0000       0.198364         5.3978

MULLIKEN ATOMIC CHARGES
-----------------------
   0 C :    0.000088
   1 O :   -0.000363
   2 H :   -0.001231
   3 H :   -0.000006
   4 H :   -0.000039
   5 H :    0.000009
   6 C :   -0.171229
   7 O :   -0.455168
   8 H :    0.310897
   9 H :    0.097435
  10 H :    0.097078
  11 H :    0.122527
Sum of atomic charges:   -0.0000000

LOEWDIN ATOMIC CHARGES
----------------------
   0 C :   -0.000072
   1 O :   -0.000656
   2 H :   -0.001062
   3 H :   -0.000001
   4 H :   -0.000007
   5 H :   -0.000001
   6 C :   -0.394335
   7 O :   -0.061523
   8 H :    0.166062
   9 H :    0.100588
  10 H :    0.092074
  11 H :    0.098931

  Mayer bond orders larger than 0.1
B(  6-C ,  7-O ) :   0.9894 B(  6-C ,  9-H ) :   0.9870 B(  6-C , 10-H ) :   0.9752
B(  6-C , 11-H ) :   0.9745 B(  7-O ,  8-H ) :   0.9076

Dispersion correction           -0.000185382
FINAL SINGLE POINT ENERGY      -115.730359427958

DIPOLE MOMENT
-------------
                                X             Y             Z
Electronic contribution:     -0.43978      -1.54692      -0.75410
Nuclear contribution   :      0.94672       1.80539       1.18329
                        -----------------------------------------
Total Dipole Moment    :      0.50694       0.25847       0.42919
                        -----------------------------------------
Magnitude (a.u.)       :      0.71274
Magnitude (Debye)      :      1.81164

Rotational constants in cm-1:     4.160025     0.874207     0.837633
Rotational constants in MHz : 124714.420255 26208.063622 25111.610203

                             ****ORCA TERMINATED NORMALLY****
TOTAL RUN TIME: 0 days 0 hours 0 minutes 52 seconds 203 msec
