                         Program Version 4.1.2  - RELEASE  -
|  1> #Run DFT-D3 single point of the dimer
|  2> ! wB97X-D3 def2-TZVP TIGHTSCF CHELPG PMODEL PAL8
|  3>
|  4> %base "6-180_DFT_AB"
|  5>
|  6> %scf
|  7> MaxIter 1000
|  8> end
|  9>
| 10> * xyz 0 1
| 11>   C                      -5.397933            8.476390             10.811701
| 12>   O                      -5.899984            7.597127             9.831516
| 13>   H                      -5.793788            8.054602             8.995920
| 14>   H                      -5.739701            8.132426             11.765569
| 15>   H                      -4.258824            8.333112             10.812335
| 16>   H                      -5.692249            9.474918             10.582094
| 17>   C                      -4.077437            8.002392             7.003506
| 18>   O                      -5.403596            8.295965             6.999509
| 19>   H                      -5.382031            9.287660             6.826207
| 20>   H                      -3.569949            8.661766             7.728862
| 21>   H                      -3.863902            6.962664             7.051185
| 22>   H                      -3.615819            8.224889             6.070402
| 23> *
| 24>
| 25> #Run DFT-D3 single point of the molecule with dimer basis set
| 26> $new_job
| 27> %base "6-180_DFT_A"
| 28> ! wB97X-D3 def2-TZVP TIGHTSCF CHELPG PMODEL
| 29>
| 30> %scf
| 31> MaxIter 1000
| 32> end
| 33>
| 34> * xyz 0 1
| 35>   C                      -5.397933            8.476390             10.811701
| 36>   O                      -5.899984            7.597127             9.831516
| 37>   H                      -5.793788            8.054602             8.995920
| 38>   H                      -5.739701            8.132426             11.765569
| 39>   H                      -4.258824            8.333112             10.812335
| 40>   H                      -5.692249            9.474918             10.582094
| 41>   C                    : -4.077437            8.002392             7.003506
| 42>   O                    : -5.403596            8.295965             6.999509
| 43>   H                    : -5.382031            9.287660             6.826207
| 44>   H                    : -3.569949            8.661766             7.728862
| 45>   H                    : -3.863902            6.962664             7.051185
| 46>   H                    : -3.615819            8.224889             6.070402
| 47> *
| 48>
| 49> #Run DFT-D3 single point of the particle with dimer basis set
| 50> $new_job
| 51> %base "6-180_DFT_B"
| 52> ! wB97X-D3 def2-TZVP TIGHTSCF CHELPG PMODEL
| 53>
| 54> %scf
| 55> MaxIter 1000
| 56> end
| 57>
| 58> * xyz 0 1
| 59>   C                    : -5.397933            8.476390             10.811701
| 60>   O                    : -5.899984            7.597127             9.831516
| 61>   H                    : -5.793788            8.054602             8.995920
| 62>   H                    : -5.739701            8.132426             11.765569
| 63>   H                    : -4.258824            8.333112             10.812335
| 64>   H                    : -5.692249            9.474918             10.582094
| 65>   C                      -4.077437            8.002392             7.003506
| 66>   O                      -5.403596            8.295965             6.999509
| 67>   H                      -5.382031            9.287660             6.826207
| 68>   H                      -3.569949            8.661766             7.728862
| 69>   H                      -3.863902            6.962664             7.051185
| 70>   H                      -3.615819            8.224889             6.070402
| 71> *
| 72>
| 73>                          ****END OF INPUT****
 Total Charge           Charge          ....    0
 Multiplicity           Mult            ....    1
 Number of Electrons    NEL             ....   36
Dispersion correction           -0.001890090
FINAL SINGLE POINT ENERGY      -231.463819833100
Dispersion correction           -0.000215549
FINAL SINGLE POINT ENERGY      -115.733209459141

CARTESIAN COORDINATES (ANGSTROEM)
---------------------------------
  C     -5.397933    8.476390   10.811701
  O     -5.899984    7.597127    9.831516
  H     -5.793788    8.054602    8.995920
  H     -5.739701    8.132426   11.765569
  H     -4.258824    8.333112   10.812335
  H     -5.692249    9.474918   10.582094
  C     -4.077437    8.002392    7.003506
  O     -5.403596    8.295965    6.999509
  H     -5.382031    9.287660    6.826207
  H     -3.569949    8.661766    7.728862
  H     -3.863902    6.962664    7.051185
  H     -3.615819    8.224889    6.070402

 Multiplicity           Mult            ....    1
 Number of Electrons    NEL             ....   18
 Basis Dimension        Dim             ....  172

ORBITAL ENERGIES
----------------

  NO   OCC          E(Eh)            E(eV)
   0   2.0000     -19.235683      -523.4295
   1   2.0000     -10.302596      -280.3479
   2   2.0000      -1.152353       -31.3571
   3   2.0000      -0.791292       -21.5321
   4   2.0000      -0.618910       -16.8414
   5   2.0000      -0.557917       -15.1817
   6   2.0000      -0.529636       -14.4121
   7   2.0000      -0.436911       -11.8890
   8   2.0000      -0.366468        -9.9721
   9   0.0000       0.088727         2.4144
  10   0.0000       0.120024         3.2660
  11   0.0000       0.156188         4.2501
  12   0.0000       0.185718         5.0536
  13   0.0000       0.196602         5.3498

MULLIKEN ATOMIC CHARGES
-----------------------
   0 C :    0.001082
   1 O :    0.000458
   2 H :   -0.011035
   3 H :   -0.000098
   4 H :   -0.000240
   5 H :   -0.000732
   6 C :   -0.166926
   7 O :   -0.453023
   8 H :    0.320538
   9 H :    0.096708
  10 H :    0.117737
  11 H :    0.095531
Sum of atomic charges:   -0.0000000

LOEWDIN ATOMIC CHARGES
----------------------
   0 C :   -0.001547
   1 O :   -0.004013
   2 H :   -0.034628
   3 H :   -0.000026
   4 H :   -0.000453
   5 H :   -0.000210
   6 C :   -0.434395
   7 O :   -0.022845
   8 H :    0.208258
   9 H :    0.097860
  10 H :    0.103847
  11 H :    0.088150

  Mayer bond orders larger than 0.1
B(  6-C ,  7-O ) :   0.9829 B(  6-C ,  9-H ) :   0.9902 B(  6-C , 10-H ) :   0.9739
B(  6-C , 11-H ) :   0.9748 B(  7-O ,  8-H ) :   0.8914

Dispersion correction           -0.000189959
FINAL SINGLE POINT ENERGY      -115.724679798238

DIPOLE MOMENT
-------------
                                X             Y             Z
Electronic contribution:     -1.88355       0.10154       0.11597
Nuclear contribution   :      2.37515       0.37617      -0.26907
                        -----------------------------------------
Total Dipole Moment    :      0.49159       0.47771      -0.15310
                        -----------------------------------------
Magnitude (a.u.)       :      0.70236
Magnitude (Debye)      :      1.78526

Rotational constants in cm-1:     4.288392     0.903318     0.854741
Rotational constants in MHz : 128562.766190 27080.795655 25624.500909

                             ****ORCA TERMINATED NORMALLY****
TOTAL RUN TIME: 0 days 0 hours 1 minutes 9 seconds 444 msec
