                         Program Version 4.1.2  - RELEASE  -
|  1> #Run DFT-D3 single point of the dimer
|  2> ! wB97X-D3 def2-TZVP TIGHTSCF CHELPG PMODEL PAL8
|  3>
|  4> %base "17-188_DFT_AB"
|  5>
|  6> %scf
|  7> MaxIter 1000
|  8> end
|  9>
| 10> * xyz 0 1
| 11>   C                      4.564148             2.486965             9.463505
| 12>   O                      3.292222             2.011616             9.072994
| 13>   H                      3.299397             1.074400             8.926465
| 14>   H                      5.309284             2.534749             8.657171
| 15>   H                      4.380130             3.479184             9.880657
| 16>   H                      5.041125             1.943326             10.275876
| 17>   C                      -0.553660            0.821241             9.795528
| 18>   O                      0.118719             -0.429037            9.661285
| 19>   H                      1.089943             -0.350548            9.540765
| 20>   H                      -1.549963            0.685756             10.157904
| 21>   H                      -0.102725            1.589450             10.454278
| 22>   H                      -0.618877            1.299944             8.856339
| 23> *
| 24>
| 25> #Run DFT-D3 single point of the molecule with dimer basis set
| 26> $new_job
| 27> %base "17-188_DFT_A"
| 28> ! wB97X-D3 def2-TZVP TIGHTSCF CHELPG PMODEL
| 29>
| 30> %scf
| 31> MaxIter 1000
| 32> end
| 33>
| 34> * xyz 0 1
| 35>   C                      4.564148             2.486965             9.463505
| 36>   O                      3.292222             2.011616             9.072994
| 37>   H                      3.299397             1.074400             8.926465
| 38>   H                      5.309284             2.534749             8.657171
| 39>   H                      4.380130             3.479184             9.880657
| 40>   H                      5.041125             1.943326             10.275876
| 41>   C                    : -0.553660            0.821241             9.795528
| 42>   O                    : 0.118719             -0.429037            9.661285
| 43>   H                    : 1.089943             -0.350548            9.540765
| 44>   H                    : -1.549963            0.685756             10.157904
| 45>   H                    : -0.102725            1.589450             10.454278
| 46>   H                    : -0.618877            1.299944             8.856339
| 47> *
| 48>
| 49> #Run DFT-D3 single point of the particle with dimer basis set
| 50> $new_job
| 51> %base "17-188_DFT_B"
| 52> ! wB97X-D3 def2-TZVP TIGHTSCF CHELPG PMODEL
| 53>
| 54> %scf
| 55> MaxIter 1000
| 56> end
| 57>
| 58> * xyz 0 1
| 59>   C                    : 4.564148             2.486965             9.463505
| 60>   O                    : 3.292222             2.011616             9.072994
| 61>   H                    : 3.299397             1.074400             8.926465
| 62>   H                    : 5.309284             2.534749             8.657171
| 63>   H                    : 4.380130             3.479184             9.880657
| 64>   H                    : 5.041125             1.943326             10.275876
| 65>   C                      -0.553660            0.821241             9.795528
| 66>   O                      0.118719             -0.429037            9.661285
| 67>   H                      1.089943             -0.350548            9.540765
| 68>   H                      -1.549963            0.685756             10.157904
| 69>   H                      -0.102725            1.589450             10.454278
| 70>   H                      -0.618877            1.299944             8.856339
| 71> *
| 72>
| 73>                          ****END OF INPUT****
 Total Charge           Charge          ....    0
 Multiplicity           Mult            ....    1
 Number of Electrons    NEL             ....   36
Dispersion correction           -0.001248655
FINAL SINGLE POINT ENERGY      -231.468409566910
Dispersion correction           -0.000261553
FINAL SINGLE POINT ENERGY      -115.736086663368

CARTESIAN COORDINATES (ANGSTROEM)
---------------------------------
  C      4.564148    2.486965    9.463505
  O      3.292222    2.011616    9.072994
  H      3.299397    1.074400    8.926465
  H      5.309284    2.534749    8.657171
  H      4.380130    3.479184    9.880657
  H      5.041125    1.943326   10.275876
  C     -0.553660    0.821241    9.795528
  O      0.118719   -0.429037    9.661285
  H      1.089943   -0.350548    9.540765
  H     -1.549963    0.685756   10.157904
  H     -0.102725    1.589450   10.454278
  H     -0.618877    1.299944    8.856339

 Multiplicity           Mult            ....    1
 Number of Electrons    NEL             ....   18
 Basis Dimension        Dim             ....  172

ORBITAL ENERGIES
----------------

  NO   OCC          E(Eh)            E(eV)
   0   2.0000     -19.230950      -523.3008
   1   2.0000     -10.308633      -280.5122
   2   2.0000      -1.124440       -30.5976
   3   2.0000      -0.802219       -21.8295
   4   2.0000      -0.610643       -16.6164
   5   2.0000      -0.539465       -14.6796
   6   2.0000      -0.524662       -14.2768
   7   2.0000      -0.429999       -11.7009
   8   2.0000      -0.372658       -10.1405
   9   0.0000       0.072923         1.9843
  10   0.0000       0.114017         3.1026
  11   0.0000       0.147729         4.0199
  12   0.0000       0.185329         5.0431
  13   0.0000       0.191885         5.2215

MULLIKEN ATOMIC CHARGES
-----------------------
   0 C :    0.000135
   1 O :    0.000067
   2 H :   -0.001430
   3 H :   -0.000007
   4 H :   -0.000003
   5 H :   -0.000020
   6 C :   -0.160672
   7 O :   -0.491715
   8 H :    0.319856
   9 H :    0.124837
  10 H :    0.100935
  11 H :    0.108017
Sum of atomic charges:    0.0000000

LOEWDIN ATOMIC CHARGES
----------------------
   0 C :   -0.000027
   1 O :   -0.000413
   2 H :   -0.001856
   3 H :   -0.000001
   4 H :   -0.000004
   5 H :   -0.000001
   6 C :   -0.373834
   7 O :   -0.093881
   8 H :    0.179183
   9 H :    0.104574
  10 H :    0.097929
  11 H :    0.088331

  Mayer bond orders larger than 0.1
B(  6-C ,  7-O ) :   0.9932 B(  6-C ,  9-H ) :   0.9737 B(  6-C , 10-H ) :   0.9718
B(  6-C , 11-H ) :   0.9800 B(  7-O ,  8-H ) :   0.8930

Dispersion correction           -0.000271893
FINAL SINGLE POINT ENERGY      -115.732170614460

DIPOLE MOMENT
-------------
                                X             Y             Z
Electronic contribution:      0.74268      -1.70845      -0.13736
Nuclear contribution   :     -0.40819       2.28401       0.10889
                        -----------------------------------------
Total Dipole Moment    :      0.33449       0.57556      -0.02847
                        -----------------------------------------
Magnitude (a.u.)       :      0.66630
Magnitude (Debye)      :      1.69360

Rotational constants in cm-1:     4.565646     0.806749     0.777136
Rotational constants in MHz : 136874.614040 24185.728903 23297.943898

                             ****ORCA TERMINATED NORMALLY****
TOTAL RUN TIME: 0 days 0 hours 1 minutes 8 seconds 249 msec
