                         Program Version 4.1.2  - RELEASE  -
|  1> #Run DFT-D3 single point of the dimer
|  2> ! wB97X-D3 def2-TZVP TIGHTSCF CHELPG PMODEL PAL8
|  3>
|  4> %base "19-201_DFT_AB"
|  5>
|  6> %scf
|  7> MaxIter 1000
|  8> end
|  9>
| 10> * xyz 0 1
| 11>   C                      -7.990486            -4.213735            7.700667
| 12>   O                      -7.204821            -4.225652            8.851542
| 13>   H                      -6.352141            -3.844062            8.557284
| 14>   H                      -8.004291            -5.220981            7.216581
| 15>   H                      -9.041679            -4.169610            8.056314
| 16>   H                      -7.718613            -3.386395            6.999404
| 17>   C                      -9.925822            -4.235280            11.087851
| 18>   O                      -9.206853            -5.359912            10.612932
| 19>   H                      -8.523488            -5.047183            10.076331
| 20>   H                      -10.852002           -4.477404            11.528519
| 21>   H                      -9.340025            -3.687806            11.857205
| 22>   H                      -10.152379           -3.590680            10.248336
| 23> *
| 24>
| 25> #Run DFT-D3 single point of the molecule with dimer basis set
| 26> $new_job
| 27> %base "19-201_DFT_A"
| 28> ! wB97X-D3 def2-TZVP TIGHTSCF CHELPG PMODEL
| 29>
| 30> %scf
| 31> MaxIter 1000
| 32> end
| 33>
| 34> * xyz 0 1
| 35>   C                      -7.990486            -4.213735            7.700667
| 36>   O                      -7.204821            -4.225652            8.851542
| 37>   H                      -6.352141            -3.844062            8.557284
| 38>   H                      -8.004291            -5.220981            7.216581
| 39>   H                      -9.041679            -4.169610            8.056314
| 40>   H                      -7.718613            -3.386395            6.999404
| 41>   C                    : -9.925822            -4.235280            11.087851
| 42>   O                    : -9.206853            -5.359912            10.612932
| 43>   H                    : -8.523488            -5.047183            10.076331
| 44>   H                    : -10.852002           -4.477404            11.528519
| 45>   H                    : -9.340025            -3.687806            11.857205
| 46>   H                    : -10.152379           -3.590680            10.248336
| 47> *
| 48>
| 49> #Run DFT-D3 single point of the particle with dimer basis set
| 50> $new_job
| 51> %base "19-201_DFT_B"
| 52> ! wB97X-D3 def2-TZVP TIGHTSCF CHELPG PMODEL
| 53>
| 54> %scf
| 55> MaxIter 1000
| 56> end
| 57>
| 58> * xyz 0 1
| 59>   C                    : -7.990486            -4.213735            7.700667
| 60>   O                    : -7.204821            -4.225652            8.851542
| 61>   H                    : -6.352141            -3.844062            8.557284
| 62>   H                    : -8.004291            -5.220981            7.216581
| 63>   H                    : -9.041679            -4.169610            8.056314
| 64>   H                    : -7.718613            -3.386395            6.999404
| 65>   C                      -9.925822            -4.235280            11.087851
| 66>   O                      -9.206853            -5.359912            10.612932
| 67>   H                      -8.523488            -5.047183            10.076331
| 68>   H                      -10.852002           -4.477404            11.528519
| 69>   H                      -9.340025            -3.687806            11.857205
| 70>   H                      -10.152379           -3.590680            10.248336
| 71> *
| 72>
| 73>                          ****END OF INPUT****
 Total Charge           Charge          ....    0
 Multiplicity           Mult            ....    1
 Number of Electrons    NEL             ....   36
Dispersion correction           -0.002023600
FINAL SINGLE POINT ENERGY      -231.471757141304
Dispersion correction           -0.000237660
FINAL SINGLE POINT ENERGY      -115.731370766551

CARTESIAN COORDINATES (ANGSTROEM)
---------------------------------
  C     -7.990486   -4.213735    7.700667
  O     -7.204821   -4.225652    8.851542
  H     -6.352141   -3.844062    8.557284
  H     -8.004291   -5.220981    7.216581
  H     -9.041679   -4.169610    8.056314
  H     -7.718613   -3.386395    6.999404
  C     -9.925822   -4.235280   11.087851
  O     -9.206853   -5.359912   10.612932
  H     -8.523488   -5.047183   10.076331
  H    -10.852002   -4.477404   11.528519
  H     -9.340025   -3.687806   11.857205
  H    -10.152379   -3.590680   10.248336

 Multiplicity           Mult            ....    1
 Number of Electrons    NEL             ....   18
 Basis Dimension        Dim             ....  172

ORBITAL ENERGIES
----------------

  NO   OCC          E(Eh)            E(eV)
   0   2.0000     -19.226961      -523.1922
   1   2.0000     -10.310770      -280.5703
   2   2.0000      -1.143419       -31.1140
   3   2.0000      -0.802618       -21.8403
   4   2.0000      -0.612713       -16.6728
   5   2.0000      -0.544660       -14.8210
   6   2.0000      -0.536925       -14.6105
   7   2.0000      -0.434008       -11.8099
   8   2.0000      -0.375258       -10.2113
   9   0.0000       0.073724         2.0061
  10   0.0000       0.141418         3.8482
  11   0.0000       0.152037         4.1371
  12   0.0000       0.163303         4.4437
  13   0.0000       0.189252         5.1498

MULLIKEN ATOMIC CHARGES
-----------------------
   0 C :   -0.006088
   1 O :   -0.004029
   2 H :   -0.000263
   3 H :    0.000795
   4 H :   -0.002077
   5 H :   -0.000294
   6 C :   -0.164917
   7 O :   -0.460473
   8 H :    0.309172
   9 H :    0.122361
  10 H :    0.101869
  11 H :    0.103943
Sum of atomic charges:   -0.0000000

LOEWDIN ATOMIC CHARGES
----------------------
   0 C :   -0.010246
   1 O :   -0.016518
   2 H :   -0.000594
   3 H :   -0.000382
   4 H :   -0.004680
   5 H :   -0.000138
   6 C :   -0.369436
   7 O :   -0.044212
   8 H :    0.152187
   9 H :    0.098661
  10 H :    0.099506
  11 H :    0.095852

  Mayer bond orders larger than 0.1
B(  6-C ,  7-O ) :   0.9899 B(  6-C ,  9-H ) :   0.9735 B(  6-C , 10-H ) :   0.9824
B(  6-C , 11-H ) :   0.9788 B(  7-O ,  8-H ) :   0.9179

Dispersion correction           -0.000228130
FINAL SINGLE POINT ENERGY      -115.733994070097

DIPOLE MOMENT
-------------
                                X             Y             Z
Electronic contribution:      0.77292      -1.56583      -0.51209
Nuclear contribution   :     -0.65713       2.21213       0.36097
                        -----------------------------------------
Total Dipole Moment    :      0.11579       0.64630      -0.15112
                        -----------------------------------------
Magnitude (a.u.)       :      0.67376
Magnitude (Debye)      :      1.71256

Rotational constants in cm-1:     4.444674     0.827829     0.807849
Rotational constants in MHz : 133247.965780 24817.700412 24218.716804

                             ****ORCA TERMINATED NORMALLY****
TOTAL RUN TIME: 0 days 0 hours 0 minutes 52 seconds 256 msec
