                         Program Version 4.1.2  - RELEASE  -
|  1> #Run DFT-D3 single point of the dimer
|  2> ! wB97X-D3 def2-TZVP TIGHTSCF CHELPG PMODEL PAL8
|  3>
|  4> %base "7-150_DFT_AB"
|  5>
|  6> %scf
|  7> MaxIter 1000
|  8> end
|  9>
| 10> * xyz 0 1
| 11>   C                      7.560265             4.536154             7.578513
| 12>   O                      7.874244             4.951479             8.946684
| 13>   H                      7.036518             5.037282             9.417587
| 14>   H                      7.386133             3.502118             7.605481
| 15>   H                      6.612294             4.970132             7.223736
| 16>   H                      8.342208             4.520084             6.856980
| 17>   C                      7.923357             8.083030             6.459957
| 18>   O                      8.573367             7.774205             7.679812
| 19>   H                      8.042596             7.209100             8.230461
| 20>   H                      7.225024             7.311763             6.148966
| 21>   H                      7.301372             9.007147             6.553180
| 22>   H                      8.629463             8.328790             5.678000
| 23> *
| 24>
| 25> #Run DFT-D3 single point of the molecule with dimer basis set
| 26> $new_job
| 27> %base "7-150_DFT_A"
| 28> ! wB97X-D3 def2-TZVP TIGHTSCF CHELPG PMODEL
| 29>
| 30> %scf
| 31> MaxIter 1000
| 32> end
| 33>
| 34> * xyz 0 1
| 35>   C                      7.560265             4.536154             7.578513
| 36>   O                      7.874244             4.951479             8.946684
| 37>   H                      7.036518             5.037282             9.417587
| 38>   H                      7.386133             3.502118             7.605481
| 39>   H                      6.612294             4.970132             7.223736
| 40>   H                      8.342208             4.520084             6.856980
| 41>   C                    : 7.923357             8.083030             6.459957
| 42>   O                    : 8.573367             7.774205             7.679812
| 43>   H                    : 8.042596             7.209100             8.230461
| 44>   H                    : 7.225024             7.311763             6.148966
| 45>   H                    : 7.301372             9.007147             6.553180
| 46>   H                    : 8.629463             8.328790             5.678000
| 47> *
| 48>
| 49> #Run DFT-D3 single point of the particle with dimer basis set
| 50> $new_job
| 51> %base "7-150_DFT_B"
| 52> ! wB97X-D3 def2-TZVP TIGHTSCF CHELPG PMODEL
| 53>
| 54> %scf
| 55> MaxIter 1000
| 56> end
| 57>
| 58> * xyz 0 1
| 59>   C                    : 7.560265             4.536154             7.578513
| 60>   O                    : 7.874244             4.951479             8.946684
| 61>   H                    : 7.036518             5.037282             9.417587
| 62>   H                    : 7.386133             3.502118             7.605481
| 63>   H                    : 6.612294             4.970132             7.223736
| 64>   H                    : 8.342208             4.520084             6.856980
| 65>   C                      7.923357             8.083030             6.459957
| 66>   O                      8.573367             7.774205             7.679812
| 67>   H                      8.042596             7.209100             8.230461
| 68>   H                      7.225024             7.311763             6.148966
| 69>   H                      7.301372             9.007147             6.553180
| 70>   H                      8.629463             8.328790             5.678000
| 71> *
| 72>
| 73>                          ****END OF INPUT****
 Total Charge           Charge          ....    0
 Multiplicity           Mult            ....    1
 Number of Electrons    NEL             ....   36
Dispersion correction           -0.002157247
FINAL SINGLE POINT ENERGY      -231.463624263439
Dispersion correction           -0.000252084
FINAL SINGLE POINT ENERGY      -115.724497203956

CARTESIAN COORDINATES (ANGSTROEM)
---------------------------------
  C      7.560265    4.536154    7.578513
  O      7.874244    4.951479    8.946684
  H      7.036518    5.037282    9.417587
  H      7.386133    3.502118    7.605481
  H      6.612294    4.970132    7.223736
  H      8.342208    4.520084    6.856980
  C      7.923357    8.083030    6.459957
  O      8.573367    7.774205    7.679812
  H      8.042596    7.209100    8.230461
  H      7.225024    7.311763    6.148966
  H      7.301372    9.007147    6.553180
  H      8.629463    8.328790    5.678000

 Multiplicity           Mult            ....    1
 Number of Electrons    NEL             ....   18
 Basis Dimension        Dim             ....  172

ORBITAL ENERGIES
----------------

  NO   OCC          E(Eh)            E(eV)
   0   2.0000     -19.230279      -523.2825
   1   2.0000     -10.314490      -280.6715
   2   2.0000      -1.135741       -30.9051
   3   2.0000      -0.799087       -21.7443
   4   2.0000      -0.615585       -16.7509
   5   2.0000      -0.536928       -14.6105
   6   2.0000      -0.529554       -14.4099
   7   2.0000      -0.435215       -11.8428
   8   2.0000      -0.371041       -10.0965
   9   0.0000       0.071741         1.9522
  10   0.0000       0.139790         3.8039
  11   0.0000       0.144030         3.9192
  12   0.0000       0.173403         4.7185
  13   0.0000       0.182781         4.9737

MULLIKEN ATOMIC CHARGES
-----------------------
   0 C :   -0.011582
   1 O :    0.000854
   2 H :   -0.000024
   3 H :   -0.000519
   4 H :    0.000799
   5 H :    0.000688
   6 C :   -0.167558
   7 O :   -0.471007
   8 H :    0.313677
   9 H :    0.109400
  10 H :    0.101881
  11 H :    0.123392
Sum of atomic charges:    0.0000000

LOEWDIN ATOMIC CHARGES
----------------------
   0 C :   -0.011250
   1 O :   -0.005673
   2 H :   -0.000919
   3 H :   -0.000193
   4 H :   -0.001617
   5 H :   -0.001076
   6 C :   -0.379641
   7 O :   -0.063042
   8 H :    0.163714
   9 H :    0.095699
  10 H :    0.099068
  11 H :    0.104931

  Mayer bond orders larger than 0.1
B(  6-C ,  7-O ) :   0.9935 B(  6-C ,  9-H ) :   0.9752 B(  6-C , 10-H ) :   0.9813
B(  6-C , 11-H ) :   0.9724 B(  7-O ,  8-H ) :   0.9032

Dispersion correction           -0.000256770
FINAL SINGLE POINT ENERGY      -115.735256701058

DIPOLE MOMENT
-------------
                                X             Y             Z
Electronic contribution:      1.01640      -0.42821       1.49736
Nuclear contribution   :     -1.61887       0.18678      -1.64493
                        -----------------------------------------
Total Dipole Moment    :     -0.60246      -0.24143      -0.14757
                        -----------------------------------------
Magnitude (a.u.)       :      0.66560
Magnitude (Debye)      :      1.69183

Rotational constants in cm-1:     4.405740     0.822306     0.789736
Rotational constants in MHz : 132080.767862 24652.111490 23675.682236

                             ****ORCA TERMINATED NORMALLY****
TOTAL RUN TIME: 0 days 0 hours 1 minutes 7 seconds 515 msec
