                         Program Version 4.1.2  - RELEASE  -
|  1> #Run DFT-D3 single point of the dimer
|  2> ! wB97X-D3 def2-TZVP TIGHTSCF CHELPG PMODEL PAL8
|  3>
|  4> %base "2-86_DFT_AB"
|  5>
|  6> %scf
|  7> MaxIter 1000
|  8> end
|  9>
| 10> * xyz 0 1
| 11>   C                      5.076919             -10.100200           -4.491884
| 12>   O                      4.875564             -8.751591            -4.271763
| 13>   H                      5.776038             -8.429535            -4.025102
| 14>   H                      4.079127             -10.597135           -4.605720
| 15>   H                      5.674618             -10.291725           -5.409982
| 16>   H                      5.579315             -10.598143           -3.609433
| 17>   C                      4.677394             -7.813026            -1.589694
| 18>   O                      3.595846             -8.552365            -1.029796
| 19>   H                      3.218478             -7.925360            -0.473885
| 20>   H                      4.263604             -6.980245            -2.171745
| 21>   H                      5.362882             -7.358812            -0.839855
| 22>   H                      5.305498             -8.408023            -2.243893
| 23> *
| 24>
| 25> #Run DFT-D3 single point of the molecule with dimer basis set
| 26> $new_job
| 27> %base "2-86_DFT_A"
| 28> ! wB97X-D3 def2-TZVP TIGHTSCF CHELPG PMODEL
| 29>
| 30> %scf
| 31> MaxIter 1000
| 32> end
| 33>
| 34> * xyz 0 1
| 35>   C                      5.076919             -10.100200           -4.491884
| 36>   O                      4.875564             -8.751591            -4.271763
| 37>   H                      5.776038             -8.429535            -4.025102
| 38>   H                      4.079127             -10.597135           -4.605720
| 39>   H                      5.674618             -10.291725           -5.409982
| 40>   H                      5.579315             -10.598143           -3.609433
| 41>   C                    : 4.677394             -7.813026            -1.589694
| 42>   O                    : 3.595846             -8.552365            -1.029796
| 43>   H                    : 3.218478             -7.925360            -0.473885
| 44>   H                    : 4.263604             -6.980245            -2.171745
| 45>   H                    : 5.362882             -7.358812            -0.839855
| 46>   H                    : 5.305498             -8.408023            -2.243893
| 47> *
| 48>
| 49> #Run DFT-D3 single point of the particle with dimer basis set
| 50> $new_job
| 51> %base "2-86_DFT_B"
| 52> ! wB97X-D3 def2-TZVP TIGHTSCF CHELPG PMODEL
| 53>
| 54> %scf
| 55> MaxIter 1000
| 56> end
| 57>
| 58> * xyz 0 1
| 59>   C                    : 5.076919             -10.100200           -4.491884
| 60>   O                    : 4.875564             -8.751591            -4.271763
| 61>   H                    : 5.776038             -8.429535            -4.025102
| 62>   H                    : 4.079127             -10.597135           -4.605720
| 63>   H                    : 5.674618             -10.291725           -5.409982
| 64>   H                    : 5.579315             -10.598143           -3.609433
| 65>   C                      4.677394             -7.813026            -1.589694
| 66>   O                      3.595846             -8.552365            -1.029796
| 67>   H                      3.218478             -7.925360            -0.473885
| 68>   H                      4.263604             -6.980245            -2.171745
| 69>   H                      5.362882             -7.358812            -0.839855
| 70>   H                      5.305498             -8.408023            -2.243893
| 71> *
| 72>
| 73>                          ****END OF INPUT****
 Total Charge           Charge          ....    0
 Multiplicity           Mult            ....    1
 Number of Electrons    NEL             ....   36
Dispersion correction           -0.001851542
FINAL SINGLE POINT ENERGY      -231.460129370147
Dispersion correction           -0.000225950
FINAL SINGLE POINT ENERGY      -115.734498773729

CARTESIAN COORDINATES (ANGSTROEM)
---------------------------------
  C      5.076919  -10.100200   -4.491884
  O      4.875564   -8.751591   -4.271763
  H      5.776038   -8.429535   -4.025102
  H      4.079127  -10.597135   -4.605720
  H      5.674618  -10.291725   -5.409982
  H      5.579315  -10.598143   -3.609433
  C      4.677394   -7.813026   -1.589694
  O      3.595846   -8.552365   -1.029796
  H      3.218478   -7.925360   -0.473885
  H      4.263604   -6.980245   -2.171745
  H      5.362882   -7.358812   -0.839855
  H      5.305498   -8.408023   -2.243893

 Multiplicity           Mult            ....    1
 Number of Electrons    NEL             ....   18
 Basis Dimension        Dim             ....  172

ORBITAL ENERGIES
----------------

  NO   OCC          E(Eh)            E(eV)
   0   2.0000     -19.230037      -523.2759
   1   2.0000     -10.316396      -280.7234
   2   2.0000      -1.147488       -31.2247
   3   2.0000      -0.796522       -21.6745
   4   2.0000      -0.612967       -16.6797
   5   2.0000      -0.541097       -14.7240
   6   2.0000      -0.528196       -14.3729
   7   2.0000      -0.444554       -12.0969
   8   2.0000      -0.375580       -10.2200
   9   0.0000       0.091341         2.4855
  10   0.0000       0.122834         3.3425
  11   0.0000       0.149288         4.0623
  12   0.0000       0.190900         5.1946
  13   0.0000       0.192372         5.2347

MULLIKEN ATOMIC CHARGES
-----------------------
   0 C :    0.001882
   1 O :   -0.002547
   2 H :   -0.000493
   3 H :   -0.000328
   4 H :    0.000262
   5 H :   -0.000419
   6 C :   -0.172151
   7 O :   -0.453647
   8 H :    0.305315
   9 H :    0.098846
  10 H :    0.103427
  11 H :    0.119853
Sum of atomic charges:   -0.0000000

LOEWDIN ATOMIC CHARGES
----------------------
   0 C :   -0.005524
   1 O :   -0.018687
   2 H :   -0.012476
   3 H :   -0.000122
   4 H :   -0.000033
   5 H :   -0.001244
   6 C :   -0.364579
   7 O :   -0.058590
   8 H :    0.144363
   9 H :    0.098552
  10 H :    0.097948
  11 H :    0.120392

  Mayer bond orders larger than 0.1
B(  6-C ,  7-O ) :   1.0073 B(  6-C ,  9-H ) :   0.9840 B(  6-C , 10-H ) :   0.9679
B(  6-C , 11-H ) :   0.9742 B(  7-O ,  8-H ) :   0.9131

Dispersion correction           -0.000227697
FINAL SINGLE POINT ENERGY      -115.732804650552

DIPOLE MOMENT
-------------
                                X             Y             Z
Electronic contribution:     -1.37314      -1.17506       0.65556
Nuclear contribution   :      1.56029       1.85501      -0.52909
                        -----------------------------------------
Total Dipole Moment    :      0.18715       0.67994       0.12647
                        -----------------------------------------
Magnitude (a.u.)       :      0.71648
Magnitude (Debye)      :      1.82115

Rotational constants in cm-1:     4.339625     0.824664     0.795745
Rotational constants in MHz : 130098.685338 24722.804250 23855.837369

                             ****ORCA TERMINATED NORMALLY****
TOTAL RUN TIME: 0 days 0 hours 6 minutes 7 seconds 641 msec
