                         Program Version 4.1.2  - RELEASE  -
|  1> #Run DFT-D3 single point of the dimer
|  2> ! wB97X-D3 def2-TZVP TIGHTSCF CHELPG PMODEL PAL8
|  3>
|  4> %base "2-67_DFT_AB"
|  5>
|  6> %scf
|  7> MaxIter 1000
|  8> end
|  9>
| 10> * xyz 0 1
| 11>   C                      2.216168             -10.583670           6.792271
| 12>   O                      1.676542             -10.073466           5.612727
| 13>   H                      2.289929             -10.296612           4.873086
| 14>   H                      1.920652             -11.635590           6.979439
| 15>   H                      3.230282             -10.410300           6.926087
| 16>   H                      1.813010             -10.092693           7.607417
| 17>   C                      4.271287             -11.181173           2.809340
| 18>   O                      5.219006             -12.088335           3.242450
| 19>   H                      6.090139             -11.795613           2.957617
| 20>   H                      4.312714             -10.886073           1.767779
| 21>   H                      3.263578             -11.671661           2.858804
| 22>   H                      4.221716             -10.303152           3.462769
| 23> *
| 24>
| 25> #Run DFT-D3 single point of the molecule with dimer basis set
| 26> $new_job
| 27> %base "2-67_DFT_A"
| 28> ! wB97X-D3 def2-TZVP TIGHTSCF CHELPG PMODEL
| 29>
| 30> %scf
| 31> MaxIter 1000
| 32> end
| 33>
| 34> * xyz 0 1
| 35>   C                      2.216168             -10.583670           6.792271
| 36>   O                      1.676542             -10.073466           5.612727
| 37>   H                      2.289929             -10.296612           4.873086
| 38>   H                      1.920652             -11.635590           6.979439
| 39>   H                      3.230282             -10.410300           6.926087
| 40>   H                      1.813010             -10.092693           7.607417
| 41>   C                    : 4.271287             -11.181173           2.809340
| 42>   O                    : 5.219006             -12.088335           3.242450
| 43>   H                    : 6.090139             -11.795613           2.957617
| 44>   H                    : 4.312714             -10.886073           1.767779
| 45>   H                    : 3.263578             -11.671661           2.858804
| 46>   H                    : 4.221716             -10.303152           3.462769
| 47> *
| 48>
| 49> #Run DFT-D3 single point of the particle with dimer basis set
| 50> $new_job
| 51> %base "2-67_DFT_B"
| 52> ! wB97X-D3 def2-TZVP TIGHTSCF CHELPG PMODEL
| 53>
| 54> %scf
| 55> MaxIter 1000
| 56> end
| 57>
| 58> * xyz 0 1
| 59>   C                    : 2.216168             -10.583670           6.792271
| 60>   O                    : 1.676542             -10.073466           5.612727
| 61>   H                    : 2.289929             -10.296612           4.873086
| 62>   H                    : 1.920652             -11.635590           6.979439
| 63>   H                    : 3.230282             -10.410300           6.926087
| 64>   H                    : 1.813010             -10.092693           7.607417
| 65>   C                      4.271287             -11.181173           2.809340
| 66>   O                      5.219006             -12.088335           3.242450
| 67>   H                      6.090139             -11.795613           2.957617
| 68>   H                      4.312714             -10.886073           1.767779
| 69>   H                      3.263578             -11.671661           2.858804
| 70>   H                      4.221716             -10.303152           3.462769
| 71> *
| 72>
| 73>                          ****END OF INPUT****
 Total Charge           Charge          ....    0
 Multiplicity           Mult            ....    1
 Number of Electrons    NEL             ....   36
Dispersion correction           -0.001396324
FINAL SINGLE POINT ENERGY      -231.465136523948
Dispersion correction           -0.000238871
FINAL SINGLE POINT ENERGY      -115.729113094886

CARTESIAN COORDINATES (ANGSTROEM)
---------------------------------
  C      2.216168  -10.583670    6.792271
  O      1.676542  -10.073466    5.612727
  H      2.289929  -10.296612    4.873086
  H      1.920652  -11.635590    6.979439
  H      3.230282  -10.410300    6.926087
  H      1.813010  -10.092693    7.607417
  C      4.271287  -11.181173    2.809340
  O      5.219006  -12.088335    3.242450
  H      6.090139  -11.795613    2.957617
  H      4.312714  -10.886073    1.767779
  H      3.263578  -11.671661    2.858804
  H      4.221716  -10.303152    3.462769

 Multiplicity           Mult            ....    1
 Number of Electrons    NEL             ....   18
 Basis Dimension        Dim             ....  172

ORBITAL ENERGIES
----------------

  NO   OCC          E(Eh)            E(eV)
   0   2.0000     -19.232439      -523.3413
   1   2.0000     -10.311194      -280.5818
   2   2.0000      -1.146484       -31.1974
   3   2.0000      -0.794301       -21.6140
   4   2.0000      -0.618009       -16.8169
   5   2.0000      -0.548962       -14.9380
   6   2.0000      -0.525453       -14.2983
   7   2.0000      -0.425593       -11.5810
   8   2.0000      -0.375485       -10.2175
   9   0.0000       0.090718         2.4686
  10   0.0000       0.119650         3.2558
  11   0.0000       0.148678         4.0457
  12   0.0000       0.186404         5.0723
  13   0.0000       0.190087         5.1725

MULLIKEN ATOMIC CHARGES
-----------------------
   0 C :    0.000854
   1 O :    0.000356
   2 H :   -0.003717
   3 H :   -0.000087
   4 H :    0.000007
   5 H :    0.000058
   6 C :   -0.157863
   7 O :   -0.465856
   8 H :    0.316626
   9 H :    0.101842
  10 H :    0.109541
  11 H :    0.098240
Sum of atomic charges:   -0.0000000

LOEWDIN ATOMIC CHARGES
----------------------
   0 C :   -0.000235
   1 O :   -0.000275
   2 H :   -0.006386
   3 H :   -0.000007
   4 H :   -0.000050
   5 H :   -0.000004
   6 C :   -0.415716
   7 O :   -0.050690
   8 H :    0.172748
   9 H :    0.091206
  10 H :    0.114912
  11 H :    0.094496

  Mayer bond orders larger than 0.1
B(  6-C ,  7-O ) :   1.0079 B(  6-C ,  9-H ) :   0.9679 B(  6-C , 10-H ) :   0.9740
B(  6-C , 11-H ) :   0.9762 B(  7-O ,  8-H ) :   0.8957

Dispersion correction           -0.000244793
FINAL SINGLE POINT ENERGY      -115.734780931986

DIPOLE MOMENT
-------------
                                X             Y             Z
Electronic contribution:      1.31190      -1.23546       0.59858
Nuclear contribution   :     -1.11061       1.74900      -0.96440
                        -----------------------------------------
Total Dipole Moment    :      0.20129       0.51354      -0.36582
                        -----------------------------------------
Magnitude (a.u.)       :      0.66186
Magnitude (Debye)      :      1.68232

Rotational constants in cm-1:     4.351483     0.850472     0.826494
Rotational constants in MHz : 130454.188176 25496.496262 24777.670023

                             ****ORCA TERMINATED NORMALLY****
TOTAL RUN TIME: 0 days 0 hours 6 minutes 4 seconds 153 msec
