                         Program Version 4.1.2  - RELEASE  -
|  1> #Run DFT-D3 single point of the dimer
|  2> ! wB97X-D3 def2-TZVP TIGHTSCF CHELPG PMODEL PAL8
|  3>
|  4> %base "10-23_DFT_AB"
|  5>
|  6> %scf
|  7> MaxIter 1000
|  8> end
|  9>
| 10> * xyz 0 1
| 11>   C                      9.584878             9.486159             -2.318972
| 12>   O                      8.406559             10.126476            -2.024404
| 13>   H                      7.795485             9.747395             -2.700372
| 14>   H                      9.401391             8.478447             -2.650509
| 15>   H                      10.200250            10.016750            -3.046298
| 16>   H                      10.196088            9.389947             -1.386170
| 17>   C                      10.870879            5.304603             0.331648
| 18>   O                      10.072876            4.133230             0.289183
| 19>   H                      9.518428             4.251238             -0.492944
| 20>   H                      10.986087            5.698368             -0.731035
| 21>   H                      10.461154            6.075527             1.030165
| 22>   H                      11.829512            5.166872             0.749556
| 23> *
| 24>
| 25> #Run DFT-D3 single point of the molecule with dimer basis set
| 26> $new_job
| 27> %base "10-23_DFT_A"
| 28> ! wB97X-D3 def2-TZVP TIGHTSCF CHELPG PMODEL
| 29>
| 30> %scf
| 31> MaxIter 1000
| 32> end
| 33>
| 34> * xyz 0 1
| 35>   C                      9.584878             9.486159             -2.318972
| 36>   O                      8.406559             10.126476            -2.024404
| 37>   H                      7.795485             9.747395             -2.700372
| 38>   H                      9.401391             8.478447             -2.650509
| 39>   H                      10.200250            10.016750            -3.046298
| 40>   H                      10.196088            9.389947             -1.386170
| 41>   C                    : 10.870879            5.304603             0.331648
| 42>   O                    : 10.072876            4.133230             0.289183
| 43>   H                    : 9.518428             4.251238             -0.492944
| 44>   H                    : 10.986087            5.698368             -0.731035
| 45>   H                    : 10.461154            6.075527             1.030165
| 46>   H                    : 11.829512            5.166872             0.749556
| 47> *
| 48>
| 49> #Run DFT-D3 single point of the particle with dimer basis set
| 50> $new_job
| 51> %base "10-23_DFT_B"
| 52> ! wB97X-D3 def2-TZVP TIGHTSCF CHELPG PMODEL
| 53>
| 54> %scf
| 55> MaxIter 1000
| 56> end
| 57>
| 58> * xyz 0 1
| 59>   C                    : 9.584878             9.486159             -2.318972
| 60>   O                    : 8.406559             10.126476            -2.024404
| 61>   H                    : 7.795485             9.747395             -2.700372
| 62>   H                    : 9.401391             8.478447             -2.650509
| 63>   H                    : 10.200250            10.016750            -3.046298
| 64>   H                    : 10.196088            9.389947             -1.386170
| 65>   C                      10.870879            5.304603             0.331648
| 66>   O                      10.072876            4.133230             0.289183
| 67>   H                      9.518428             4.251238             -0.492944
| 68>   H                      10.986087            5.698368             -0.731035
| 69>   H                      10.461154            6.075527             1.030165
| 70>   H                      11.829512            5.166872             0.749556
| 71> *
| 72>
| 73>                          ****END OF INPUT****
 Total Charge           Charge          ....    0
 Multiplicity           Mult            ....    1
 Number of Electrons    NEL             ....   36
Dispersion correction           -0.000765194
FINAL SINGLE POINT ENERGY      -231.462743949561
Dispersion correction           -0.000216259
FINAL SINGLE POINT ENERGY      -115.732217063600

CARTESIAN COORDINATES (ANGSTROEM)
---------------------------------
  C      9.584878    9.486159   -2.318972
  O      8.406559   10.126476   -2.024404
  H      7.795485    9.747395   -2.700372
  H      9.401391    8.478447   -2.650509
  H     10.200250   10.016750   -3.046298
  H     10.196088    9.389947   -1.386170
  C     10.870879    5.304603    0.331648
  O     10.072876    4.133230    0.289183
  H      9.518428    4.251238   -0.492944
  H     10.986087    5.698368   -0.731035
  H     10.461154    6.075527    1.030165
  H     11.829512    5.166872    0.749556

 Multiplicity           Mult            ....    1
 Number of Electrons    NEL             ....   18
 Basis Dimension        Dim             ....  172

ORBITAL ENERGIES
----------------

  NO   OCC          E(Eh)            E(eV)
   0   2.0000     -19.232632      -523.3465
   1   2.0000     -10.316936      -280.7381
   2   2.0000      -1.136897       -30.9365
   3   2.0000      -0.793492       -21.5920
   4   2.0000      -0.605804       -16.4848
   5   2.0000      -0.541378       -14.7317
   6   2.0000      -0.531521       -14.4634
   7   2.0000      -0.434418       -11.8211
   8   2.0000      -0.372347       -10.1321
   9   0.0000       0.080200         2.1823
  10   0.0000       0.111317         3.0291
  11   0.0000       0.144152         3.9226
  12   0.0000       0.169942         4.6244
  13   0.0000       0.182609         4.9690

MULLIKEN ATOMIC CHARGES
-----------------------
   0 C :    0.000145
   1 O :   -0.000003
   2 H :   -0.000001
   3 H :   -0.000122
   4 H :   -0.000010
   5 H :   -0.000253
   6 C :   -0.175452
   7 O :   -0.463517
   8 H :    0.318837
   9 H :    0.098940
  10 H :    0.100093
  11 H :    0.121342
Sum of atomic charges:    0.0000000

LOEWDIN ATOMIC CHARGES
----------------------
   0 C :   -0.000173
   1 O :   -0.000002
   2 H :   -0.000000
   3 H :   -0.000112
   4 H :   -0.000001
   5 H :   -0.000136
   6 C :   -0.390491
   7 O :   -0.083351
   8 H :    0.175635
   9 H :    0.105215
  10 H :    0.099504
  11 H :    0.093913

  Mayer bond orders larger than 0.1
B(  6-C ,  7-O ) :   1.0112 B(  6-C ,  9-H ) :   0.9878 B(  6-C , 10-H ) :   0.9727
B(  6-C , 11-H ) :   0.9742 B(  7-O ,  8-H ) :   0.8998

Dispersion correction           -0.000247510
FINAL SINGLE POINT ENERGY      -115.730425719332

DIPOLE MOMENT
-------------
                                X             Y             Z
Electronic contribution:     -0.93558      -1.65531       0.08730
Nuclear contribution   :      0.92517       2.16457      -0.55258
                        -----------------------------------------
Total Dipole Moment    :     -0.01041       0.50926      -0.46527
                        -----------------------------------------
Magnitude (a.u.)       :      0.68988
Magnitude (Debye)      :      1.75353

Rotational constants in cm-1:     4.233514     0.829760     0.791878
Rotational constants in MHz : 126917.558733 24875.589445 23739.890932

                             ****ORCA TERMINATED NORMALLY****
TOTAL RUN TIME: 0 days 0 hours 1 minutes 3 seconds 273 msec
