                         Program Version 4.1.2  - RELEASE  -
|  1> #Run DFT-D3 single point of the dimer
|  2> ! wB97X-D3 def2-TZVP TIGHTSCF CHELPG PMODEL PAL8
|  3>
|  4> %base "10-118_DFT_AB"
|  5>
|  6> %scf
|  7> MaxIter 1000
|  8> end
|  9>
| 10> * xyz 0 1
| 11>   C                      -2.445116            10.578755            -1.740875
| 12>   O                      -1.467800            11.215932            -2.506058
| 13>   H                      -0.636607            10.749939            -2.417039
| 14>   H                      -3.304628            10.206492            -2.355756
| 15>   H                      -2.017597            9.684624             -1.203176
| 16>   H                      -2.900465            11.246782            -0.991146
| 17>   C                      1.302535             10.071893            -0.494151
| 18>   O                      1.147358             11.007829            -1.489948
| 19>   H                      1.501920             11.742205            -0.993633
| 20>   H                      2.337597             10.126294            -0.141007
| 21>   H                      0.751451             10.156940            0.435406
| 22>   H                      1.196256             9.046492             -0.909938
| 23> *
| 24>
| 25> #Run DFT-D3 single point of the molecule with dimer basis set
| 26> $new_job
| 27> %base "10-118_DFT_A"
| 28> ! wB97X-D3 def2-TZVP TIGHTSCF CHELPG PMODEL
| 29>
| 30> %scf
| 31> MaxIter 1000
| 32> end
| 33>
| 34> * xyz 0 1
| 35>   C                      -2.445116            10.578755            -1.740875
| 36>   O                      -1.467800            11.215932            -2.506058
| 37>   H                      -0.636607            10.749939            -2.417039
| 38>   H                      -3.304628            10.206492            -2.355756
| 39>   H                      -2.017597            9.684624             -1.203176
| 40>   H                      -2.900465            11.246782            -0.991146
| 41>   C                    : 1.302535             10.071893            -0.494151
| 42>   O                    : 1.147358             11.007829            -1.489948
| 43>   H                    : 1.501920             11.742205            -0.993633
| 44>   H                    : 2.337597             10.126294            -0.141007
| 45>   H                    : 0.751451             10.156940            0.435406
| 46>   H                    : 1.196256             9.046492             -0.909938
| 47> *
| 48>
| 49> #Run DFT-D3 single point of the particle with dimer basis set
| 50> $new_job
| 51> %base "10-118_DFT_B"
| 52> ! wB97X-D3 def2-TZVP TIGHTSCF CHELPG PMODEL
| 53>
| 54> %scf
| 55> MaxIter 1000
| 56> end
| 57>
| 58> * xyz 0 1
| 59>   C                    : -2.445116            10.578755            -1.740875
| 60>   O                    : -1.467800            11.215932            -2.506058
| 61>   H                    : -0.636607            10.749939            -2.417039
| 62>   H                    : -3.304628            10.206492            -2.355756
| 63>   H                    : -2.017597            9.684624             -1.203176
| 64>   H                    : -2.900465            11.246782            -0.991146
| 65>   C                      1.302535             10.071893            -0.494151
| 66>   O                      1.147358             11.007829            -1.489948
| 67>   H                      1.501920             11.742205            -0.993633
| 68>   H                      2.337597             10.126294            -0.141007
| 69>   H                      0.751451             10.156940            0.435406
| 70>   H                      1.196256             9.046492             -0.909938
| 71> *
| 72>
| 73>                          ****END OF INPUT****
 Total Charge           Charge          ....    0
 Multiplicity           Mult            ....    1
 Number of Electrons    NEL             ....   36
Dispersion correction           -0.001917558
FINAL SINGLE POINT ENERGY      -231.465725294843
Dispersion correction           -0.000256820
FINAL SINGLE POINT ENERGY      -115.734704616256

CARTESIAN COORDINATES (ANGSTROEM)
---------------------------------
  C     -2.445116   10.578755   -1.740875
  O     -1.467800   11.215932   -2.506058
  H     -0.636607   10.749939   -2.417039
  H     -3.304628   10.206492   -2.355756
  H     -2.017597    9.684624   -1.203176
  H     -2.900465   11.246782   -0.991146
  C      1.302535   10.071893   -0.494151
  O      1.147358   11.007829   -1.489948
  H      1.501920   11.742205   -0.993633
  H      2.337597   10.126294   -0.141007
  H      0.751451   10.156940    0.435406
  H      1.196256    9.046492   -0.909938

 Multiplicity           Mult            ....    1
 Number of Electrons    NEL             ....   18
 Basis Dimension        Dim             ....  172

ORBITAL ENERGIES
----------------

  NO   OCC          E(Eh)            E(eV)
   0   2.0000     -19.237609      -523.4820
   1   2.0000     -10.311307      -280.5849
   2   2.0000      -1.162371       -31.6297
   3   2.0000      -0.789827       -21.4923
   4   2.0000      -0.625542       -17.0219
   5   2.0000      -0.544545       -14.8178
   6   2.0000      -0.531324       -14.4581
   7   2.0000      -0.444414       -12.0931
   8   2.0000      -0.373123       -10.1532
   9   0.0000       0.093990         2.5576
  10   0.0000       0.122881         3.3438
  11   0.0000       0.153379         4.1737
  12   0.0000       0.185786         5.0555
  13   0.0000       0.198734         5.4078

MULLIKEN ATOMIC CHARGES
-----------------------
   0 C :   -0.003912
   1 O :    0.001951
   2 H :   -0.006630
   3 H :   -0.000108
   4 H :    0.000962
   5 H :    0.000035
   6 C :   -0.191294
   7 O :   -0.435028
   8 H :    0.313482
   9 H :    0.099698
  10 H :    0.104071
  11 H :    0.116773
Sum of atomic charges:   -0.0000000

LOEWDIN ATOMIC CHARGES
----------------------
   0 C :   -0.002787
   1 O :   -0.009022
   2 H :   -0.031903
   3 H :   -0.000064
   4 H :   -0.000492
   5 H :   -0.000066
   6 C :   -0.430422
   7 O :   -0.003173
   8 H :    0.178667
   9 H :    0.095981
  10 H :    0.090665
  11 H :    0.112618

  Mayer bond orders larger than 0.1
B(  6-C ,  7-O ) :   0.9909 B(  6-C ,  9-H ) :   0.9850 B(  6-C , 10-H ) :   0.9621
B(  6-C , 11-H ) :   0.9783 B(  7-O ,  8-H ) :   0.9025

Dispersion correction           -0.000203213
FINAL SINGLE POINT ENERGY      -115.726860016727

DIPOLE MOMENT
-------------
                                X             Y             Z
Electronic contribution:     -0.46487       1.22491      -1.50751
Nuclear contribution   :      0.76263      -1.10390       2.15969
                        -----------------------------------------
Total Dipole Moment    :      0.29776       0.12101       0.65219
                        -----------------------------------------
Magnitude (a.u.)       :      0.72709
Magnitude (Debye)      :      1.84810

Rotational constants in cm-1:     4.307502     0.882138     0.837116
Rotational constants in MHz : 129135.670959 26445.844829 25096.108243

                             ****ORCA TERMINATED NORMALLY****
TOTAL RUN TIME: 0 days 0 hours 1 minutes 4 seconds 29 msec
