                         Program Version 4.1.2  - RELEASE  -
|  1> #Run DFT-D3 single point of the dimer
|  2> ! wB97X-D3 def2-TZVP TIGHTSCF CHELPG PMODEL PAL8
|  3>
|  4> %base "2-72_DFT_AB"
|  5>
|  6> %scf
|  7> MaxIter 1000
|  8> end
|  9>
| 10> * xyz 0 1
| 11>   C                      -6.296488            0.198913             2.792889
| 12>   O                      -6.461516            -0.521665            1.555688
| 13>   H                      -5.961074            -1.353102            1.626890
| 14>   H                      -6.761771            -0.381322            3.663012
| 15>   H                      -5.261582            0.262228             3.149411
| 16>   H                      -6.779186            1.233509             2.736756
| 17>   C                      -4.070602            0.009870             -0.947759
| 18>   O                      -3.177493            0.651207             -1.839378
| 19>   H                      -3.644926            1.332124             -2.268377
| 20>   H                      -3.956544            -1.097930            -0.905748
| 21>   H                      -3.984569            0.469919             0.004968
| 22>   H                      -5.138028            0.195817             -1.267886
| 23> *
| 24>
| 25> #Run DFT-D3 single point of the molecule with dimer basis set
| 26> $new_job
| 27> %base "2-72_DFT_A"
| 28> ! wB97X-D3 def2-TZVP TIGHTSCF CHELPG PMODEL
| 29>
| 30> %scf
| 31> MaxIter 1000
| 32> end
| 33>
| 34> * xyz 0 1
| 35>   C                      -6.296488            0.198913             2.792889
| 36>   O                      -6.461516            -0.521665            1.555688
| 37>   H                      -5.961074            -1.353102            1.626890
| 38>   H                      -6.761771            -0.381322            3.663012
| 39>   H                      -5.261582            0.262228             3.149411
| 40>   H                      -6.779186            1.233509             2.736756
| 41>   C                    : -4.070602            0.009870             -0.947759
| 42>   O                    : -3.177493            0.651207             -1.839378
| 43>   H                    : -3.644926            1.332124             -2.268377
| 44>   H                    : -3.956544            -1.097930            -0.905748
| 45>   H                    : -3.984569            0.469919             0.004968
| 46>   H                    : -5.138028            0.195817             -1.267886
| 47> *
| 48>
| 49> #Run DFT-D3 single point of the particle with dimer basis set
| 50> $new_job
| 51> %base "2-72_DFT_B"
| 52> ! wB97X-D3 def2-TZVP TIGHTSCF CHELPG PMODEL
| 53>
| 54> %scf
| 55> MaxIter 1000
| 56> end
| 57>
| 58> * xyz 0 1
| 59>   C                    : -6.296488            0.198913             2.792889
| 60>   O                    : -6.461516            -0.521665            1.555688
| 61>   H                    : -5.961074            -1.353102            1.626890
| 62>   H                    : -6.761771            -0.381322            3.663012
| 63>   H                    : -5.261582            0.262228             3.149411
| 64>   H                    : -6.779186            1.233509             2.736756
| 65>   C                      -4.070602            0.009870             -0.947759
| 66>   O                      -3.177493            0.651207             -1.839378
| 67>   H                      -3.644926            1.332124             -2.268377
| 68>   H                      -3.956544            -1.097930            -0.905748
| 69>   H                      -3.984569            0.469919             0.004968
| 70>   H                      -5.138028            0.195817             -1.267886
| 71> *
| 72>
| 73>                          ****END OF INPUT****
 Total Charge           Charge          ....    0
 Multiplicity           Mult            ....    1
 Number of Electrons    NEL             ....   36
Dispersion correction           -0.001574945
FINAL SINGLE POINT ENERGY      -231.464874943292
Dispersion correction           -0.000270371
FINAL SINGLE POINT ENERGY      -115.731184576425

CARTESIAN COORDINATES (ANGSTROEM)
---------------------------------
  C     -6.296488    0.198913    2.792889
  O     -6.461516   -0.521665    1.555688
  H     -5.961074   -1.353102    1.626890
  H     -6.761771   -0.381322    3.663012
  H     -5.261582    0.262228    3.149411
  H     -6.779186    1.233509    2.736756
  C     -4.070602    0.009870   -0.947759
  O     -3.177493    0.651207   -1.839378
  H     -3.644926    1.332124   -2.268377
  H     -3.956544   -1.097930   -0.905748
  H     -3.984569    0.469919    0.004968
  H     -5.138028    0.195817   -1.267886

 Multiplicity           Mult            ....    1
 Number of Electrons    NEL             ....   18
 Basis Dimension        Dim             ....  172

ORBITAL ENERGIES
----------------

  NO   OCC          E(Eh)            E(eV)
   0   2.0000     -19.226252      -523.1729
   1   2.0000     -10.316442      -280.7247
   2   2.0000      -1.141664       -31.0663
   3   2.0000      -0.796151       -21.6644
   4   2.0000      -0.613272       -16.6880
   5   2.0000      -0.547941       -14.9102
   6   2.0000      -0.524923       -14.2839
   7   2.0000      -0.429744       -11.6939
   8   2.0000      -0.375227       -10.2104
   9   0.0000       0.079552         2.1647
  10   0.0000       0.116456         3.1689
  11   0.0000       0.143465         3.9039
  12   0.0000       0.173808         4.7296
  13   0.0000       0.183058         4.9813

MULLIKEN ATOMIC CHARGES
-----------------------
   0 C :   -0.000644
   1 O :   -0.000048
   2 H :    0.000086
   3 H :   -0.000021
   4 H :   -0.000117
   5 H :    0.000043
   6 C :   -0.176011
   7 O :   -0.468213
   8 H :    0.312875
   9 H :    0.121261
  10 H :    0.113277
  11 H :    0.097512
Sum of atomic charges:   -0.0000000

LOEWDIN ATOMIC CHARGES
----------------------
   0 C :   -0.001227
   1 O :   -0.001237
   2 H :   -0.000509
   3 H :   -0.000017
   4 H :   -0.000276
   5 H :   -0.000029
   6 C :   -0.383158
   7 O :   -0.065913
   8 H :    0.150425
   9 H :    0.109851
  10 H :    0.090236
  11 H :    0.101855

  Mayer bond orders larger than 0.1
B(  6-C ,  7-O ) :   0.9990 B(  6-C ,  9-H ) :   0.9669 B(  6-C , 10-H ) :   0.9754
B(  6-C , 11-H ) :   0.9881 B(  7-O ,  8-H ) :   0.9058

Dispersion correction           -0.000237519
FINAL SINGLE POINT ENERGY      -115.731980746829

DIPOLE MOMENT
-------------
                                X             Y             Z
Electronic contribution:      1.35948       0.68797      -1.06228
Nuclear contribution   :     -2.02888      -0.49170       1.13459
                        -----------------------------------------
Total Dipole Moment    :     -0.66940       0.19627       0.07231
                        -----------------------------------------
Magnitude (a.u.)       :      0.70132
Magnitude (Debye)      :      1.78261

Rotational constants in cm-1:     4.300250     0.829689     0.800485
Rotational constants in MHz : 128918.252493 24873.436066 23997.950137

                             ****ORCA TERMINATED NORMALLY****
TOTAL RUN TIME: 0 days 0 hours 5 minutes 57 seconds 760 msec
