                         Program Version 4.1.2  - RELEASE  -
|  1> #Run DFT-D3 single point of the dimer
|  2> ! wB97X-D3 def2-TZVP TIGHTSCF CHELPG PMODEL PAL8
|  3>
|  4> %base "6-61_DFT_AB"
|  5>
|  6> %scf
|  7> MaxIter 1000
|  8> end
|  9>
| 10> * xyz 0 1
| 11>   C                      -6.106169            -7.139025            5.478536
| 12>   O                      -7.250673            -6.358448            5.904261
| 13>   H                      -7.580413            -5.854131            5.158850
| 14>   H                      -5.225424            -6.537199            5.228452
| 15>   H                      -5.853161            -7.888103            6.266709
| 16>   H                      -6.381485            -7.683977            4.536477
| 17>   C                      -6.195230            -10.727958           8.152454
| 18>   O                      -4.973511            -10.556552           8.772278
| 19>   H                      -4.602372            -9.689624            8.628176
| 20>   H                      -6.055573            -11.246680           7.214670
| 21>   H                      -6.914119            -11.344041           8.752040
| 22>   H                      -6.659110            -9.755178            7.948245
| 23> *
| 24>
| 25> #Run DFT-D3 single point of the molecule with dimer basis set
| 26> $new_job
| 27> %base "6-61_DFT_A"
| 28> ! wB97X-D3 def2-TZVP TIGHTSCF CHELPG PMODEL
| 29>
| 30> %scf
| 31> MaxIter 1000
| 32> end
| 33>
| 34> * xyz 0 1
| 35>   C                      -6.106169            -7.139025            5.478536
| 36>   O                      -7.250673            -6.358448            5.904261
| 37>   H                      -7.580413            -5.854131            5.158850
| 38>   H                      -5.225424            -6.537199            5.228452
| 39>   H                      -5.853161            -7.888103            6.266709
| 40>   H                      -6.381485            -7.683977            4.536477
| 41>   C                    : -6.195230            -10.727958           8.152454
| 42>   O                    : -4.973511            -10.556552           8.772278
| 43>   H                    : -4.602372            -9.689624            8.628176
| 44>   H                    : -6.055573            -11.246680           7.214670
| 45>   H                    : -6.914119            -11.344041           8.752040
| 46>   H                    : -6.659110            -9.755178            7.948245
| 47> *
| 48>
| 49> #Run DFT-D3 single point of the particle with dimer basis set
| 50> $new_job
| 51> %base "6-61_DFT_B"
| 52> ! wB97X-D3 def2-TZVP TIGHTSCF CHELPG PMODEL
| 53>
| 54> %scf
| 55> MaxIter 1000
| 56> end
| 57>
| 58> * xyz 0 1
| 59>   C                    : -6.106169            -7.139025            5.478536
| 60>   O                    : -7.250673            -6.358448            5.904261
| 61>   H                    : -7.580413            -5.854131            5.158850
| 62>   H                    : -5.225424            -6.537199            5.228452
| 63>   H                    : -5.853161            -7.888103            6.266709
| 64>   H                    : -6.381485            -7.683977            4.536477
| 65>   C                      -6.195230            -10.727958           8.152454
| 66>   O                      -4.973511            -10.556552           8.772278
| 67>   H                      -4.602372            -9.689624            8.628176
| 68>   H                      -6.055573            -11.246680           7.214670
| 69>   H                      -6.914119            -11.344041           8.752040
| 70>   H                      -6.659110            -9.755178            7.948245
| 71> *
| 72>
| 73>                          ****END OF INPUT****
 Total Charge           Charge          ....    0
 Multiplicity           Mult            ....    1
 Number of Electrons    NEL             ....   36
Dispersion correction           -0.001205309
FINAL SINGLE POINT ENERGY      -231.469264065792
Dispersion correction           -0.000261243
FINAL SINGLE POINT ENERGY      -115.734738177361

CARTESIAN COORDINATES (ANGSTROEM)
---------------------------------
  C     -6.106169   -7.139025    5.478536
  O     -7.250673   -6.358448    5.904261
  H     -7.580413   -5.854131    5.158850
  H     -5.225424   -6.537199    5.228452
  H     -5.853161   -7.888103    6.266709
  H     -6.381485   -7.683977    4.536477
  C     -6.195230  -10.727958    8.152454
  O     -4.973511  -10.556552    8.772278
  H     -4.602372   -9.689624    8.628176
  H     -6.055573  -11.246680    7.214670
  H     -6.914119  -11.344041    8.752040
  H     -6.659110   -9.755178    7.948245

 Multiplicity           Mult            ....    1
 Number of Electrons    NEL             ....   18
 Basis Dimension        Dim             ....  172

ORBITAL ENERGIES
----------------

  NO   OCC          E(Eh)            E(eV)
   0   2.0000     -19.226411      -523.1772
   1   2.0000     -10.312184      -280.6088
   2   2.0000      -1.144480       -31.1429
   3   2.0000      -0.795298       -21.6412
   4   2.0000      -0.618537       -16.8312
   5   2.0000      -0.543574       -14.7914
   6   2.0000      -0.534186       -14.5360
   7   2.0000      -0.424111       -11.5406
   8   2.0000      -0.369766       -10.0619
   9   0.0000       0.076848         2.0911
  10   0.0000       0.116161         3.1609
  11   0.0000       0.152867         4.1597
  12   0.0000       0.166200         4.5225
  13   0.0000       0.186010         5.0616

MULLIKEN ATOMIC CHARGES
-----------------------
   0 C :   -0.001700
   1 O :    0.000061
   2 H :   -0.000002
   3 H :    0.000015
   4 H :    0.001910
   5 H :    0.000079
   6 C :   -0.147795
   7 O :   -0.480008
   8 H :    0.320439
   9 H :    0.100669
  10 H :    0.110527
  11 H :    0.095805
Sum of atomic charges:   -0.0000000

LOEWDIN ATOMIC CHARGES
----------------------
   0 C :   -0.000971
   1 O :   -0.000015
   2 H :   -0.000001
   3 H :   -0.000007
   4 H :   -0.001867
   5 H :   -0.000021
   6 C :   -0.407038
   7 O :   -0.053783
   8 H :    0.167175
   9 H :    0.092677
  10 H :    0.108219
  11 H :    0.095632

  Mayer bond orders larger than 0.1
B(  6-C ,  7-O ) :   1.0010 B(  6-C ,  9-H ) :   0.9782 B(  6-C , 10-H ) :   0.9726
B(  6-C , 11-H ) :   0.9880 B(  7-O ,  8-H ) :   0.8961

Dispersion correction           -0.000238266
FINAL SINGLE POINT ENERGY      -115.733903929625

DIPOLE MOMENT
-------------
                                X             Y             Z
Electronic contribution:      1.60323       0.12663       0.87449
Nuclear contribution   :     -1.82958       0.39836      -1.21148
                        -----------------------------------------
Total Dipole Moment    :     -0.22635       0.52500      -0.33699
                        -----------------------------------------
Magnitude (a.u.)       :      0.66364
Magnitude (Debye)      :      1.68684

Rotational constants in cm-1:     4.353880     0.857630     0.825223
Rotational constants in MHz : 130526.031410 25711.090523 24739.558949

                             ****ORCA TERMINATED NORMALLY****
TOTAL RUN TIME: 0 days 0 hours 0 minutes 55 seconds 452 msec
