                         Program Version 4.1.2  - RELEASE  -
|  1> #Run DFT-D3 single point of the dimer
|  2> ! wB97X-D3 def2-TZVP TIGHTSCF CHELPG PMODEL PAL8
|  3>
|  4> %base "5-121_DFT_AB"
|  5>
|  6> %scf
|  7> MaxIter 1000
|  8> end
|  9>
| 10> * xyz 0 1
| 11>   C                      -9.545944            -1.925808            -2.997380
| 12>   O                      -9.264013            -3.170088            -3.475293
| 13>   H                      -8.769437            -3.667740            -2.835042
| 14>   H                      -8.792932            -1.236500            -3.249073
| 15>   H                      -10.372462           -1.460632            -3.328128
| 16>   H                      -9.761016            -1.989993            -1.908970
| 17>   C                      -5.989405            -5.964235            -2.020473
| 18>   O                      -6.767436            -4.800188            -2.082916
| 19>   H                      -6.623553            -4.234828            -1.284566
| 20>   H                      -6.057582            -6.555116            -1.019395
| 21>   H                      -6.398733            -6.747629            -2.648712
| 22>   H                      -4.950613            -5.793271            -2.207913
| 23> *
| 24>
| 25> #Run DFT-D3 single point of the molecule with dimer basis set
| 26> $new_job
| 27> %base "5-121_DFT_A"
| 28> ! wB97X-D3 def2-TZVP TIGHTSCF CHELPG PMODEL
| 29>
| 30> %scf
| 31> MaxIter 1000
| 32> end
| 33>
| 34> * xyz 0 1
| 35>   C                      -9.545944            -1.925808            -2.997380
| 36>   O                      -9.264013            -3.170088            -3.475293
| 37>   H                      -8.769437            -3.667740            -2.835042
| 38>   H                      -8.792932            -1.236500            -3.249073
| 39>   H                      -10.372462           -1.460632            -3.328128
| 40>   H                      -9.761016            -1.989993            -1.908970
| 41>   C                    : -5.989405            -5.964235            -2.020473
| 42>   O                    : -6.767436            -4.800188            -2.082916
| 43>   H                    : -6.623553            -4.234828            -1.284566
| 44>   H                    : -6.057582            -6.555116            -1.019395
| 45>   H                    : -6.398733            -6.747629            -2.648712
| 46>   H                    : -4.950613            -5.793271            -2.207913
| 47> *
| 48>
| 49> #Run DFT-D3 single point of the particle with dimer basis set
| 50> $new_job
| 51> %base "5-121_DFT_B"
| 52> ! wB97X-D3 def2-TZVP TIGHTSCF CHELPG PMODEL
| 53>
| 54> %scf
| 55> MaxIter 1000
| 56> end
| 57>
| 58> * xyz 0 1
| 59>   C                    : -9.545944            -1.925808            -2.997380
| 60>   O                    : -9.264013            -3.170088            -3.475293
| 61>   H                    : -8.769437            -3.667740            -2.835042
| 62>   H                    : -8.792932            -1.236500            -3.249073
| 63>   H                    : -10.372462           -1.460632            -3.328128
| 64>   H                    : -9.761016            -1.989993            -1.908970
| 65>   C                      -5.989405            -5.964235            -2.020473
| 66>   O                      -6.767436            -4.800188            -2.082916
| 67>   H                      -6.623553            -4.234828            -1.284566
| 68>   H                      -6.057582            -6.555116            -1.019395
| 69>   H                      -6.398733            -6.747629            -2.648712
| 70>   H                      -4.950613            -5.793271            -2.207913
| 71> *
| 72>
| 73>                          ****END OF INPUT****
 Total Charge           Charge          ....    0
 Multiplicity           Mult            ....    1
 Number of Electrons    NEL             ....   36
Dispersion correction           -0.001272659
FINAL SINGLE POINT ENERGY      -231.456720021636
Dispersion correction           -0.000216202
FINAL SINGLE POINT ENERGY      -115.722405850434

CARTESIAN COORDINATES (ANGSTROEM)
---------------------------------
  C     -9.545944   -1.925808   -2.997380
  O     -9.264013   -3.170088   -3.475293
  H     -8.769437   -3.667740   -2.835042
  H     -8.792932   -1.236500   -3.249073
  H    -10.372462   -1.460632   -3.328128
  H     -9.761016   -1.989993   -1.908970
  C     -5.989405   -5.964235   -2.020473
  O     -6.767436   -4.800188   -2.082916
  H     -6.623553   -4.234828   -1.284566
  H     -6.057582   -6.555116   -1.019395
  H     -6.398733   -6.747629   -2.648712
  H     -4.950613   -5.793271   -2.207913

 Multiplicity           Mult            ....    1
 Number of Electrons    NEL             ....   18
 Basis Dimension        Dim             ....  172

ORBITAL ENERGIES
----------------

  NO   OCC          E(Eh)            E(eV)
   0   2.0000     -19.236235      -523.4446
   1   2.0000     -10.315894      -280.7097
   2   2.0000      -1.134959       -30.8838
   3   2.0000      -0.794310       -21.6143
   4   2.0000      -0.611373       -16.6363
   5   2.0000      -0.550928       -14.9915
   6   2.0000      -0.519778       -14.1439
   7   2.0000      -0.423139       -11.5142
   8   2.0000      -0.375918       -10.2292
   9   0.0000       0.093440         2.5426
  10   0.0000       0.119895         3.2625
  11   0.0000       0.149364         4.0644
  12   0.0000       0.186420         5.0728
  13   0.0000       0.200449         5.4545

MULLIKEN ATOMIC CHARGES
-----------------------
   0 C :    0.000364
   1 O :    0.000353
   2 H :   -0.008882
   3 H :   -0.000048
   4 H :   -0.000056
   5 H :   -0.000197
   6 C :   -0.167795
   7 O :   -0.469624
   8 H :    0.323467
   9 H :    0.088891
  10 H :    0.124415
  11 H :    0.109110
Sum of atomic charges:   -0.0000000

LOEWDIN ATOMIC CHARGES
----------------------
   0 C :   -0.000478
   1 O :   -0.001521
   2 H :   -0.016100
   3 H :   -0.000032
   4 H :   -0.000009
   5 H :   -0.000039
   6 C :   -0.405713
   7 O :   -0.064813
   8 H :    0.188839
   9 H :    0.103599
  10 H :    0.107328
  11 H :    0.088940

  Mayer bond orders larger than 0.1
B(  6-C ,  7-O ) :   1.0040 B(  6-C ,  9-H ) :   0.9739 B(  6-C , 10-H ) :   0.9728
B(  6-C , 11-H ) :   0.9691 B(  7-O ,  8-H ) :   0.8865

Dispersion correction           -0.000268979
FINAL SINGLE POINT ENERGY      -115.730270706410

DIPOLE MOMENT
-------------
                                X             Y             Z
Electronic contribution:     -1.00395       1.63525      -0.35291
Nuclear contribution   :      1.39237      -1.74133       0.87170
                        -----------------------------------------
Total Dipole Moment    :      0.38842      -0.10608       0.51879
                        -----------------------------------------
Magnitude (a.u.)       :      0.65671
Magnitude (Debye)      :      1.66922

Rotational constants in cm-1:     4.331537     0.820810     0.799778
Rotational constants in MHz : 129856.225850 24607.255182 23976.727988

                             ****ORCA TERMINATED NORMALLY****
TOTAL RUN TIME: 0 days 0 hours 1 minutes 3 seconds 843 msec
