                         Program Version 4.1.2  - RELEASE  -
|  1> #Run DFT-D3 single point of the dimer
|  2> ! wB97X-D3 def2-TZVP TIGHTSCF CHELPG PMODEL PAL8
|  3>
|  4> %base "12-63_DFT_AB"
|  5>
|  6> %scf
|  7> MaxIter 1000
|  8> end
|  9>
| 10> * xyz 0 1
| 11>   C                      6.939438             8.381128             7.470866
| 12>   O                      6.725867             7.125149             6.925908
| 13>   H                      6.458362             6.563001             7.707976
| 14>   H                      6.795791             9.090185             6.659182
| 15>   H                      6.342889             8.682943             8.259780
| 16>   H                      7.982865             8.432314             7.760599
| 17>   C                      3.937609             6.089715             5.121929
| 18>   O                      4.894966             6.938586             4.500561
| 19>   H                      5.624434             6.969971             5.126123
| 20>   H                      3.038266             5.905496             4.475867
| 21>   H                      4.311928             5.107801             5.271609
| 22>   H                      3.625862             6.468092             6.095905
| 23> *
| 24>
| 25> #Run DFT-D3 single point of the molecule with dimer basis set
| 26> $new_job
| 27> %base "12-63_DFT_A"
| 28> ! wB97X-D3 def2-TZVP TIGHTSCF CHELPG PMODEL
| 29>
| 30> %scf
| 31> MaxIter 1000
| 32> end
| 33>
| 34> * xyz 0 1
| 35>   C                      6.939438             8.381128             7.470866
| 36>   O                      6.725867             7.125149             6.925908
| 37>   H                      6.458362             6.563001             7.707976
| 38>   H                      6.795791             9.090185             6.659182
| 39>   H                      6.342889             8.682943             8.259780
| 40>   H                      7.982865             8.432314             7.760599
| 41>   C                    : 3.937609             6.089715             5.121929
| 42>   O                    : 4.894966             6.938586             4.500561
| 43>   H                    : 5.624434             6.969971             5.126123
| 44>   H                    : 3.038266             5.905496             4.475867
| 45>   H                    : 4.311928             5.107801             5.271609
| 46>   H                    : 3.625862             6.468092             6.095905
| 47> *
| 48>
| 49> #Run DFT-D3 single point of the particle with dimer basis set
| 50> $new_job
| 51> %base "12-63_DFT_B"
| 52> ! wB97X-D3 def2-TZVP TIGHTSCF CHELPG PMODEL
| 53>
| 54> %scf
| 55> MaxIter 1000
| 56> end
| 57>
| 58> * xyz 0 1
| 59>   C                    : 6.939438             8.381128             7.470866
| 60>   O                    : 6.725867             7.125149             6.925908
| 61>   H                    : 6.458362             6.563001             7.707976
| 62>   H                    : 6.795791             9.090185             6.659182
| 63>   H                    : 6.342889             8.682943             8.259780
| 64>   H                    : 7.982865             8.432314             7.760599
| 65>   C                      3.937609             6.089715             5.121929
| 66>   O                      4.894966             6.938586             4.500561
| 67>   H                      5.624434             6.969971             5.126123
| 68>   H                      3.038266             5.905496             4.475867
| 69>   H                      4.311928             5.107801             5.271609
| 70>   H                      3.625862             6.468092             6.095905
| 71> *
| 72>
| 73>                          ****END OF INPUT****
 Total Charge           Charge          ....    0
 Multiplicity           Mult            ....    1
 Number of Electrons    NEL             ....   36
Dispersion correction           -0.001820713
FINAL SINGLE POINT ENERGY      -231.472371586330
Dispersion correction           -0.000215229
FINAL SINGLE POINT ENERGY      -115.730036519888

CARTESIAN COORDINATES (ANGSTROEM)
---------------------------------
  C      6.939438    8.381128    7.470866
  O      6.725867    7.125149    6.925908
  H      6.458362    6.563001    7.707976
  H      6.795791    9.090185    6.659182
  H      6.342889    8.682943    8.259780
  H      7.982865    8.432314    7.760599
  C      3.937609    6.089715    5.121929
  O      4.894966    6.938586    4.500561
  H      5.624434    6.969971    5.126123
  H      3.038266    5.905496    4.475867
  H      4.311928    5.107801    5.271609
  H      3.625862    6.468092    6.095905

 Multiplicity           Mult            ....    1
 Number of Electrons    NEL             ....   18
 Basis Dimension        Dim             ....  172

ORBITAL ENERGIES
----------------

  NO   OCC          E(Eh)            E(eV)
   0   2.0000     -19.233206      -523.3621
   1   2.0000     -10.313049      -280.6323
   2   2.0000      -1.136673       -30.9305
   3   2.0000      -0.796047       -21.6615
   4   2.0000      -0.610324       -16.6078
   5   2.0000      -0.544992       -14.8300
   6   2.0000      -0.523353       -14.2412
   7   2.0000      -0.437294       -11.8994
   8   2.0000      -0.375841       -10.2271
   9   0.0000       0.069347         1.8870
  10   0.0000       0.131961         3.5908
  11   0.0000       0.148750         4.0477
  12   0.0000       0.172222         4.6864
  13   0.0000       0.186744         5.0816

MULLIKEN ATOMIC CHARGES
-----------------------
   0 C :   -0.002985
   1 O :   -0.001805
   2 H :    0.000126
   3 H :   -0.000692
   4 H :    0.000183
   5 H :   -0.000020
   6 C :   -0.169961
   7 O :   -0.464543
   8 H :    0.313156
   9 H :    0.119865
  10 H :    0.107030
  11 H :    0.099646
Sum of atomic charges:   -0.0000000

LOEWDIN ATOMIC CHARGES
----------------------
   0 C :   -0.003168
   1 O :   -0.012435
   2 H :   -0.000781
   3 H :   -0.000850
   4 H :   -0.000046
   5 H :   -0.000068
   6 C :   -0.382217
   7 O :   -0.073315
   8 H :    0.175548
   9 H :    0.115724
  10 H :    0.087931
  11 H :    0.093676

  Mayer bond orders larger than 0.1
B(  6-C ,  7-O ) :   0.9948 B(  6-C ,  9-H ) :   0.9727 B(  6-C , 10-H ) :   0.9800
B(  6-C , 11-H ) :   0.9761 B(  7-O ,  8-H ) :   0.9075

Dispersion correction           -0.000234757
FINAL SINGLE POINT ENERGY      -115.734288464030

DIPOLE MOMENT
-------------
                                X             Y             Z
Electronic contribution:      1.16522       1.16580      -0.92492
Nuclear contribution   :     -1.09003      -1.50849       1.55460
                        -----------------------------------------
Total Dipole Moment    :      0.07518      -0.34269       0.62969
                        -----------------------------------------
Magnitude (a.u.)       :      0.72083
Magnitude (Debye)      :      1.83220

Rotational constants in cm-1:     4.344871     0.824270     0.790151
Rotational constants in MHz : 130255.962475 24710.988577 23688.124423

                             ****ORCA TERMINATED NORMALLY****
TOTAL RUN TIME: 0 days 0 hours 1 minutes 3 seconds 180 msec
