                         Program Version 4.1.2  - RELEASE  -
|  1> #Run DFT-D3 single point of the dimer
|  2> ! wB97X-D3 def2-TZVP TIGHTSCF CHELPG PMODEL PAL8
|  3>
|  4> %base "16-103_DFT_AB"
|  5>
|  6> %scf
|  7> MaxIter 1000
|  8> end
|  9>
| 10> * xyz 0 1
| 11>   C                      5.434958             2.875792             -9.733265
| 12>   O                      6.885886             2.877586             -9.509406
| 13>   H                      7.289825             2.013666             -9.590393
| 14>   H                      5.137906             3.799958             -10.234967
| 15>   H                      5.202899             1.890700             -10.161595
| 16>   H                      4.848795             2.960356             -8.769228
| 17>   C                      1.640088             1.218589             -6.085047
| 18>   O                      2.583981             2.243841             -5.706473
| 19>   H                      2.069620             3.124191             -5.709746
| 20>   H                      0.698687             1.457060             -5.672695
| 21>   H                      1.460383             1.209941             -7.124691
| 22>   H                      2.007968             0.263536             -5.750146
| 23> *
| 24>
| 25> #Run DFT-D3 single point of the molecule with dimer basis set
| 26> $new_job
| 27> %base "16-103_DFT_A"
| 28> ! wB97X-D3 def2-TZVP TIGHTSCF CHELPG PMODEL
| 29>
| 30> %scf
| 31> MaxIter 1000
| 32> end
| 33>
| 34> * xyz 0 1
| 35>   C                      5.434958             2.875792             -9.733265
| 36>   O                      6.885886             2.877586             -9.509406
| 37>   H                      7.289825             2.013666             -9.590393
| 38>   H                      5.137906             3.799958             -10.234967
| 39>   H                      5.202899             1.890700             -10.161595
| 40>   H                      4.848795             2.960356             -8.769228
| 41>   C                    : 1.640088             1.218589             -6.085047
| 42>   O                    : 2.583981             2.243841             -5.706473
| 43>   H                    : 2.069620             3.124191             -5.709746
| 44>   H                    : 0.698687             1.457060             -5.672695
| 45>   H                    : 1.460383             1.209941             -7.124691
| 46>   H                    : 2.007968             0.263536             -5.750146
| 47> *
| 48>
| 49> #Run DFT-D3 single point of the particle with dimer basis set
| 50> $new_job
| 51> %base "16-103_DFT_B"
| 52> ! wB97X-D3 def2-TZVP TIGHTSCF CHELPG PMODEL
| 53>
| 54> %scf
| 55> MaxIter 1000
| 56> end
| 57>
| 58> * xyz 0 1
| 59>   C                    : 5.434958             2.875792             -9.733265
| 60>   O                    : 6.885886             2.877586             -9.509406
| 61>   H                    : 7.289825             2.013666             -9.590393
| 62>   H                    : 5.137906             3.799958             -10.234967
| 63>   H                    : 5.202899             1.890700             -10.161595
| 64>   H                    : 4.848795             2.960356             -8.769228
| 65>   C                      1.640088             1.218589             -6.085047
| 66>   O                      2.583981             2.243841             -5.706473
| 67>   H                      2.069620             3.124191             -5.709746
| 68>   H                      0.698687             1.457060             -5.672695
| 69>   H                      1.460383             1.209941             -7.124691
| 70>   H                      2.007968             0.263536             -5.750146
| 71> *
| 72>
| 73>                          ****END OF INPUT****
 Total Charge           Charge          ....    0
 Multiplicity           Mult            ....    1
 Number of Electrons    NEL             ....   36
Dispersion correction           -0.000752089
FINAL SINGLE POINT ENERGY      -231.457329766080
Dispersion correction           -0.000273540
FINAL SINGLE POINT ENERGY      -115.727234195680

CARTESIAN COORDINATES (ANGSTROEM)
---------------------------------
  C      5.434958    2.875792   -9.733265
  O      6.885886    2.877586   -9.509406
  H      7.289825    2.013666   -9.590393
  H      5.137906    3.799958  -10.234967
  H      5.202899    1.890700  -10.161595
  H      4.848795    2.960356   -8.769228
  C      1.640088    1.218589   -6.085047
  O      2.583981    2.243841   -5.706473
  H      2.069620    3.124191   -5.709746
  H      0.698687    1.457060   -5.672695
  H      1.460383    1.209941   -7.124691
  H      2.007968    0.263536   -5.750146

 Multiplicity           Mult            ....    1
 Number of Electrons    NEL             ....   18
 Basis Dimension        Dim             ....  172

ORBITAL ENERGIES
----------------

  NO   OCC          E(Eh)            E(eV)
   0   2.0000     -19.232800      -523.3511
   1   2.0000     -10.304968      -280.4124
   2   2.0000      -1.116241       -30.3745
   3   2.0000      -0.798642       -21.7322
   4   2.0000      -0.603770       -16.4294
   5   2.0000      -0.538609       -14.6563
   6   2.0000      -0.525700       -14.3050
   7   2.0000      -0.439202       -11.9513
   8   2.0000      -0.371204       -10.1010
   9   0.0000       0.091780         2.4975
  10   0.0000       0.107776         2.9327
  11   0.0000       0.155365         4.2277
  12   0.0000       0.167201         4.5498
  13   0.0000       0.193434         5.2636

MULLIKEN ATOMIC CHARGES
-----------------------
   0 C :    0.001587
   1 O :   -0.000018
   2 H :   -0.000005
   3 H :   -0.000082
   4 H :   -0.000027
   5 H :   -0.003871
   6 C :   -0.154702
   7 O :   -0.484517
   8 H :    0.313679
   9 H :    0.103617
  10 H :    0.106842
  11 H :    0.117496
Sum of atomic charges:    0.0000000

LOEWDIN ATOMIC CHARGES
----------------------
   0 C :   -0.000092
   1 O :   -0.000006
   2 H :   -0.000000
   3 H :   -0.000001
   4 H :   -0.000004
   5 H :   -0.001216
   6 C :   -0.353686
   7 O :   -0.125727
   8 H :    0.199013
   9 H :    0.088793
  10 H :    0.087769
  11 H :    0.105156

  Mayer bond orders larger than 0.1
B(  6-C ,  7-O ) :   0.9952 B(  6-C ,  9-H ) :   0.9867 B(  6-C , 10-H ) :   0.9734
B(  6-C , 11-H ) :   0.9759 B(  7-O ,  8-H ) :   0.8950

Dispersion correction           -0.000231478
FINAL SINGLE POINT ENERGY      -115.729795254583

DIPOLE MOMENT
-------------
                                X             Y             Z
Electronic contribution:      1.29211       1.05544       0.48696
Nuclear contribution   :     -2.02697      -0.94600      -0.63860
                        -----------------------------------------
Total Dipole Moment    :     -0.73486       0.10944      -0.15164
                        -----------------------------------------
Magnitude (a.u.)       :      0.75828
Magnitude (Debye)      :      1.92741

Rotational constants in cm-1:     4.325906     0.817609     0.776213
Rotational constants in MHz : 129687.396728 24511.300625 23270.288885

                             ****ORCA TERMINATED NORMALLY****
TOTAL RUN TIME: 0 days 0 hours 1 minutes 1 seconds 426 msec
