                         Program Version 4.1.2  - RELEASE  -
|  1> #Run DFT-D3 single point of the dimer
|  2> ! wB97X-D3 def2-TZVP TIGHTSCF CHELPG PMODEL PAL8
|  3>
|  4> %base "11-14_DFT_AB"
|  5>
|  6> %scf
|  7> MaxIter 1000
|  8> end
|  9>
| 10> * xyz 0 1
| 11>   C                      -9.588072            -1.444471            5.461368
| 12>   O                      -10.403230           -2.633637            5.367968
| 13>   H                      -11.278415           -2.425012            5.028035
| 14>   H                      -9.139766            -1.218325            4.490122
| 15>   H                      -10.162974           -0.559693            5.727943
| 16>   H                      -8.740249            -1.545357            6.116138
| 17>   C                      -9.579432            0.795863             8.946617
| 18>   O                      -9.515316            -0.038935            10.051498
| 19>   H                      -8.581589            -0.388565            10.072863
| 20>   H                      -9.147711            0.330495             8.012551
| 21>   H                      -10.602525           0.977370             8.687331
| 22>   H                      -9.072330            1.725560             9.102920
| 23> *
| 24>
| 25> #Run DFT-D3 single point of the molecule with dimer basis set
| 26> $new_job
| 27> %base "11-14_DFT_A"
| 28> ! wB97X-D3 def2-TZVP TIGHTSCF CHELPG PMODEL
| 29>
| 30> %scf
| 31> MaxIter 1000
| 32> end
| 33>
| 34> * xyz 0 1
| 35>   C                      -9.588072            -1.444471            5.461368
| 36>   O                      -10.403230           -2.633637            5.367968
| 37>   H                      -11.278415           -2.425012            5.028035
| 38>   H                      -9.139766            -1.218325            4.490122
| 39>   H                      -10.162974           -0.559693            5.727943
| 40>   H                      -8.740249            -1.545357            6.116138
| 41>   C                    : -9.579432            0.795863             8.946617
| 42>   O                    : -9.515316            -0.038935            10.051498
| 43>   H                    : -8.581589            -0.388565            10.072863
| 44>   H                    : -9.147711            0.330495             8.012551
| 45>   H                    : -10.602525           0.977370             8.687331
| 46>   H                    : -9.072330            1.725560             9.102920
| 47> *
| 48>
| 49> #Run DFT-D3 single point of the particle with dimer basis set
| 50> $new_job
| 51> %base "11-14_DFT_B"
| 52> ! wB97X-D3 def2-TZVP TIGHTSCF CHELPG PMODEL
| 53>
| 54> %scf
| 55> MaxIter 1000
| 56> end
| 57>
| 58> * xyz 0 1
| 59>   C                    : -9.588072            -1.444471            5.461368
| 60>   O                    : -10.403230           -2.633637            5.367968
| 61>   H                    : -11.278415           -2.425012            5.028035
| 62>   H                    : -9.139766            -1.218325            4.490122
| 63>   H                    : -10.162974           -0.559693            5.727943
| 64>   H                    : -8.740249            -1.545357            6.116138
| 65>   C                      -9.579432            0.795863             8.946617
| 66>   O                      -9.515316            -0.038935            10.051498
| 67>   H                      -8.581589            -0.388565            10.072863
| 68>   H                      -9.147711            0.330495             8.012551
| 69>   H                      -10.602525           0.977370             8.687331
| 70>   H                      -9.072330            1.725560             9.102920
| 71> *
| 72>
| 73>                          ****END OF INPUT****
 Total Charge           Charge          ....    0
 Multiplicity           Mult            ....    1
 Number of Electrons    NEL             ....   36
Dispersion correction           -0.001314182
FINAL SINGLE POINT ENERGY      -231.467627106241
Dispersion correction           -0.000263343
FINAL SINGLE POINT ENERGY      -115.733721054546

CARTESIAN COORDINATES (ANGSTROEM)
---------------------------------
  C     -9.588072   -1.444471    5.461368
  O    -10.403230   -2.633637    5.367968
  H    -11.278415   -2.425012    5.028035
  H     -9.139766   -1.218325    4.490122
  H    -10.162974   -0.559693    5.727943
  H     -8.740249   -1.545357    6.116138
  C     -9.579432    0.795863    8.946617
  O     -9.515316   -0.038935   10.051498
  H     -8.581589   -0.388565   10.072863
  H     -9.147711    0.330495    8.012551
  H    -10.602525    0.977370    8.687331
  H     -9.072330    1.725560    9.102920

 Multiplicity           Mult            ....    1
 Number of Electrons    NEL             ....   18
 Basis Dimension        Dim             ....  172

ORBITAL ENERGIES
----------------

  NO   OCC          E(Eh)            E(eV)
   0   2.0000     -19.234867      -523.4073
   1   2.0000     -10.308113      -280.4980
   2   2.0000      -1.140331       -31.0300
   3   2.0000      -0.791682       -21.5428
   4   2.0000      -0.611616       -16.6429
   5   2.0000      -0.547310       -14.8931
   6   2.0000      -0.528693       -14.3865
   7   2.0000      -0.431747       -11.7484
   8   2.0000      -0.372636       -10.1400
   9   0.0000       0.083468         2.2713
  10   0.0000       0.113483         3.0880
  11   0.0000       0.152361         4.1460
  12   0.0000       0.165715         4.5093
  13   0.0000       0.195839         5.3290

MULLIKEN ATOMIC CHARGES
-----------------------
   0 C :    0.003116
   1 O :   -0.000155
   2 H :   -0.000028
   3 H :    0.000131
   4 H :   -0.003424
   5 H :    0.000200
   6 C :   -0.154075
   7 O :   -0.465729
   8 H :    0.319002
   9 H :    0.085953
  10 H :    0.114069
  11 H :    0.100939
Sum of atomic charges:   -0.0000000

LOEWDIN ATOMIC CHARGES
----------------------
   0 C :   -0.004353
   1 O :   -0.000015
   2 H :   -0.000006
   3 H :   -0.000017
   4 H :   -0.002274
   5 H :   -0.001631
   6 C :   -0.410201
   7 O :   -0.069576
   8 H :    0.195045
   9 H :    0.101661
  10 H :    0.103386
  11 H :    0.087982

  Mayer bond orders larger than 0.1
B(  6-C ,  7-O ) :   1.0089 B(  6-C ,  9-H ) :   0.9803 B(  6-C , 10-H ) :   0.9746
B(  6-C , 11-H ) :   0.9732 B(  7-O ,  8-H ) :   0.8929

Dispersion correction           -0.000229162
FINAL SINGLE POINT ENERGY      -115.733658702873

DIPOLE MOMENT
-------------
                                X             Y             Z
Electronic contribution:     -0.09205      -1.01899       1.59305
Nuclear contribution   :      0.62915       1.11658      -1.98901
                        -----------------------------------------
Total Dipole Moment    :      0.53710       0.09760      -0.39596
                        -----------------------------------------
Magnitude (a.u.)       :      0.67438
Magnitude (Debye)      :      1.71413

Rotational constants in cm-1:     4.272256     0.856255     0.824420
Rotational constants in MHz : 128079.003838 25669.893499 24715.500780

                             ****ORCA TERMINATED NORMALLY****
TOTAL RUN TIME: 0 days 0 hours 1 minutes 13 seconds 25 msec
