                         Program Version 4.1.2  - RELEASE  -
|  1> #Run DFT-D3 single point of the dimer
|  2> ! wB97X-D3 def2-TZVP TIGHTSCF CHELPG PMODEL PAL8
|  3>
|  4> %base "12-18_DFT_AB"
|  5>
|  6> %scf
|  7> MaxIter 1000
|  8> end
|  9>
| 10> * xyz 0 1
| 11>   C                      7.783129             -4.327830            -2.139949
| 12>   O                      8.538829             -3.183352            -2.235793
| 13>   H                      9.186373             -3.113510            -1.593900
| 14>   H                      8.386808             -5.185219            -2.334048
| 15>   H                      7.505781             -4.489280            -1.123958
| 16>   H                      6.890016             -4.297037            -2.756172
| 17>   C                      3.342125             -5.023051            -5.318537
| 18>   O                      2.887319             -4.274273            -6.430763
| 19>   H                      3.572304             -4.139006            -7.111828
| 20>   H                      4.340022             -4.689167            -5.002145
| 21>   H                      2.573758             -5.014004            -4.521684
| 22>   H                      3.464078             -6.125490            -5.575400
| 23> *
| 24>
| 25> #Run DFT-D3 single point of the molecule with dimer basis set
| 26> $new_job
| 27> %base "12-18_DFT_A"
| 28> ! wB97X-D3 def2-TZVP TIGHTSCF CHELPG PMODEL
| 29>
| 30> %scf
| 31> MaxIter 1000
| 32> end
| 33>
| 34> * xyz 0 1
| 35>   C                      7.783129             -4.327830            -2.139949
| 36>   O                      8.538829             -3.183352            -2.235793
| 37>   H                      9.186373             -3.113510            -1.593900
| 38>   H                      8.386808             -5.185219            -2.334048
| 39>   H                      7.505781             -4.489280            -1.123958
| 40>   H                      6.890016             -4.297037            -2.756172
| 41>   C                    : 3.342125             -5.023051            -5.318537
| 42>   O                    : 2.887319             -4.274273            -6.430763
| 43>   H                    : 3.572304             -4.139006            -7.111828
| 44>   H                    : 4.340022             -4.689167            -5.002145
| 45>   H                    : 2.573758             -5.014004            -4.521684
| 46>   H                    : 3.464078             -6.125490            -5.575400
| 47> *
| 48>
| 49> #Run DFT-D3 single point of the particle with dimer basis set
| 50> $new_job
| 51> %base "12-18_DFT_B"
| 52> ! wB97X-D3 def2-TZVP TIGHTSCF CHELPG PMODEL
| 53>
| 54> %scf
| 55> MaxIter 1000
| 56> end
| 57>
| 58> * xyz 0 1
| 59>   C                    : 7.783129             -4.327830            -2.139949
| 60>   O                    : 8.538829             -3.183352            -2.235793
| 61>   H                    : 9.186373             -3.113510            -1.593900
| 62>   H                    : 8.386808             -5.185219            -2.334048
| 63>   H                    : 7.505781             -4.489280            -1.123958
| 64>   H                    : 6.890016             -4.297037            -2.756172
| 65>   C                      3.342125             -5.023051            -5.318537
| 66>   O                      2.887319             -4.274273            -6.430763
| 67>   H                      3.572304             -4.139006            -7.111828
| 68>   H                      4.340022             -4.689167            -5.002145
| 69>   H                      2.573758             -5.014004            -4.521684
| 70>   H                      3.464078             -6.125490            -5.575400
| 71> *
| 72>
| 73>                          ****END OF INPUT****
 Total Charge           Charge          ....    0
 Multiplicity           Mult            ....    1
 Number of Electrons    NEL             ....   36
Dispersion correction           -0.000674431
FINAL SINGLE POINT ENERGY      -231.463525968050
Dispersion correction           -0.000211017
FINAL SINGLE POINT ENERGY      -115.729681473632

CARTESIAN COORDINATES (ANGSTROEM)
---------------------------------
  C      7.783129   -4.327830   -2.139949
  O      8.538829   -3.183352   -2.235793
  H      9.186373   -3.113510   -1.593900
  H      8.386808   -5.185219   -2.334048
  H      7.505781   -4.489280   -1.123958
  H      6.890016   -4.297037   -2.756172
  C      3.342125   -5.023051   -5.318537
  O      2.887319   -4.274273   -6.430763
  H      3.572304   -4.139006   -7.111828
  H      4.340022   -4.689167   -5.002145
  H      2.573758   -5.014004   -4.521684
  H      3.464078   -6.125490   -5.575400

 Multiplicity           Mult            ....    1
 Number of Electrons    NEL             ....   18
 Basis Dimension        Dim             ....  172

ORBITAL ENERGIES
----------------

  NO   OCC          E(Eh)            E(eV)
   0   2.0000     -19.229543      -523.2625
   1   2.0000     -10.321411      -280.8599
   2   2.0000      -1.129519       -30.7358
   3   2.0000      -0.791883       -21.5482
   4   2.0000      -0.610190       -16.6041
   5   2.0000      -0.537583       -14.6284
   6   2.0000      -0.523251       -14.2384
   7   2.0000      -0.429903       -11.6983
   8   2.0000      -0.368477       -10.0268
   9   0.0000       0.083674         2.2769
  10   0.0000       0.113270         3.0822
  11   0.0000       0.140891         3.8338
  12   0.0000       0.167389         4.5549
  13   0.0000       0.183882         5.0037

MULLIKEN ATOMIC CHARGES
-----------------------
   0 C :    0.000286
   1 O :   -0.000004
   2 H :    0.000000
   3 H :   -0.000013
   4 H :   -0.000018
   5 H :   -0.000692
   6 C :   -0.146733
   7 O :   -0.485883
   8 H :    0.318264
   9 H :    0.099504
  10 H :    0.122773
  11 H :    0.092515
Sum of atomic charges:   -0.0000000

LOEWDIN ATOMIC CHARGES
----------------------
   0 C :   -0.000074
   1 O :   -0.000002
   2 H :   -0.000000
   3 H :   -0.000001
   4 H :   -0.000001
   5 H :   -0.000505
   6 C :   -0.388837
   7 O :   -0.089749
   8 H :    0.175704
   9 H :    0.093843
  10 H :    0.111194
  11 H :    0.098428

  Mayer bond orders larger than 0.1
B(  6-C ,  7-O ) :   0.9968 B(  6-C ,  9-H ) :   0.9791 B(  6-C , 10-H ) :   0.9707
B(  6-C , 11-H ) :   0.9725 B(  7-O ,  8-H ) :   0.8918

Dispersion correction           -0.000261690
FINAL SINGLE POINT ENERGY      -115.733631184428

DIPOLE MOMENT
-------------
                                X             Y             Z
Electronic contribution:     -0.70422       1.09142      -1.29886
Nuclear contribution   :      1.32560      -1.29542       1.30788
                        -----------------------------------------
Total Dipole Moment    :      0.62138      -0.20400       0.00902
                        -----------------------------------------
Magnitude (a.u.)       :      0.65407
Magnitude (Debye)      :      1.66252

Rotational constants in cm-1:     4.203085     0.821103     0.786783
Rotational constants in MHz : 126005.325934 24616.061452 23587.172607

                             ****ORCA TERMINATED NORMALLY****
TOTAL RUN TIME: 0 days 0 hours 1 minutes 1 seconds 991 msec
