                         Program Version 4.1.2  - RELEASE  -
|  1> #Run DFT-D3 single point of the dimer
|  2> ! wB97X-D3 def2-TZVP TIGHTSCF CHELPG PMODEL PAL8
|  3>
|  4> %base "4-29_DFT_AB"
|  5>
|  6> %scf
|  7> MaxIter 1000
|  8> end
|  9>
| 10> * xyz 0 1
| 11>   C                      -5.192736            -2.225288            6.637700
| 12>   O                      -5.408181            -1.507434            5.386835
| 13>   H                      -4.517370            -1.420161            5.041826
| 14>   H                      -4.838058            -1.544956            7.408872
| 15>   H                      -6.004383            -2.688830            7.117625
| 16>   H                      -4.338427            -2.918640            6.592779
| 17>   C                      -5.470393            -1.876097            1.136380
| 18>   O                      -5.868612            -2.423977            2.388435
| 19>   H                      -6.835133            -2.315790            2.387192
| 20>   H                      -4.375722            -2.094982            0.894261
| 21>   H                      -6.064162            -2.282764            0.341504
| 22>   H                      -5.615935            -0.781423            1.121355
| 23> *
| 24>
| 25> #Run DFT-D3 single point of the molecule with dimer basis set
| 26> $new_job
| 27> %base "4-29_DFT_A"
| 28> ! wB97X-D3 def2-TZVP TIGHTSCF CHELPG PMODEL
| 29>
| 30> %scf
| 31> MaxIter 1000
| 32> end
| 33>
| 34> * xyz 0 1
| 35>   C                      -5.192736            -2.225288            6.637700
| 36>   O                      -5.408181            -1.507434            5.386835
| 37>   H                      -4.517370            -1.420161            5.041826
| 38>   H                      -4.838058            -1.544956            7.408872
| 39>   H                      -6.004383            -2.688830            7.117625
| 40>   H                      -4.338427            -2.918640            6.592779
| 41>   C                    : -5.470393            -1.876097            1.136380
| 42>   O                    : -5.868612            -2.423977            2.388435
| 43>   H                    : -6.835133            -2.315790            2.387192
| 44>   H                    : -4.375722            -2.094982            0.894261
| 45>   H                    : -6.064162            -2.282764            0.341504
| 46>   H                    : -5.615935            -0.781423            1.121355
| 47> *
| 48>
| 49> #Run DFT-D3 single point of the particle with dimer basis set
| 50> $new_job
| 51> %base "4-29_DFT_B"
| 52> ! wB97X-D3 def2-TZVP TIGHTSCF CHELPG PMODEL
| 53>
| 54> %scf
| 55> MaxIter 1000
| 56> end
| 57>
| 58> * xyz 0 1
| 59>   C                    : -5.192736            -2.225288            6.637700
| 60>   O                    : -5.408181            -1.507434            5.386835
| 61>   H                    : -4.517370            -1.420161            5.041826
| 62>   H                    : -4.838058            -1.544956            7.408872
| 63>   H                    : -6.004383            -2.688830            7.117625
| 64>   H                    : -4.338427            -2.918640            6.592779
| 65>   C                      -5.470393            -1.876097            1.136380
| 66>   O                      -5.868612            -2.423977            2.388435
| 67>   H                      -6.835133            -2.315790            2.387192
| 68>   H                      -4.375722            -2.094982            0.894261
| 69>   H                      -6.064162            -2.282764            0.341504
| 70>   H                      -5.615935            -0.781423            1.121355
| 71> *
| 72>
| 73>                          ****END OF INPUT****
 Total Charge           Charge          ....    0
 Multiplicity           Mult            ....    1
 Number of Electrons    NEL             ....   36
Dispersion correction           -0.001196935
FINAL SINGLE POINT ENERGY      -231.460434680301
Dispersion correction           -0.000252548
FINAL SINGLE POINT ENERGY      -115.727120803632

CARTESIAN COORDINATES (ANGSTROEM)
---------------------------------
  C     -5.192736   -2.225288    6.637700
  O     -5.408181   -1.507434    5.386835
  H     -4.517370   -1.420161    5.041826
  H     -4.838058   -1.544956    7.408872
  H     -6.004383   -2.688830    7.117625
  H     -4.338427   -2.918640    6.592779
  C     -5.470393   -1.876097    1.136380
  O     -5.868612   -2.423977    2.388435
  H     -6.835133   -2.315790    2.387192
  H     -4.375722   -2.094982    0.894261
  H     -6.064162   -2.282764    0.341504
  H     -5.615935   -0.781423    1.121355

 Multiplicity           Mult            ....    1
 Number of Electrons    NEL             ....   18
 Basis Dimension        Dim             ....  172

ORBITAL ENERGIES
----------------

  NO   OCC          E(Eh)            E(eV)
   0   2.0000     -19.233704      -523.3757
   1   2.0000     -10.317769      -280.7608
   2   2.0000      -1.134839       -30.8805
   3   2.0000      -0.790164       -21.5015
   4   2.0000      -0.608526       -16.5588
   5   2.0000      -0.541097       -14.7240
   6   2.0000      -0.523072       -14.2335
   7   2.0000      -0.437730       -11.9112
   8   2.0000      -0.374079       -10.1792
   9   0.0000       0.094802         2.5797
  10   0.0000       0.115549         3.1443
  11   0.0000       0.151386         4.1194
  12   0.0000       0.180700         4.9171
  13   0.0000       0.198565         5.4032

MULLIKEN ATOMIC CHARGES
-----------------------
   0 C :   -0.000864
   1 O :    0.000085
   2 H :   -0.002982
   3 H :   -0.000062
   4 H :    0.000097
   5 H :    0.000036
   6 C :   -0.175771
   7 O :   -0.464491
   8 H :    0.314539
   9 H :    0.118242
  10 H :    0.106441
  11 H :    0.104730
Sum of atomic charges:    0.0000000

LOEWDIN ATOMIC CHARGES
----------------------
   0 C :   -0.000676
   1 O :   -0.005072
   2 H :   -0.003234
   3 H :   -0.000021
   4 H :   -0.000008
   5 H :   -0.000020
   6 C :   -0.388490
   7 O :   -0.083065
   8 H :    0.178382
   9 H :    0.117363
  10 H :    0.089479
  11 H :    0.095362

  Mayer bond orders larger than 0.1
B(  6-C ,  7-O ) :   0.9941 B(  6-C ,  9-H ) :   0.9713 B(  6-C , 10-H ) :   0.9768
B(  6-C , 11-H ) :   0.9750 B(  7-O ,  8-H ) :   0.8986

Dispersion correction           -0.000234322
FINAL SINGLE POINT ENERGY      -115.733967524425

DIPOLE MOMENT
-------------
                                X             Y             Z
Electronic contribution:     -0.37098      -0.78046       1.65664
Nuclear contribution   :     -0.08412       1.04667      -2.17386
                        -----------------------------------------
Total Dipole Moment    :     -0.45510       0.26621      -0.51722
                        -----------------------------------------
Magnitude (a.u.)       :      0.73858
Magnitude (Debye)      :      1.87733

Rotational constants in cm-1:     4.181351     0.824829     0.789345
Rotational constants in MHz : 125353.744699 24727.765825 23663.971151

                             ****ORCA TERMINATED NORMALLY****
TOTAL RUN TIME: 0 days 0 hours 1 minutes 32 seconds 132 msec
