                         Program Version 4.1.2  - RELEASE  -
|  1> #Run DFT-D3 single point of the dimer
|  2> ! wB97X-D3 def2-TZVP TIGHTSCF CHELPG PMODEL PAL8
|  3>
|  4> %base "13-170_DFT_AB"
|  5>
|  6> %scf
|  7> MaxIter 1000
|  8> end
|  9>
| 10> * xyz 0 1
| 11>   C                      -2.752617            -3.076059            -0.589000
| 12>   O                      -3.304085            -3.768648            -1.717035
| 13>   H                      -2.612261            -3.905826            -2.386180
| 14>   H                      -3.493172            -2.722931            0.156007
| 15>   H                      -2.242479            -3.835967            0.046678
| 16>   H                      -2.114953            -2.201284            -0.755336
| 17>   C                      -6.281355            -2.592980            -2.805653
| 18>   O                      -5.512956            -3.542670            -3.432184
| 19>   H                      -4.711470            -3.695497            -2.880116
| 20>   H                      -6.699797            -2.961090            -1.863709
| 21>   H                      -5.695187            -1.710947            -2.525002
| 22>   H                      -7.073558            -2.252061            -3.481958
| 23> *
| 24>
| 25> #Run DFT-D3 single point of the molecule with dimer basis set
| 26> $new_job
| 27> %base "13-170_DFT_A"
| 28> ! wB97X-D3 def2-TZVP TIGHTSCF CHELPG PMODEL
| 29>
| 30> %scf
| 31> MaxIter 1000
| 32> end
| 33>
| 34> * xyz 0 1
| 35>   C                      -2.752617            -3.076059            -0.589000
| 36>   O                      -3.304085            -3.768648            -1.717035
| 37>   H                      -2.612261            -3.905826            -2.386180
| 38>   H                      -3.493172            -2.722931            0.156007
| 39>   H                      -2.242479            -3.835967            0.046678
| 40>   H                      -2.114953            -2.201284            -0.755336
| 41>   C                    : -6.281355            -2.592980            -2.805653
| 42>   O                    : -5.512956            -3.542670            -3.432184
| 43>   H                    : -4.711470            -3.695497            -2.880116
| 44>   H                    : -6.699797            -2.961090            -1.863709
| 45>   H                    : -5.695187            -1.710947            -2.525002
| 46>   H                    : -7.073558            -2.252061            -3.481958
| 47> *
| 48>
| 49> #Run DFT-D3 single point of the particle with dimer basis set
| 50> $new_job
| 51> %base "13-170_DFT_B"
| 52> ! wB97X-D3 def2-TZVP TIGHTSCF CHELPG PMODEL
| 53>
| 54> %scf
| 55> MaxIter 1000
| 56> end
| 57>
| 58> * xyz 0 1
| 59>   C                    : -2.752617            -3.076059            -0.589000
| 60>   O                    : -3.304085            -3.768648            -1.717035
| 61>   H                    : -2.612261            -3.905826            -2.386180
| 62>   H                    : -3.493172            -2.722931            0.156007
| 63>   H                    : -2.242479            -3.835967            0.046678
| 64>   H                    : -2.114953            -2.201284            -0.755336
| 65>   C                      -6.281355            -2.592980            -2.805653
| 66>   O                      -5.512956            -3.542670            -3.432184
| 67>   H                      -4.711470            -3.695497            -2.880116
| 68>   H                      -6.699797            -2.961090            -1.863709
| 69>   H                      -5.695187            -1.710947            -2.525002
| 70>   H                      -7.073558            -2.252061            -3.481958
| 71> *
| 72>
| 73>                          ****END OF INPUT****
 Total Charge           Charge          ....    0
 Multiplicity           Mult            ....    1
 Number of Electrons    NEL             ....   36
Dispersion correction           -0.001829279
FINAL SINGLE POINT ENERGY      -231.473416173095
Dispersion correction           -0.000281074
FINAL SINGLE POINT ENERGY      -115.730021302322

CARTESIAN COORDINATES (ANGSTROEM)
---------------------------------
  C     -2.752617   -3.076059   -0.589000
  O     -3.304085   -3.768648   -1.717035
  H     -2.612261   -3.905826   -2.386180
  H     -3.493172   -2.722931    0.156007
  H     -2.242479   -3.835967    0.046678
  H     -2.114953   -2.201284   -0.755336
  C     -6.281355   -2.592980   -2.805653
  O     -5.512956   -3.542670   -3.432184
  H     -4.711470   -3.695497   -2.880116
  H     -6.699797   -2.961090   -1.863709
  H     -5.695187   -1.710947   -2.525002
  H     -7.073558   -2.252061   -3.481958

 Multiplicity           Mult            ....    1
 Number of Electrons    NEL             ....   18
 Basis Dimension        Dim             ....  172

ORBITAL ENERGIES
----------------

  NO   OCC          E(Eh)            E(eV)
   0   2.0000     -19.232634      -523.3466
   1   2.0000     -10.309323      -280.5309
   2   2.0000      -1.145688       -31.1758
   3   2.0000      -0.790680       -21.5155
   4   2.0000      -0.618357       -16.8264
   5   2.0000      -0.543966       -14.8021
   6   2.0000      -0.531676       -14.4676
   7   2.0000      -0.432314       -11.7639
   8   2.0000      -0.369509       -10.0549
   9   0.0000       0.065991         1.7957
  10   0.0000       0.131944         3.5904
  11   0.0000       0.140163         3.8140
  12   0.0000       0.179363         4.8807
  13   0.0000       0.189213         5.1487

MULLIKEN ATOMIC CHARGES
-----------------------
   0 C :   -0.000455
   1 O :   -0.005365
   2 H :   -0.001009
   3 H :   -0.000073
   4 H :    0.000025
   5 H :   -0.000006
   6 C :   -0.155978
   7 O :   -0.463388
   8 H :    0.318816
   9 H :    0.091447
  10 H :    0.095123
  11 H :    0.120862
Sum of atomic charges:   -0.0000000

LOEWDIN ATOMIC CHARGES
----------------------
   0 C :   -0.002477
   1 O :   -0.027222
   2 H :   -0.003479
   3 H :   -0.000112
   4 H :   -0.000058
   5 H :   -0.000049
   6 C :   -0.419430
   7 O :   -0.043991
   8 H :    0.202345
   9 H :    0.091672
  10 H :    0.092731
  11 H :    0.110071

  Mayer bond orders larger than 0.1
B(  6-C ,  7-O ) :   0.9957 B(  6-C ,  9-H ) :   0.9778 B(  6-C , 10-H ) :   0.9797
B(  6-C , 11-H ) :   0.9722 B(  7-O ,  8-H ) :   0.8992

Dispersion correction           -0.000221005
FINAL SINGLE POINT ENERGY      -115.735375621096

DIPOLE MOMENT
-------------
                                X             Y             Z
Electronic contribution:      0.87886      -1.30375      -0.99022
Nuclear contribution   :     -0.65921       1.56947       1.55608
                        -----------------------------------------
Total Dipole Moment    :      0.21965       0.26571       0.56586
                        -----------------------------------------
Magnitude (a.u.)       :      0.66260
Magnitude (Debye)      :      1.68420

Rotational constants in cm-1:     4.256189     0.873239     0.834401
Rotational constants in MHz : 127597.334463 26179.041663 25014.723175

                             ****ORCA TERMINATED NORMALLY****
TOTAL RUN TIME: 0 days 0 hours 1 minutes 14 seconds 436 msec
