                         Program Version 4.1.2  - RELEASE  -
|  1> #Run DFT-D3 single point of the dimer
|  2> ! wB97X-D3 def2-TZVP TIGHTSCF  CHELPG PAL8
|  3>
|  4> %base "125_charges"
|  5>
|  6> %scf
|  7> MaxIter 1000
|  8> end
|  9> %output
| 10>   Print[ P_Mayer ] 1
| 11>   Print[ P_NatPop ] 1
| 12>   Print[ P_Hirshfeld ] 1
| 13>   Print[ P_Mulliken ] 1
| 14>   Print [ P_Loewdin ] 1
| 15> end
| 16>
| 17> * xyz 0 1
| 18>   C                      5.468806             2.943379             1.537019
| 19>   O                      5.962748             4.060933             0.810234
| 20>   H                      5.305333             4.665745             0.955894
| 21>   H                      6.066003             2.810681             2.446348
| 22>   H                      4.399806             2.925621             1.788165
| 23>   H                      5.614170             1.979278             0.958245
| 24> *
| 25>
| 26>                          ****END OF INPUT****

CARTESIAN COORDINATES (ANGSTROEM)
---------------------------------
  C      5.468806    2.943379    1.537019
  O      5.962748    4.060933    0.810234
  H      5.305333    4.665745    0.955894
  H      6.066003    2.810681    2.446348
  H      4.399806    2.925621    1.788165
  H      5.614170    1.979278    0.958245

 Total Charge           Charge          ....    0
 Multiplicity           Mult            ....    1
 Number of Electrons    NEL             ....   18
 Basis Dimension        Dim             ....   86

ORBITAL ENERGIES
----------------

  NO   OCC          E(Eh)            E(eV)
   0   2.0000     -19.230424      -523.2864
   1   2.0000     -10.318461      -280.7796
   2   2.0000      -1.152624       -31.3645
   3   2.0000      -0.795264       -21.6402
   4   2.0000      -0.618080       -16.8188
   5   2.0000      -0.538214       -14.6456
   6   2.0000      -0.523059       -14.2331
   7   2.0000      -0.445751       -12.1295
   8   2.0000      -0.375916       -10.2292
   9   0.0000       0.119270         3.2455
  10   0.0000       0.154229         4.1968
  11   0.0000       0.191665         5.2155
  12   0.0000       0.204806         5.5731
  13   0.0000       0.238841         6.4992

MULLIKEN ATOMIC CHARGES
-----------------------
   0 C :   -0.188789
   1 O :   -0.443941
   2 H :    0.301991
   3 H :    0.108642
   4 H :    0.112073
   5 H :    0.110024
Sum of atomic charges:   -0.0000000

LOEWDIN ATOMIC CHARGES
----------------------
   0 C :   -0.390248
   1 O :   -0.049735
   2 H :    0.134396
   3 H :    0.097897
   4 H :    0.097853
   5 H :    0.109837

  Mayer bond orders larger than 0.1
B(  0-C ,  1-O ) :   1.0095 B(  0-C ,  3-H ) :   0.9774 B(  0-C ,  4-H ) :   0.9751
B(  0-C ,  5-H ) :   0.9750 B(  1-O ,  2-H ) :   0.9177

Dispersion correction           -0.000250660
FINAL SINGLE POINT ENERGY      -115.728479750535

DIPOLE MOMENT
-------------
                                X             Y             Z
Electronic contribution:      0.69104       1.55249      -0.98526
Nuclear contribution   :     -1.32344      -1.58758       1.35692
                        -----------------------------------------
Total Dipole Moment    :     -0.63240      -0.03509       0.37166
                        -----------------------------------------
Magnitude (a.u.)       :      0.73437
Magnitude (Debye)      :      1.86661

Rotational constants in cm-1:     4.337094     0.821859     0.794279
Rotational constants in MHz : 130022.807575 24638.707742 23811.880583

                             ****ORCA TERMINATED NORMALLY****
TOTAL RUN TIME: 0 days 0 hours 0 minutes 43 seconds 85 msec
