                         Program Version 4.1.2  - RELEASE  -
|  1> #Run DFT-D3 single point of the dimer
|  2> ! wB97X-D3 def2-TZVP TIGHTSCF CHELPG PMODEL PAL8
|  3>
|  4> %base "9-213_DFT_AB"
|  5>
|  6> %scf
|  7> MaxIter 1000
|  8> end
|  9>
| 10> * xyz 0 1
| 11>   C                      -3.237779            9.044362             5.187384
| 12>   O                      -3.133126            9.777949             3.952850
| 13>   H                      -2.940493            9.172445             3.274420
| 14>   H                      -2.838870            9.574905             6.057615
| 15>   H                      -4.240134            8.838847             5.502573
| 16>   H                      -2.712351            8.049875             5.136452
| 17>   C                      -0.676098            8.392767             1.470357
| 18>   O                      -1.450425            7.890329             2.485881
| 19>   H                      -0.899939            7.273258             2.924053
| 20>   H                      -1.271635            8.689298             0.529120
| 21>   H                      -0.158063            9.324743             1.715549
| 22>   H                      0.009115             7.665358             1.069174
| 23> *
| 24>
| 25> #Run DFT-D3 single point of the molecule with dimer basis set
| 26> $new_job
| 27> %base "9-213_DFT_A"
| 28> ! wB97X-D3 def2-TZVP TIGHTSCF CHELPG PMODEL
| 29>
| 30> %scf
| 31> MaxIter 1000
| 32> end
| 33>
| 34> * xyz 0 1
| 35>   C                      -3.237779            9.044362             5.187384
| 36>   O                      -3.133126            9.777949             3.952850
| 37>   H                      -2.940493            9.172445             3.274420
| 38>   H                      -2.838870            9.574905             6.057615
| 39>   H                      -4.240134            8.838847             5.502573
| 40>   H                      -2.712351            8.049875             5.136452
| 41>   C                    : -0.676098            8.392767             1.470357
| 42>   O                    : -1.450425            7.890329             2.485881
| 43>   H                    : -0.899939            7.273258             2.924053
| 44>   H                    : -1.271635            8.689298             0.529120
| 45>   H                    : -0.158063            9.324743             1.715549
| 46>   H                    : 0.009115             7.665358             1.069174
| 47> *
| 48>
| 49> #Run DFT-D3 single point of the particle with dimer basis set
| 50> $new_job
| 51> %base "9-213_DFT_B"
| 52> ! wB97X-D3 def2-TZVP TIGHTSCF CHELPG PMODEL
| 53>
| 54> %scf
| 55> MaxIter 1000
| 56> end
| 57>
| 58> * xyz 0 1
| 59>   C                    : -3.237779            9.044362             5.187384
| 60>   O                    : -3.133126            9.777949             3.952850
| 61>   H                    : -2.940493            9.172445             3.274420
| 62>   H                    : -2.838870            9.574905             6.057615
| 63>   H                    : -4.240134            8.838847             5.502573
| 64>   H                    : -2.712351            8.049875             5.136452
| 65>   C                      -0.676098            8.392767             1.470357
| 66>   O                      -1.450425            7.890329             2.485881
| 67>   H                      -0.899939            7.273258             2.924053
| 68>   H                      -1.271635            8.689298             0.529120
| 69>   H                      -0.158063            9.324743             1.715549
| 70>   H                      0.009115             7.665358             1.069174
| 71> *
| 72>
| 73>                          ****END OF INPUT****
 Total Charge           Charge          ....    0
 Multiplicity           Mult            ....    1
 Number of Electrons    NEL             ....   36
Dispersion correction           -0.001818864
FINAL SINGLE POINT ENERGY      -231.468928437166
Dispersion correction           -0.000270125
FINAL SINGLE POINT ENERGY      -115.732187560758

CARTESIAN COORDINATES (ANGSTROEM)
---------------------------------
  C     -3.237779    9.044362    5.187384
  O     -3.133126    9.777949    3.952850
  H     -2.940493    9.172445    3.274420
  H     -2.838870    9.574905    6.057615
  H     -4.240134    8.838847    5.502573
  H     -2.712351    8.049875    5.136452
  C     -0.676098    8.392767    1.470357
  O     -1.450425    7.890329    2.485881
  H     -0.899939    7.273258    2.924053
  H     -1.271635    8.689298    0.529120
  H     -0.158063    9.324743    1.715549
  H      0.009115    7.665358    1.069174

 Multiplicity           Mult            ....    1
 Number of Electrons    NEL             ....   18
 Basis Dimension        Dim             ....  172

ORBITAL ENERGIES
----------------

  NO   OCC          E(Eh)            E(eV)
   0   2.0000     -19.233825      -523.3790
   1   2.0000     -10.314144      -280.6621
   2   2.0000      -1.159828       -31.5605
   3   2.0000      -0.793740       -21.5988
   4   2.0000      -0.625412       -17.0183
   5   2.0000      -0.549570       -14.9546
   6   2.0000      -0.530517       -14.4361
   7   2.0000      -0.429797       -11.6954
   8   2.0000      -0.375422       -10.2158
   9   0.0000       0.099386         2.7044
  10   0.0000       0.125229         3.4076
  11   0.0000       0.150392         4.0924
  12   0.0000       0.186385         5.0718
  13   0.0000       0.199093         5.4176

MULLIKEN ATOMIC CHARGES
-----------------------
   0 C :    0.000456
   1 O :   -0.000233
   2 H :   -0.004704
   3 H :    0.000083
   4 H :   -0.000467
   5 H :   -0.004138
   6 C :   -0.175545
   7 O :   -0.444774
   8 H :    0.314534
   9 H :    0.105900
  10 H :    0.101172
  11 H :    0.107717
Sum of atomic charges:    0.0000000

LOEWDIN ATOMIC CHARGES
----------------------
   0 C :   -0.005837
   1 O :   -0.005167
   2 H :   -0.025453
   3 H :   -0.000044
   4 H :   -0.000084
   5 H :   -0.002793
   6 C :   -0.425969
   7 O :    0.001075
   8 H :    0.162421
   9 H :    0.114523
  10 H :    0.093691
  11 H :    0.093638

  Mayer bond orders larger than 0.1
B(  6-C ,  7-O ) :   1.0041 B(  6-C ,  9-H ) :   0.9750 B(  6-C , 10-H ) :   0.9731
B(  6-C , 11-H ) :   0.9787 B(  7-O ,  8-H ) :   0.9010

Dispersion correction           -0.000236843
FINAL SINGLE POINT ENERGY      -115.730772123273

DIPOLE MOMENT
-------------
                                X             Y             Z
Electronic contribution:     -1.11106      -0.67576       1.49912
Nuclear contribution   :      1.75982       0.43085      -1.60316
                        -----------------------------------------
Total Dipole Moment    :      0.64876      -0.24490      -0.10404
                        -----------------------------------------
Magnitude (a.u.)       :      0.70121
Magnitude (Debye)      :      1.78234

Rotational constants in cm-1:     4.382691     0.860204     0.832537
Rotational constants in MHz : 131389.783227 25788.276731 24958.819361

                             ****ORCA TERMINATED NORMALLY****
TOTAL RUN TIME: 0 days 0 hours 0 minutes 44 seconds 131 msec
