                         Program Version 4.1.2  - RELEASE  -
|  1> #Run DFT-D3 single point of the dimer
|  2> ! wB97X-D3 def2-TZVP TIGHTSCF  CHELPG PAL8
|  3>
|  4> %base "182_charges"
|  5>
|  6> %scf
|  7> MaxIter 1000
|  8> end
|  9> %output
| 10>   Print[ P_Mayer ] 1
| 11>   Print[ P_NatPop ] 1
| 12>   Print[ P_Hirshfeld ] 1
| 13>   Print[ P_Mulliken ] 1
| 14>   Print [ P_Loewdin ] 1
| 15> end
| 16>
| 17> * xyz 0 1
| 18>   C                      -7.421124            9.216006             -8.201468
| 19>   O                      -7.846324            8.793922             -9.476749
| 20>   H                      -8.588757            9.363490             -9.638633
| 21>   H                      -6.843642            8.456834             -7.732798
| 22>   H                      -6.800263            10.052282            -8.194818
| 23>   H                      -8.230752            9.412780             -7.498225
| 24> *
| 25>
| 26>                          ****END OF INPUT****

CARTESIAN COORDINATES (ANGSTROEM)
---------------------------------
  C     -7.421124    9.216006   -8.201468
  O     -7.846324    8.793922   -9.476749
  H     -8.588757    9.363490   -9.638633
  H     -6.843642    8.456834   -7.732798
  H     -6.800263   10.052282   -8.194818
  H     -8.230752    9.412780   -7.498225

 Total Charge           Charge          ....    0
 Multiplicity           Mult            ....    1
 Number of Electrons    NEL             ....   18
 Basis Dimension        Dim             ....   86

ORBITAL ENERGIES
----------------

  NO   OCC          E(Eh)            E(eV)
   0   2.0000     -19.232854      -523.3526
   1   2.0000     -10.301938      -280.3300
   2   2.0000      -1.144178       -31.1347
   3   2.0000      -0.803371       -21.8608
   4   2.0000      -0.614902       -16.7323
   5   2.0000      -0.546374       -14.8676
   6   2.0000      -0.529386       -14.4053
   7   2.0000      -0.441066       -12.0020
   8   2.0000      -0.377604       -10.2751
   9   0.0000       0.117094         3.1863
  10   0.0000       0.156657         4.2628
  11   0.0000       0.202858         5.5200
  12   0.0000       0.215841         5.8733
  13   0.0000       0.231444         6.2979

MULLIKEN ATOMIC CHARGES
-----------------------
   0 C :   -0.174031
   1 O :   -0.458901
   2 H :    0.312905
   3 H :    0.116437
   4 H :    0.103279
   5 H :    0.100311
Sum of atomic charges:    0.0000000

LOEWDIN ATOMIC CHARGES
----------------------
   0 C :   -0.386833
   1 O :   -0.062143
   2 H :    0.166755
   3 H :    0.102389
   4 H :    0.083485
   5 H :    0.096348

  Mayer bond orders larger than 0.1
B(  0-C ,  1-O ) :   1.0106 B(  0-C ,  3-H ) :   0.9788 B(  0-C ,  4-H ) :   0.9739
B(  0-C ,  5-H ) :   0.9824 B(  1-O ,  2-H ) :   0.9056

Dispersion correction           -0.000226535
FINAL SINGLE POINT ENERGY      -115.732046885009

DIPOLE MOMENT
-------------
                                X             Y             Z
Electronic contribution:     -0.44950      -0.61993      -1.76209
Nuclear contribution   :      0.15514       1.13314       2.16818
                        -----------------------------------------
Total Dipole Moment    :     -0.29437       0.51321       0.40609
                        -----------------------------------------
Magnitude (a.u.)       :      0.71760
Magnitude (Debye)      :      1.82399

Rotational constants in cm-1:     4.570262     0.840607     0.808366
Rotational constants in MHz : 137013.001795 25200.757173 24234.198884

                             ****ORCA TERMINATED NORMALLY****
TOTAL RUN TIME: 0 days 0 hours 0 minutes 44 seconds 763 msec
