                         Program Version 4.1.2  - RELEASE  -
|  1> #Run DFT-D3 single point of the dimer
|  2> ! wB97X-D3 def2-TZVP TIGHTSCF CHELPG PMODEL PAL8
|  3>
|  4> %base "6-97_DFT_AB"
|  5>
|  6> %scf
|  7> MaxIter 1000
|  8> end
|  9>
| 10> * xyz 0 1
| 11>   C                      6.664978             3.067073             1.226311
| 12>   O                      8.059023             2.989451             1.564592
| 13>   H                      8.160365             2.945944             2.478638
| 14>   H                      6.091341             2.145018             1.217380
| 15>   H                      6.072127             3.731938             1.852075
| 16>   H                      6.459341             3.559162             0.310594
| 17>   C                      5.562392             4.612648             6.027867
| 18>   O                      6.721985             5.521843             5.863969
| 19>   H                      7.113984             5.904245             6.655793
| 20>   H                      5.742711             3.693669             6.644544
| 21>   H                      4.707211             5.079551             6.453694
| 22>   H                      5.234683             4.194641             5.070184
| 23> *
| 24>
| 25> #Run DFT-D3 single point of the molecule with dimer basis set
| 26> $new_job
| 27> %base "6-97_DFT_A"
| 28> ! wB97X-D3 def2-TZVP TIGHTSCF CHELPG PMODEL
| 29>
| 30> %scf
| 31> MaxIter 1000
| 32> end
| 33>
| 34> * xyz 0 1
| 35>   C                      6.664978             3.067073             1.226311
| 36>   O                      8.059023             2.989451             1.564592
| 37>   H                      8.160365             2.945944             2.478638
| 38>   H                      6.091341             2.145018             1.217380
| 39>   H                      6.072127             3.731938             1.852075
| 40>   H                      6.459341             3.559162             0.310594
| 41>   C                    : 5.562392             4.612648             6.027867
| 42>   O                    : 6.721985             5.521843             5.863969
| 43>   H                    : 7.113984             5.904245             6.655793
| 44>   H                    : 5.742711             3.693669             6.644544
| 45>   H                    : 4.707211             5.079551             6.453694
| 46>   H                    : 5.234683             4.194641             5.070184
| 47> *
| 48>
| 49> #Run DFT-D3 single point of the particle with dimer basis set
| 50> $new_job
| 51> %base "6-97_DFT_B"
| 52> ! wB97X-D3 def2-TZVP TIGHTSCF CHELPG PMODEL
| 53>
| 54> %scf
| 55> MaxIter 1000
| 56> end
| 57>
| 58> * xyz 0 1
| 59>   C                    : 6.664978             3.067073             1.226311
| 60>   O                    : 8.059023             2.989451             1.564592
| 61>   H                    : 8.160365             2.945944             2.478638
| 62>   H                    : 6.091341             2.145018             1.217380
| 63>   H                    : 6.072127             3.731938             1.852075
| 64>   H                    : 6.459341             3.559162             0.310594
| 65>   C                      5.562392             4.612648             6.027867
| 66>   O                      6.721985             5.521843             5.863969
| 67>   H                      7.113984             5.904245             6.655793
| 68>   H                      5.742711             3.693669             6.644544
| 69>   H                      4.707211             5.079551             6.453694
| 70>   H                      5.234683             4.194641             5.070184
| 71> *
| 72>
| 73>                          ****END OF INPUT****
 Total Charge           Charge          ....    0
 Multiplicity           Mult            ....    1
 Number of Electrons    NEL             ....   36
Dispersion correction           -0.000962285
FINAL SINGLE POINT ENERGY      -231.455932811283
Dispersion correction           -0.000278732
FINAL SINGLE POINT ENERGY      -115.727801635475

CARTESIAN COORDINATES (ANGSTROEM)
---------------------------------
  C      6.664978    3.067073    1.226311
  O      8.059023    2.989451    1.564592
  H      8.160365    2.945944    2.478638
  H      6.091341    2.145018    1.217380
  H      6.072127    3.731938    1.852075
  H      6.459341    3.559162    0.310594
  C      5.562392    4.612648    6.027867
  O      6.721985    5.521843    5.863969
  H      7.113984    5.904245    6.655793
  H      5.742711    3.693669    6.644544
  H      4.707211    5.079551    6.453694
  H      5.234683    4.194641    5.070184

 Multiplicity           Mult            ....    1
 Number of Electrons    NEL             ....   18
 Basis Dimension        Dim             ....  172

ORBITAL ENERGIES
----------------

  NO   OCC          E(Eh)            E(eV)
   0   2.0000     -19.229258      -523.2547
   1   2.0000     -10.321169      -280.8533
   2   2.0000      -1.110644       -30.2222
   3   2.0000      -0.804760       -21.8986
   4   2.0000      -0.604273       -16.4431
   5   2.0000      -0.532281       -14.4841
   6   2.0000      -0.517987       -14.0951
   7   2.0000      -0.425427       -11.5765
   8   2.0000      -0.376843       -10.2544
   9   0.0000       0.089035         2.4228
  10   0.0000       0.118735         3.2309
  11   0.0000       0.142360         3.8738
  12   0.0000       0.168736         4.5915
  13   0.0000       0.181473         4.9381

MULLIKEN ATOMIC CHARGES
-----------------------
   0 C :   -0.000230
   1 O :    0.000018
   2 H :   -0.000191
   3 H :    0.000018
   4 H :    0.000339
   5 H :    0.000009
   6 C :   -0.158413
   7 O :   -0.508220
   8 H :    0.320797
   9 H :    0.105889
  10 H :    0.115173
  11 H :    0.124813
Sum of atomic charges:    0.0000000

LOEWDIN ATOMIC CHARGES
----------------------
   0 C :   -0.000121
   1 O :   -0.000006
   2 H :   -0.000099
   3 H :   -0.000004
   4 H :   -0.000203
   5 H :   -0.000000
   6 C :   -0.337729
   7 O :   -0.126860
   8 H :    0.163259
   9 H :    0.101774
  10 H :    0.089663
  11 H :    0.110325

  Mayer bond orders larger than 0.1
B(  6-C ,  7-O ) :   0.9905 B(  6-C ,  9-H ) :   0.9723 B(  6-C , 10-H ) :   0.9747
B(  6-C , 11-H ) :   0.9727 B(  7-O ,  8-H ) :   0.8904

Dispersion correction           -0.000320720
FINAL SINGLE POINT ENERGY      -115.727351907111

DIPOLE MOMENT
-------------
                                X             Y             Z
Electronic contribution:      1.42922       1.18998      -0.30014
Nuclear contribution   :     -1.71422      -1.35140       0.89010
                        -----------------------------------------
Total Dipole Moment    :     -0.28500      -0.16142       0.58996
                        -----------------------------------------
Magnitude (a.u.)       :      0.67479
Magnitude (Debye)      :      1.71517

Rotational constants in cm-1:     4.592570     0.744464     0.724605
Rotational constants in MHz : 137681.779902 22318.468100 21723.107787

                             ****ORCA TERMINATED NORMALLY****
TOTAL RUN TIME: 0 days 0 hours 0 minutes 42 seconds 260 msec
