                         Program Version 4.1.2  - RELEASE  -
|  1> #Run DFT-D3 single point of the dimer
|  2> ! wB97X-D3 def2-TZVP TIGHTSCF CHELPG PMODEL PAL8
|  3>
|  4> %base "7-27_DFT_AB"
|  5>
|  6> %scf
|  7> MaxIter 1000
|  8> end
|  9>
| 10> * xyz 0 1
| 11>   C                      0.666390             -0.715815            -0.420100
| 12>   O                      1.567490             0.321839             -0.143165
| 13>   H                      1.326093             1.086254             -0.696441
| 14>   H                      -0.316124            -0.427597            -0.014911
| 15>   H                      0.543968             -0.926248            -1.464179
| 16>   H                      1.024687             -1.624058            0.019191
| 17>   C                      3.721256             2.865454             0.278842
| 18>   O                      3.810652             4.224513             0.718855
| 19>   H                      3.847158             4.251311             1.654711
| 20>   H                      4.630489             2.337793             0.330650
| 21>   H                      3.118835             2.213713             0.975832
| 22>   H                      3.309772             2.784025             -0.718189
| 23> *
| 24>
| 25> #Run DFT-D3 single point of the molecule with dimer basis set
| 26> $new_job
| 27> %base "7-27_DFT_A"
| 28> ! wB97X-D3 def2-TZVP TIGHTSCF CHELPG PMODEL
| 29>
| 30> %scf
| 31> MaxIter 1000
| 32> end
| 33>
| 34> * xyz 0 1
| 35>   C                      0.666390             -0.715815            -0.420100
| 36>   O                      1.567490             0.321839             -0.143165
| 37>   H                      1.326093             1.086254             -0.696441
| 38>   H                      -0.316124            -0.427597            -0.014911
| 39>   H                      0.543968             -0.926248            -1.464179
| 40>   H                      1.024687             -1.624058            0.019191
| 41>   C                    : 3.721256             2.865454             0.278842
| 42>   O                    : 3.810652             4.224513             0.718855
| 43>   H                    : 3.847158             4.251311             1.654711
| 44>   H                    : 4.630489             2.337793             0.330650
| 45>   H                    : 3.118835             2.213713             0.975832
| 46>   H                    : 3.309772             2.784025             -0.718189
| 47> *
| 48>
| 49> #Run DFT-D3 single point of the particle with dimer basis set
| 50> $new_job
| 51> %base "7-27_DFT_B"
| 52> ! wB97X-D3 def2-TZVP TIGHTSCF CHELPG PMODEL
| 53>
| 54> %scf
| 55> MaxIter 1000
| 56> end
| 57>
| 58> * xyz 0 1
| 59>   C                    : 0.666390             -0.715815            -0.420100
| 60>   O                    : 1.567490             0.321839             -0.143165
| 61>   H                    : 1.326093             1.086254             -0.696441
| 62>   H                    : -0.316124            -0.427597            -0.014911
| 63>   H                    : 0.543968             -0.926248            -1.464179
| 64>   H                    : 1.024687             -1.624058            0.019191
| 65>   C                      3.721256             2.865454             0.278842
| 66>   O                      3.810652             4.224513             0.718855
| 67>   H                      3.847158             4.251311             1.654711
| 68>   H                      4.630489             2.337793             0.330650
| 69>   H                      3.118835             2.213713             0.975832
| 70>   H                      3.309772             2.784025             -0.718189
| 71> *
| 72>
| 73>                          ****END OF INPUT****
 Total Charge           Charge          ....    0
 Multiplicity           Mult            ....    1
 Number of Electrons    NEL             ....   36
Dispersion correction           -0.001447028
FINAL SINGLE POINT ENERGY      -231.468609111761
Dispersion correction           -0.000225229
FINAL SINGLE POINT ENERGY      -115.735754008563

CARTESIAN COORDINATES (ANGSTROEM)
---------------------------------
  C      0.666390   -0.715815   -0.420100
  O      1.567490    0.321839   -0.143165
  H      1.326093    1.086254   -0.696441
  H     -0.316124   -0.427597   -0.014911
  H      0.543968   -0.926248   -1.464179
  H      1.024687   -1.624058    0.019191
  C      3.721256    2.865454    0.278842
  O      3.810652    4.224513    0.718855
  H      3.847158    4.251311    1.654711
  H      4.630489    2.337793    0.330650
  H      3.118835    2.213713    0.975832
  H      3.309772    2.784025   -0.718189

 Multiplicity           Mult            ....    1
 Number of Electrons    NEL             ....   18
 Basis Dimension        Dim             ....  172

ORBITAL ENERGIES
----------------

  NO   OCC          E(Eh)            E(eV)
   0   2.0000     -19.229448      -523.2599
   1   2.0000     -10.313594      -280.6472
   2   2.0000      -1.135140       -30.8887
   3   2.0000      -0.802956       -21.8496
   4   2.0000      -0.617075       -16.7915
   5   2.0000      -0.536388       -14.5959
   6   2.0000      -0.525180       -14.2909
   7   2.0000      -0.438328       -11.9275
   8   2.0000      -0.373525       -10.1641
   9   0.0000       0.084748         2.3061
  10   0.0000       0.117541         3.1985
  11   0.0000       0.143277         3.8988
  12   0.0000       0.178301         4.8518
  13   0.0000       0.193652         5.2695

MULLIKEN ATOMIC CHARGES
-----------------------
   0 C :   -0.000631
   1 O :   -0.001130
   2 H :   -0.001351
   3 H :    0.000004
   4 H :   -0.000012
   5 H :    0.000035
   6 C :   -0.162786
   7 O :   -0.472425
   8 H :    0.310899
   9 H :    0.107293
  10 H :    0.095081
  11 H :    0.125023
Sum of atomic charges:    0.0000000

LOEWDIN ATOMIC CHARGES
----------------------
   0 C :   -0.000330
   1 O :   -0.004800
   2 H :   -0.003961
   3 H :   -0.000011
   4 H :   -0.000009
   5 H :   -0.000011
   6 C :   -0.367262
   7 O :   -0.074016
   8 H :    0.152508
   9 H :    0.086642
  10 H :    0.103425
  11 H :    0.107823

  Mayer bond orders larger than 0.1
B(  6-C ,  7-O ) :   1.0001 B(  6-C ,  9-H ) :   0.9673 B(  6-C , 10-H ) :   0.9820
B(  6-C , 11-H ) :   0.9736 B(  7-O ,  8-H ) :   0.9049

Dispersion correction           -0.000256119
FINAL SINGLE POINT ENERGY      -115.731222957222

DIPOLE MOMENT
-------------
                                X             Y             Z
Electronic contribution:      0.15342       1.88769       0.33004
Nuclear contribution   :     -0.14944      -2.43403       0.10305
                        -----------------------------------------
Total Dipole Moment    :      0.00398      -0.54634       0.43309
                        -----------------------------------------
Magnitude (a.u.)       :      0.69718
Magnitude (Debye)      :      1.77209

Rotational constants in cm-1:     4.494721     0.812288     0.774331
Rotational constants in MHz : 134748.352578 24351.777133 23213.854575

                             ****ORCA TERMINATED NORMALLY****
TOTAL RUN TIME: 0 days 0 hours 1 minutes 0 seconds 353 msec
