                         Program Version 4.1.2  - RELEASE  -
|  1> #Run DFT-D3 single point of the dimer
|  2> ! wB97X-D3 def2-TZVP TIGHTSCF CHELPG PMODEL PAL8
|  3>
|  4> %base "1-26_DFT_AB"
|  5>
|  6> %scf
|  7> MaxIter 1000
|  8> end
|  9>
| 10> * xyz 0 1
| 11>   C                      -2.881200            5.269052             1.066537
| 12>   O                      -2.445104            4.075524             0.341486
| 13>   H                      -2.756895            4.205874             -0.534556
| 14>   H                      -3.832270            5.165989             1.402556
| 15>   H                      -2.191036            5.618454             1.900053
| 16>   H                      -2.957396            6.094008             0.292697
| 17>   C                      -7.383524            3.060164             -0.078590
| 18>   O                      -8.585551            2.833917             0.656873
| 19>   H                      -9.181825            3.527931             0.406084
| 20>   H                      -7.269240            2.349186             -0.874769
| 21>   H                      -7.253227            4.048759             -0.503714
| 22>   H                      -6.526529            2.898875             0.498537
| 23> *
| 24>
| 25> #Run DFT-D3 single point of the molecule with dimer basis set
| 26> $new_job
| 27> %base "1-26_DFT_A"
| 28> ! wB97X-D3 def2-TZVP TIGHTSCF CHELPG PMODEL
| 29>
| 30> %scf
| 31> MaxIter 1000
| 32> end
| 33>
| 34> * xyz 0 1
| 35>   C                      -2.881200            5.269052             1.066537
| 36>   O                      -2.445104            4.075524             0.341486
| 37>   H                      -2.756895            4.205874             -0.534556
| 38>   H                      -3.832270            5.165989             1.402556
| 39>   H                      -2.191036            5.618454             1.900053
| 40>   H                      -2.957396            6.094008             0.292697
| 41>   C                    : -7.383524            3.060164             -0.078590
| 42>   O                    : -8.585551            2.833917             0.656873
| 43>   H                    : -9.181825            3.527931             0.406084
| 44>   H                    : -7.269240            2.349186             -0.874769
| 45>   H                    : -7.253227            4.048759             -0.503714
| 46>   H                    : -6.526529            2.898875             0.498537
| 47> *
| 48>
| 49> #Run DFT-D3 single point of the particle with dimer basis set
| 50> $new_job
| 51> %base "1-26_DFT_B"
| 52> ! wB97X-D3 def2-TZVP TIGHTSCF CHELPG PMODEL
| 53>
| 54> %scf
| 55> MaxIter 1000
| 56> end
| 57>
| 58> * xyz 0 1
| 59>   C                    : -2.881200            5.269052             1.066537
| 60>   O                    : -2.445104            4.075524             0.341486
| 61>   H                    : -2.756895            4.205874             -0.534556
| 62>   H                    : -3.832270            5.165989             1.402556
| 63>   H                    : -2.191036            5.618454             1.900053
| 64>   H                    : -2.957396            6.094008             0.292697
| 65>   C                      -7.383524            3.060164             -0.078590
| 66>   O                      -8.585551            2.833917             0.656873
| 67>   H                      -9.181825            3.527931             0.406084
| 68>   H                      -7.269240            2.349186             -0.874769
| 69>   H                      -7.253227            4.048759             -0.503714
| 70>   H                      -6.526529            2.898875             0.498537
| 71> *
| 72>
| 73>                          ****END OF INPUT****
 Total Charge           Charge          ....    0
 Multiplicity           Mult            ....    1
 Number of Electrons    NEL             ....   36
Dispersion correction           -0.000832612
FINAL SINGLE POINT ENERGY      -231.456864357405
Dispersion correction           -0.000244874
FINAL SINGLE POINT ENERGY      -115.724604749325

CARTESIAN COORDINATES (ANGSTROEM)
---------------------------------
  C     -2.881200    5.269052    1.066537
  O     -2.445104    4.075524    0.341486
  H     -2.756895    4.205874   -0.534556
  H     -3.832270    5.165989    1.402556
  H     -2.191036    5.618454    1.900053
  H     -2.957396    6.094008    0.292697
  C     -7.383524    3.060164   -0.078590
  O     -8.585551    2.833917    0.656873
  H     -9.181825    3.527931    0.406084
  H     -7.269240    2.349186   -0.874769
  H     -7.253227    4.048759   -0.503714
  H     -6.526529    2.898875    0.498537

 Multiplicity           Mult            ....    1
 Number of Electrons    NEL             ....   18
 Basis Dimension        Dim             ....  172

ORBITAL ENERGIES
----------------

  NO   OCC          E(Eh)            E(eV)
   0   2.0000     -19.231340      -523.3114
   1   2.0000     -10.305086      -280.4156
   2   2.0000      -1.135724       -30.9046
   3   2.0000      -0.805400       -21.9160
   4   2.0000      -0.612867       -16.6770
   5   2.0000      -0.537195       -14.6178
   6   2.0000      -0.530968       -14.4484
   7   2.0000      -0.441788       -12.0217
   8   2.0000      -0.374829       -10.1996
   9   0.0000       0.082078         2.2335
  10   0.0000       0.117751         3.2042
  11   0.0000       0.147107         4.0030
  12   0.0000       0.166506         4.5308
  13   0.0000       0.187040         5.0896

MULLIKEN ATOMIC CHARGES
-----------------------
   0 C :    0.000109
   1 O :    0.000011
   2 H :   -0.000007
   3 H :   -0.000346
   4 H :   -0.000007
   5 H :   -0.000006
   6 C :   -0.170830
   7 O :   -0.471340
   8 H :    0.314815
   9 H :    0.103643
  10 H :    0.105481
  11 H :    0.118479
Sum of atomic charges:    0.0000000

LOEWDIN ATOMIC CHARGES
----------------------
   0 C :   -0.000147
   1 O :   -0.000013
   2 H :   -0.000027
   3 H :   -0.000193
   4 H :   -0.000002
   5 H :   -0.000003
   6 C :   -0.370949
   7 O :   -0.077041
   8 H :    0.162888
   9 H :    0.094501
  10 H :    0.096901
  11 H :    0.094084

  Mayer bond orders larger than 0.1
B(  6-C ,  7-O ) :   1.0140 B(  6-C ,  9-H ) :   0.9792 B(  6-C , 10-H ) :   0.9811
B(  6-C , 11-H ) :   0.9783 B(  7-O ,  8-H ) :   0.9040

Dispersion correction           -0.000253110
FINAL SINGLE POINT ENERGY      -115.732116031375

DIPOLE MOMENT
-------------
                                X             Y             Z
Electronic contribution:     -1.55375      -0.35332       1.05132
Nuclear contribution   :      1.67235       0.90102      -1.50338
                        -----------------------------------------
Total Dipole Moment    :      0.11860       0.54769      -0.45206
                        -----------------------------------------
Magnitude (a.u.)       :      0.72000
Magnitude (Debye)      :      1.83009

Rotational constants in cm-1:     4.603411     0.817817     0.785823
Rotational constants in MHz : 138006.775383 24517.527879 23558.366397

                             ****ORCA TERMINATED NORMALLY****
TOTAL RUN TIME: 0 days 0 hours 4 minutes 18 seconds 621 msec
