                         Program Version 4.1.2  - RELEASE  -
|  1> #Run DFT-D3 single point of the dimer
|  2> ! wB97X-D3 def2-TZVP TIGHTSCF CHELPG PMODEL PAL8
|  3>
|  4> %base "20-139_DFT_AB"
|  5>
|  6> %scf
|  7> MaxIter 1000
|  8> end
|  9>
| 10> * xyz 0 1
| 11>   C                      -4.905139            5.262568             -10.301868
| 12>   O                      -4.333922            5.021783             -9.019390
| 13>   H                      -4.942635            5.445550             -8.437080
| 14>   H                      -4.087589            5.285542             -11.069867
| 15>   H                      -5.760049            4.649201             -10.628340
| 16>   H                      -5.338715            6.228068             -10.267397
| 17>   C                      -1.844517            7.549200             -9.476446
| 18>   O                      -1.036996            7.131007             -8.381999
| 19>   H                      -0.835735            6.198937             -8.380334
| 20>   H                      -1.412930            7.143828             -10.437911
| 21>   H                      -2.886758            7.176697             -9.499812
| 22>   H                      -1.964546            8.643857             -9.423512
| 23> *
| 24>
| 25> #Run DFT-D3 single point of the molecule with dimer basis set
| 26> $new_job
| 27> %base "20-139_DFT_A"
| 28> ! wB97X-D3 def2-TZVP TIGHTSCF CHELPG PMODEL
| 29>
| 30> %scf
| 31> MaxIter 1000
| 32> end
| 33>
| 34> * xyz 0 1
| 35>   C                      -4.905139            5.262568             -10.301868
| 36>   O                      -4.333922            5.021783             -9.019390
| 37>   H                      -4.942635            5.445550             -8.437080
| 38>   H                      -4.087589            5.285542             -11.069867
| 39>   H                      -5.760049            4.649201             -10.628340
| 40>   H                      -5.338715            6.228068             -10.267397
| 41>   C                    : -1.844517            7.549200             -9.476446
| 42>   O                    : -1.036996            7.131007             -8.381999
| 43>   H                    : -0.835735            6.198937             -8.380334
| 44>   H                    : -1.412930            7.143828             -10.437911
| 45>   H                    : -2.886758            7.176697             -9.499812
| 46>   H                    : -1.964546            8.643857             -9.423512
| 47> *
| 48>
| 49> #Run DFT-D3 single point of the particle with dimer basis set
| 50> $new_job
| 51> %base "20-139_DFT_B"
| 52> ! wB97X-D3 def2-TZVP TIGHTSCF CHELPG PMODEL
| 53>
| 54> %scf
| 55> MaxIter 1000
| 56> end
| 57>
| 58> * xyz 0 1
| 59>   C                    : -4.905139            5.262568             -10.301868
| 60>   O                    : -4.333922            5.021783             -9.019390
| 61>   H                    : -4.942635            5.445550             -8.437080
| 62>   H                    : -4.087589            5.285542             -11.069867
| 63>   H                    : -5.760049            4.649201             -10.628340
| 64>   H                    : -5.338715            6.228068             -10.267397
| 65>   C                      -1.844517            7.549200             -9.476446
| 66>   O                      -1.036996            7.131007             -8.381999
| 67>   H                      -0.835735            6.198937             -8.380334
| 68>   H                      -1.412930            7.143828             -10.437911
| 69>   H                      -2.886758            7.176697             -9.499812
| 70>   H                      -1.964546            8.643857             -9.423512
| 71> *
| 72>
| 73>                          ****END OF INPUT****
 Total Charge           Charge          ....    0
 Multiplicity           Mult            ....    1
 Number of Electrons    NEL             ....   36
Dispersion correction           -0.001830412
FINAL SINGLE POINT ENERGY      -231.464899782075
Dispersion correction           -0.000237191
FINAL SINGLE POINT ENERGY      -115.730443704715

CARTESIAN COORDINATES (ANGSTROEM)
---------------------------------
  C     -4.905139    5.262568  -10.301868
  O     -4.333922    5.021783   -9.019390
  H     -4.942635    5.445550   -8.437080
  H     -4.087589    5.285542  -11.069867
  H     -5.760049    4.649201  -10.628340
  H     -5.338715    6.228068  -10.267397
  C     -1.844517    7.549200   -9.476446
  O     -1.036996    7.131007   -8.381999
  H     -0.835735    6.198937   -8.380334
  H     -1.412930    7.143828  -10.437911
  H     -2.886758    7.176697   -9.499812
  H     -1.964546    8.643857   -9.423512

 Multiplicity           Mult            ....    1
 Number of Electrons    NEL             ....   18
 Basis Dimension        Dim             ....  172

ORBITAL ENERGIES
----------------

  NO   OCC          E(Eh)            E(eV)
   0   2.0000     -19.229046      -523.2490
   1   2.0000     -10.321472      -280.8615
   2   2.0000      -1.131604       -30.7925
   3   2.0000      -0.795864       -21.6566
   4   2.0000      -0.613785       -16.7019
   5   2.0000      -0.539022       -14.6675
   6   2.0000      -0.518221       -14.1015
   7   2.0000      -0.431636       -11.7454
   8   2.0000      -0.370542       -10.0830
   9   0.0000       0.080212         2.1827
  10   0.0000       0.119593         3.2543
  11   0.0000       0.150274         4.0892
  12   0.0000       0.165869         4.5135
  13   0.0000       0.190907         5.1948

MULLIKEN ATOMIC CHARGES
-----------------------
   0 C :    0.002333
   1 O :    0.000973
   2 H :   -0.000013
   3 H :   -0.001270
   4 H :   -0.000053
   5 H :   -0.000823
   6 C :   -0.142308
   7 O :   -0.485441
   8 H :    0.315282
   9 H :    0.096390
  10 H :    0.088075
  11 H :    0.126857
Sum of atomic charges:    0.0000000

LOEWDIN ATOMIC CHARGES
----------------------
   0 C :   -0.008150
   1 O :   -0.002919
   2 H :   -0.000734
   3 H :   -0.001320
   4 H :   -0.000096
   5 H :   -0.001511
   6 C :   -0.380482
   7 O :   -0.080464
   8 H :    0.161436
   9 H :    0.102101
  10 H :    0.099590
  11 H :    0.112549

  Mayer bond orders larger than 0.1
B(  6-C ,  7-O ) :   1.0002 B(  6-C ,  9-H ) :   0.9843 B(  6-C , 10-H ) :   0.9674
B(  6-C , 11-H ) :   0.9696 B(  7-O ,  8-H ) :   0.8964

Dispersion correction           -0.000271357
FINAL SINGLE POINT ENERGY      -115.732534884853

DIPOLE MOMENT
-------------
                                X             Y             Z
Electronic contribution:      1.07072      -0.37303       1.47797
Nuclear contribution   :     -1.27919      -0.06660      -1.90804
                        -----------------------------------------
Total Dipole Moment    :     -0.20847      -0.43963      -0.43007
                        -----------------------------------------
Magnitude (a.u.)       :      0.64938
Magnitude (Debye)      :      1.65059

Rotational constants in cm-1:     4.296772     0.814144     0.777126
Rotational constants in MHz : 128813.975890 24407.433106 23297.660258

                             ****ORCA TERMINATED NORMALLY****
TOTAL RUN TIME: 0 days 0 hours 0 minutes 56 seconds 578 msec
