                         Program Version 4.1.2  - RELEASE  -
|  1> #Run DFT-D3 single point of the dimer
|  2> ! wB97X-D3 def2-TZVP TIGHTSCF CHELPG PMODEL PAL8
|  3>
|  4> %base "6-43_DFT_AB"
|  5>
|  6> %scf
|  7> MaxIter 1000
|  8> end
|  9>
| 10> * xyz 0 1
| 11>   C                      -8.806139            -3.804200            -0.537785
| 12>   O                      -9.024071            -2.496550            -1.017201
| 13>   H                      -9.353899            -2.559543            -1.944128
| 14>   H                      -8.922862            -3.712289            0.568426
| 15>   H                      -9.480058            -4.616308            -0.979368
| 16>   H                      -7.833328            -4.174835            -0.732438
| 17>   C                      -4.879796            -0.509376            1.260039
| 18>   O                      -5.387422            0.817447             1.362583
| 19>   H                      -5.858975            0.885262             2.199319
| 20>   H                      -4.683871            -0.840258            0.265881
| 21>   H                      -3.955907            -0.558190            1.810354
| 22>   H                      -5.515917            -1.299171            1.741369
| 23> *
| 24>
| 25> #Run DFT-D3 single point of the molecule with dimer basis set
| 26> $new_job
| 27> %base "6-43_DFT_A"
| 28> ! wB97X-D3 def2-TZVP TIGHTSCF CHELPG PMODEL
| 29>
| 30> %scf
| 31> MaxIter 1000
| 32> end
| 33>
| 34> * xyz 0 1
| 35>   C                      -8.806139            -3.804200            -0.537785
| 36>   O                      -9.024071            -2.496550            -1.017201
| 37>   H                      -9.353899            -2.559543            -1.944128
| 38>   H                      -8.922862            -3.712289            0.568426
| 39>   H                      -9.480058            -4.616308            -0.979368
| 40>   H                      -7.833328            -4.174835            -0.732438
| 41>   C                    : -4.879796            -0.509376            1.260039
| 42>   O                    : -5.387422            0.817447             1.362583
| 43>   H                    : -5.858975            0.885262             2.199319
| 44>   H                    : -4.683871            -0.840258            0.265881
| 45>   H                    : -3.955907            -0.558190            1.810354
| 46>   H                    : -5.515917            -1.299171            1.741369
| 47> *
| 48>
| 49> #Run DFT-D3 single point of the particle with dimer basis set
| 50> $new_job
| 51> %base "6-43_DFT_B"
| 52> ! wB97X-D3 def2-TZVP TIGHTSCF CHELPG PMODEL
| 53>
| 54> %scf
| 55> MaxIter 1000
| 56> end
| 57>
| 58> * xyz 0 1
| 59>   C                    : -8.806139            -3.804200            -0.537785
| 60>   O                    : -9.024071            -2.496550            -1.017201
| 61>   H                    : -9.353899            -2.559543            -1.944128
| 62>   H                    : -8.922862            -3.712289            0.568426
| 63>   H                    : -9.480058            -4.616308            -0.979368
| 64>   H                    : -7.833328            -4.174835            -0.732438
| 65>   C                      -4.879796            -0.509376            1.260039
| 66>   O                      -5.387422            0.817447             1.362583
| 67>   H                      -5.858975            0.885262             2.199319
| 68>   H                      -4.683871            -0.840258            0.265881
| 69>   H                      -3.955907            -0.558190            1.810354
| 70>   H                      -5.515917            -1.299171            1.741369
| 71> *
| 72>
| 73>                          ****END OF INPUT****
 Total Charge           Charge          ....    0
 Multiplicity           Mult            ....    1
 Number of Electrons    NEL             ....   36
Dispersion correction           -0.000721382
FINAL SINGLE POINT ENERGY      -231.464724989369
Dispersion correction           -0.000258192
FINAL SINGLE POINT ENERGY      -115.731638930207

CARTESIAN COORDINATES (ANGSTROEM)
---------------------------------
  C     -8.806139   -3.804200   -0.537785
  O     -9.024071   -2.496550   -1.017201
  H     -9.353899   -2.559543   -1.944128
  H     -8.922862   -3.712289    0.568426
  H     -9.480058   -4.616308   -0.979368
  H     -7.833328   -4.174835   -0.732438
  C     -4.879796   -0.509376    1.260039
  O     -5.387422    0.817447    1.362583
  H     -5.858975    0.885262    2.199319
  H     -4.683871   -0.840258    0.265881
  H     -3.955907   -0.558190    1.810354
  H     -5.515917   -1.299171    1.741369

 Multiplicity           Mult            ....    1
 Number of Electrons    NEL             ....   18
 Basis Dimension        Dim             ....  172

ORBITAL ENERGIES
----------------

  NO   OCC          E(Eh)            E(eV)
   0   2.0000     -19.231470      -523.3149
   1   2.0000     -10.312129      -280.6073
   2   2.0000      -1.132992       -30.8303
   3   2.0000      -0.798445       -21.7268
   4   2.0000      -0.609619       -16.5886
   5   2.0000      -0.541069       -14.7232
   6   2.0000      -0.526903       -14.3378
   7   2.0000      -0.436468       -11.8769
   8   2.0000      -0.372382       -10.1330
   9   0.0000       0.083820         2.2809
  10   0.0000       0.114748         3.1224
  11   0.0000       0.148841         4.0502
  12   0.0000       0.165147         4.4939
  13   0.0000       0.188844         5.1387

MULLIKEN ATOMIC CHARGES
-----------------------
   0 C :    0.000077
   1 O :   -0.000010
   2 H :   -0.000001
   3 H :   -0.000050
   4 H :   -0.000004
   5 H :   -0.000068
   6 C :   -0.167773
   7 O :   -0.476671
   8 H :    0.317580
   9 H :    0.121396
  10 H :    0.105213
  11 H :    0.100312
Sum of atomic charges:   -0.0000000

LOEWDIN ATOMIC CHARGES
----------------------
   0 C :   -0.000063
   1 O :   -0.000003
   2 H :   -0.000000
   3 H :   -0.000025
   4 H :   -0.000001
   5 H :   -0.000020
   6 C :   -0.378412
   7 O :   -0.085913
   8 H :    0.171635
   9 H :    0.099799
  10 H :    0.092542
  11 H :    0.100462

  Mayer bond orders larger than 0.1
B(  6-C ,  7-O ) :   0.9979 B(  6-C ,  9-H ) :   0.9726 B(  6-C , 10-H ) :   0.9804
B(  6-C , 11-H ) :   0.9774 B(  7-O ,  8-H ) :   0.8979

Dispersion correction           -0.000248532
FINAL SINGLE POINT ENERGY      -115.733068248098

DIPOLE MOMENT
-------------
                                X             Y             Z
Electronic contribution:     -0.63030       1.79449      -0.11999
Nuclear contribution   :      0.54129      -2.29180       0.60923
                        -----------------------------------------
Total Dipole Moment    :     -0.08901      -0.49731       0.48924
                        -----------------------------------------
Magnitude (a.u.)       :      0.70328
Magnitude (Debye)      :      1.78759

Rotational constants in cm-1:     4.415184     0.817459     0.785097
Rotational constants in MHz : 132363.889658 24506.811426 23536.607367

                             ****ORCA TERMINATED NORMALLY****
TOTAL RUN TIME: 0 days 0 hours 0 minutes 54 seconds 384 msec
