                         Program Version 4.1.2  - RELEASE  -
|  1> #Run DFT-D3 single point of the dimer
|  2> ! wB97X-D3 def2-TZVP TIGHTSCF CHELPG PMODEL PAL8
|  3>
|  4> %base "2-139_DFT_AB"
|  5>
|  6> %scf
|  7> MaxIter 1000
|  8> end
|  9>
| 10> * xyz 0 1
| 11>   C                      4.533409             0.137027             -4.796207
| 12>   O                      4.436586             -1.244241            -4.528768
| 13>   H                      5.310152             -1.569002            -4.367743
| 14>   H                      5.533253             0.291524             -5.098196
| 15>   H                      3.883806             0.507045             -5.598548
| 16>   H                      4.424128             0.778533             -3.962578
| 17>   C                      5.969071             -3.405384            -0.265019
| 18>   O                      7.102068             -2.889357            -0.942927
| 19>   H                      7.118643             -1.956619            -0.879665
| 20>   H                      6.277044             -3.784139            0.691122
| 21>   H                      5.188285             -2.625284            -0.197412
| 22>   H                      5.445635             -4.273494            -0.690587
| 23> *
| 24>
| 25> #Run DFT-D3 single point of the molecule with dimer basis set
| 26> $new_job
| 27> %base "2-139_DFT_A"
| 28> ! wB97X-D3 def2-TZVP TIGHTSCF CHELPG PMODEL
| 29>
| 30> %scf
| 31> MaxIter 1000
| 32> end
| 33>
| 34> * xyz 0 1
| 35>   C                      4.533409             0.137027             -4.796207
| 36>   O                      4.436586             -1.244241            -4.528768
| 37>   H                      5.310152             -1.569002            -4.367743
| 38>   H                      5.533253             0.291524             -5.098196
| 39>   H                      3.883806             0.507045             -5.598548
| 40>   H                      4.424128             0.778533             -3.962578
| 41>   C                    : 5.969071             -3.405384            -0.265019
| 42>   O                    : 7.102068             -2.889357            -0.942927
| 43>   H                    : 7.118643             -1.956619            -0.879665
| 44>   H                    : 6.277044             -3.784139            0.691122
| 45>   H                    : 5.188285             -2.625284            -0.197412
| 46>   H                    : 5.445635             -4.273494            -0.690587
| 47> *
| 48>
| 49> #Run DFT-D3 single point of the particle with dimer basis set
| 50> $new_job
| 51> %base "2-139_DFT_B"
| 52> ! wB97X-D3 def2-TZVP TIGHTSCF CHELPG PMODEL
| 53>
| 54> %scf
| 55> MaxIter 1000
| 56> end
| 57>
| 58> * xyz 0 1
| 59>   C                    : 4.533409             0.137027             -4.796207
| 60>   O                    : 4.436586             -1.244241            -4.528768
| 61>   H                    : 5.310152             -1.569002            -4.367743
| 62>   H                    : 5.533253             0.291524             -5.098196
| 63>   H                    : 3.883806             0.507045             -5.598548
| 64>   H                    : 4.424128             0.778533             -3.962578
| 65>   C                      5.969071             -3.405384            -0.265019
| 66>   O                      7.102068             -2.889357            -0.942927
| 67>   H                      7.118643             -1.956619            -0.879665
| 68>   H                      6.277044             -3.784139            0.691122
| 69>   H                      5.188285             -2.625284            -0.197412
| 70>   H                      5.445635             -4.273494            -0.690587
| 71> *
| 72>
| 73>                          ****END OF INPUT****
 Total Charge           Charge          ....    0
 Multiplicity           Mult            ....    1
 Number of Electrons    NEL             ....   36
Dispersion correction           -0.000765637
FINAL SINGLE POINT ENERGY      -231.461363901786
Dispersion correction           -0.000231859
FINAL SINGLE POINT ENERGY      -115.729927497834

CARTESIAN COORDINATES (ANGSTROEM)
---------------------------------
  C      4.533409    0.137027   -4.796207
  O      4.436586   -1.244241   -4.528768
  H      5.310152   -1.569002   -4.367743
  H      5.533253    0.291524   -5.098196
  H      3.883806    0.507045   -5.598548
  H      4.424128    0.778533   -3.962578
  C      5.969071   -3.405384   -0.265019
  O      7.102068   -2.889357   -0.942927
  H      7.118643   -1.956619   -0.879665
  H      6.277044   -3.784139    0.691122
  H      5.188285   -2.625284   -0.197412
  H      5.445635   -4.273494   -0.690587

 Multiplicity           Mult            ....    1
 Number of Electrons    NEL             ....   18
 Basis Dimension        Dim             ....  172

ORBITAL ENERGIES
----------------

  NO   OCC          E(Eh)            E(eV)
   0   2.0000     -19.227306      -523.2016
   1   2.0000     -10.314664      -280.6763
   2   2.0000      -1.138877       -30.9904
   3   2.0000      -0.800691       -21.7879
   4   2.0000      -0.613523       -16.6948
   5   2.0000      -0.544364       -14.8129
   6   2.0000      -0.531411       -14.4604
   7   2.0000      -0.427020       -11.6198
   8   2.0000      -0.373607       -10.1664
   9   0.0000       0.084755         2.3063
  10   0.0000       0.117230         3.1900
  11   0.0000       0.152368         4.1461
  12   0.0000       0.170543         4.6407
  13   0.0000       0.197487         5.3739

MULLIKEN ATOMIC CHARGES
-----------------------
   0 C :    0.000092
   1 O :    0.000120
   2 H :   -0.001226
   3 H :    0.000021
   4 H :   -0.000002
   5 H :   -0.000005
   6 C :   -0.156300
   7 O :   -0.474246
   8 H :    0.314660
   9 H :    0.104163
  10 H :    0.100439
  11 H :    0.112286
Sum of atomic charges:    0.0000000

LOEWDIN ATOMIC CHARGES
----------------------
   0 C :   -0.000017
   1 O :   -0.000023
   2 H :   -0.000688
   3 H :   -0.000001
   4 H :   -0.000001
   5 H :   -0.000001
   6 C :   -0.380311
   7 O :   -0.069100
   8 H :    0.153115
   9 H :    0.092586
  10 H :    0.099423
  11 H :    0.105018

  Mayer bond orders larger than 0.1
B(  6-C ,  7-O ) :   1.0018 B(  6-C ,  9-H ) :   0.9811 B(  6-C , 10-H ) :   0.9878
B(  6-C , 11-H ) :   0.9715 B(  7-O ,  8-H ) :   0.9033

Dispersion correction           -0.000251834
FINAL SINGLE POINT ENERGY      -115.730539033368

DIPOLE MOMENT
-------------
                                X             Y             Z
Electronic contribution:      1.52933       0.55528      -0.93587
Nuclear contribution   :     -1.98892      -0.15820       1.25173
                        -----------------------------------------
Total Dipole Moment    :     -0.45959       0.39708       0.31587
                        -----------------------------------------
Magnitude (a.u.)       :      0.68459
Magnitude (Debye)      :      1.74010

Rotational constants in cm-1:     4.489803     0.820950     0.790213
Rotational constants in MHz : 134600.895300 24611.455645 23689.997719

                             ****ORCA TERMINATED NORMALLY****
TOTAL RUN TIME: 0 days 0 hours 6 minutes 14 seconds 951 msec
