                         Program Version 4.1.2  - RELEASE  -
|  1> #Run DFT-D3 single point of the dimer
|  2> ! wB97X-D3 def2-TZVP TIGHTSCF CHELPG PMODEL PAL8
|  3>
|  4> %base "5-181_DFT_AB"
|  5>
|  6> %scf
|  7> MaxIter 1000
|  8> end
|  9>
| 10> * xyz 0 1
| 11>   C                      -7.955104            7.258988             -0.000909
| 12>   O                      -6.999402            6.220627             -0.233799
| 13>   H                      -7.240570            5.795469             -1.073477
| 14>   H                      -8.423059            7.641103             -0.925569
| 15>   H                      -8.745755            6.813650             0.565362
| 16>   H                      -7.638297            8.141113             0.464087
| 17>   C                      -7.069436            4.710049             -4.173068
| 18>   O                      -7.364946            5.478951             -2.979066
| 19>   H                      -7.815048            6.334427             -3.175084
| 20>   H                      -6.428406            3.874284             -3.930640
| 21>   H                      -8.027823            4.256572             -4.508714
| 22>   H                      -6.609896            5.318532             -5.031137
| 23> *
| 24>
| 25> #Run DFT-D3 single point of the molecule with dimer basis set
| 26> $new_job
| 27> %base "5-181_DFT_A"
| 28> ! wB97X-D3 def2-TZVP TIGHTSCF CHELPG PMODEL
| 29>
| 30> %scf
| 31> MaxIter 1000
| 32> end
| 33>
| 34> * xyz 0 1
| 35>   C                      -7.955104            7.258988             -0.000909
| 36>   O                      -6.999402            6.220627             -0.233799
| 37>   H                      -7.240570            5.795469             -1.073477
| 38>   H                      -8.423059            7.641103             -0.925569
| 39>   H                      -8.745755            6.813650             0.565362
| 40>   H                      -7.638297            8.141113             0.464087
| 41>   C                    : -7.069436            4.710049             -4.173068
| 42>   O                    : -7.364946            5.478951             -2.979066
| 43>   H                    : -7.815048            6.334427             -3.175084
| 44>   H                    : -6.428406            3.874284             -3.930640
| 45>   H                    : -8.027823            4.256572             -4.508714
| 46>   H                    : -6.609896            5.318532             -5.031137
| 47> *
| 48>
| 49> #Run DFT-D3 single point of the particle with dimer basis set
| 50> $new_job
| 51> %base "5-181_DFT_B"
| 52> ! wB97X-D3 def2-TZVP TIGHTSCF CHELPG PMODEL
| 53>
| 54> %scf
| 55> MaxIter 1000
| 56> end
| 57>
| 58> * xyz 0 1
| 59>   C                    : -7.955104            7.258988             -0.000909
| 60>   O                    : -6.999402            6.220627             -0.233799
| 61>   H                    : -7.240570            5.795469             -1.073477
| 62>   H                    : -8.423059            7.641103             -0.925569
| 63>   H                    : -8.745755            6.813650             0.565362
| 64>   H                    : -7.638297            8.141113             0.464087
| 65>   C                      -7.069436            4.710049             -4.173068
| 66>   O                      -7.364946            5.478951             -2.979066
| 67>   H                      -7.815048            6.334427             -3.175084
| 68>   H                      -6.428406            3.874284             -3.930640
| 69>   H                      -8.027823            4.256572             -4.508714
| 70>   H                      -6.609896            5.318532             -5.031137
| 71> *
| 72>
| 73>                          ****END OF INPUT****
 Total Charge           Charge          ....    0
 Multiplicity           Mult            ....    1
 Number of Electrons    NEL             ....   36
Dispersion correction           -0.001629215
FINAL SINGLE POINT ENERGY      -231.468161130735
Dispersion correction           -0.000243522
FINAL SINGLE POINT ENERGY      -115.729883372779

CARTESIAN COORDINATES (ANGSTROEM)
---------------------------------
  C     -7.955104    7.258988   -0.000909
  O     -6.999402    6.220627   -0.233799
  H     -7.240570    5.795469   -1.073477
  H     -8.423059    7.641103   -0.925569
  H     -8.745755    6.813650    0.565362
  H     -7.638297    8.141113    0.464087
  C     -7.069436    4.710049   -4.173068
  O     -7.364946    5.478951   -2.979066
  H     -7.815048    6.334427   -3.175084
  H     -6.428406    3.874284   -3.930640
  H     -8.027823    4.256572   -4.508714
  H     -6.609896    5.318532   -5.031137

 Multiplicity           Mult            ....    1
 Number of Electrons    NEL             ....   18
 Basis Dimension        Dim             ....  172

ORBITAL ENERGIES
----------------

  NO   OCC          E(Eh)            E(eV)
   0   2.0000     -19.231370      -523.3122
   1   2.0000     -10.323593      -280.9193
   2   2.0000      -1.117747       -30.4155
   3   2.0000      -0.793179       -21.5835
   4   2.0000      -0.598454       -16.2848
   5   2.0000      -0.532086       -14.4788
   6   2.0000      -0.527136       -14.3441
   7   2.0000      -0.429607       -11.6902
   8   2.0000      -0.371785       -10.1168
   9   0.0000       0.090582         2.4649
  10   0.0000       0.125420         3.4129
  11   0.0000       0.149755         4.0750
  12   0.0000       0.182773         4.9735
  13   0.0000       0.197724         5.3803

MULLIKEN ATOMIC CHARGES
-----------------------
   0 C :   -0.000640
   1 O :    0.000360
   2 H :   -0.010092
   3 H :   -0.000686
   4 H :   -0.000011
   5 H :    0.000079
   6 C :   -0.161806
   7 O :   -0.486777
   8 H :    0.320368
   9 H :    0.129672
  10 H :    0.103859
  11 H :    0.105674
Sum of atomic charges:   -0.0000000

LOEWDIN ATOMIC CHARGES
----------------------
   0 C :   -0.002939
   1 O :   -0.005520
   2 H :   -0.041707
   3 H :   -0.001035
   4 H :   -0.000035
   5 H :   -0.000024
   6 C :   -0.363226
   7 O :   -0.078986
   8 H :    0.183003
   9 H :    0.105413
  10 H :    0.099404
  11 H :    0.105652

  Mayer bond orders larger than 0.1
B(  6-C ,  7-O ) :   0.9886 B(  6-C ,  9-H ) :   0.9729 B(  6-C , 10-H ) :   0.9784
B(  6-C , 11-H ) :   0.9663 B(  7-O ,  8-H ) :   0.8878

Dispersion correction           -0.000282518
FINAL SINGLE POINT ENERGY      -115.731954020032

DIPOLE MOMENT
-------------
                                X             Y             Z
Electronic contribution:     -0.21559       0.85881       1.56172
Nuclear contribution   :      0.05693      -0.66161      -2.19018
                        -----------------------------------------
Total Dipole Moment    :     -0.15867       0.19720      -0.62846
                        -----------------------------------------
Magnitude (a.u.)       :      0.67751
Magnitude (Debye)      :      1.72210

Rotational constants in cm-1:     4.180786     0.786164     0.760131
Rotational constants in MHz : 125336.806216 23568.613500 22788.150882

                             ****ORCA TERMINATED NORMALLY****
TOTAL RUN TIME: 0 days 0 hours 0 minutes 55 seconds 926 msec
