                         Program Version 4.1.2  - RELEASE  -
|  1> #Run DFT-D3 single point of the dimer
|  2> ! wB97X-D3 def2-TZVP TIGHTSCF  CHELPG PAL8
|  3>
|  4> %base "165_charges"
|  5>
|  6> %scf
|  7> MaxIter 1000
|  8> end
|  9> %output
| 10>   Print[ P_Mayer ] 1
| 11>   Print[ P_NatPop ] 1
| 12>   Print[ P_Hirshfeld ] 1
| 13>   Print[ P_Mulliken ] 1
| 14>   Print [ P_Loewdin ] 1
| 15> end
| 16>
| 17> * xyz 0 1
| 18>   C                      -4.042512            -11.617473           2.754559
| 19>   O                      -4.801691            -10.486147           2.768537
| 20>   H                      -5.688689            -10.704398           2.382629
| 21>   H                      -2.950735            -11.246167           2.777801
| 22>   H                      -4.142107            -12.308251           3.563933
| 23>   H                      -4.117183            -12.146882           1.769731
| 24> *
| 25>
| 26>                          ****END OF INPUT****

CARTESIAN COORDINATES (ANGSTROEM)
---------------------------------
  C     -4.042512  -11.617473    2.754559
  O     -4.801691  -10.486147    2.768537
  H     -5.688689  -10.704398    2.382629
  H     -2.950735  -11.246167    2.777801
  H     -4.142107  -12.308251    3.563933
  H     -4.117183  -12.146882    1.769731

 Total Charge           Charge          ....    0
 Multiplicity           Mult            ....    1
 Number of Electrons    NEL             ....   18
 Basis Dimension        Dim             ....   86

ORBITAL ENERGIES
----------------

  NO   OCC          E(Eh)            E(eV)
   0   2.0000     -19.235361      -523.4208
   1   2.0000     -10.313736      -280.6510
   2   2.0000      -1.149366       -31.2758
   3   2.0000      -0.786743       -21.4084
   4   2.0000      -0.617758       -16.8100
   5   2.0000      -0.551799       -15.0152
   6   2.0000      -0.525658       -14.3039
   7   2.0000      -0.420053       -11.4302
   8   2.0000      -0.374413       -10.1883
   9   0.0000       0.110934         3.0187
  10   0.0000       0.153930         4.1886
  11   0.0000       0.191807         5.2193
  12   0.0000       0.211502         5.7553
  13   0.0000       0.230484         6.2718

MULLIKEN ATOMIC CHARGES
-----------------------
   0 C :   -0.164222
   1 O :   -0.458726
   2 H :    0.319662
   3 H :    0.106135
   4 H :    0.101819
   5 H :    0.095330
Sum of atomic charges:    0.0000000

LOEWDIN ATOMIC CHARGES
----------------------
   0 C :   -0.440627
   1 O :   -0.050314
   2 H :    0.191593
   3 H :    0.117718
   4 H :    0.084562
   5 H :    0.097066

  Mayer bond orders larger than 0.1
B(  0-C ,  1-O ) :   1.0175 B(  0-C ,  3-H ) :   0.9754 B(  0-C ,  4-H ) :   0.9642
B(  0-C ,  5-H ) :   0.9837 B(  1-O ,  2-H ) :   0.8905

Dispersion correction           -0.000239379
FINAL SINGLE POINT ENERGY      -115.729831285777

DIPOLE MOMENT
-------------
                                X             Y             Z
Electronic contribution:     -1.11341       1.52784       0.20097
Nuclear contribution   :      0.81965      -2.05886      -0.45570
                        -----------------------------------------
Total Dipole Moment    :     -0.29376      -0.53102      -0.25473
                        -----------------------------------------
Magnitude (a.u.)       :      0.65815
Magnitude (Debye)      :      1.67288

Rotational constants in cm-1:     4.170816     0.874337     0.840265
Rotational constants in MHz : 125037.929351 26211.959224 25190.506256

                             ****ORCA TERMINATED NORMALLY****
TOTAL RUN TIME: 0 days 0 hours 0 minutes 41 seconds 652 msec
