                         Program Version 4.1.2  - RELEASE  -
|  1> #Run DFT-D3 single point of the dimer
|  2> ! wB97X-D3 def2-TZVP TIGHTSCF CHELPG PMODEL PAL8
|  3>
|  4> %base "12-89_DFT_AB"
|  5>
|  6> %scf
|  7> MaxIter 1000
|  8> end
|  9>
| 10> * xyz 0 1
| 11>   C                      -4.658780            -2.037883            7.649658
| 12>   O                      -5.337638            -1.572166            6.540238
| 13>   H                      -6.235660            -1.469603            6.901389
| 14>   H                      -3.612432            -1.652803            7.614765
| 15>   H                      -5.188026            -1.588476            8.460927
| 16>   H                      -4.629709            -3.094023            7.716798
| 17>   C                      -5.092731            1.692038             8.397460
| 18>   O                      -4.331788            2.881893             8.249943
| 19>   H                      -4.203986            3.322232             9.111334
| 20>   H                      -5.047075            1.267063             9.382715
| 21>   H                      -6.093993            1.748745             7.895877
| 22>   H                      -4.575883            0.892153             7.899121
| 23> *
| 24>
| 25> #Run DFT-D3 single point of the molecule with dimer basis set
| 26> $new_job
| 27> %base "12-89_DFT_A"
| 28> ! wB97X-D3 def2-TZVP TIGHTSCF CHELPG PMODEL
| 29>
| 30> %scf
| 31> MaxIter 1000
| 32> end
| 33>
| 34> * xyz 0 1
| 35>   C                      -4.658780            -2.037883            7.649658
| 36>   O                      -5.337638            -1.572166            6.540238
| 37>   H                      -6.235660            -1.469603            6.901389
| 38>   H                      -3.612432            -1.652803            7.614765
| 39>   H                      -5.188026            -1.588476            8.460927
| 40>   H                      -4.629709            -3.094023            7.716798
| 41>   C                    : -5.092731            1.692038             8.397460
| 42>   O                    : -4.331788            2.881893             8.249943
| 43>   H                    : -4.203986            3.322232             9.111334
| 44>   H                    : -5.047075            1.267063             9.382715
| 45>   H                    : -6.093993            1.748745             7.895877
| 46>   H                    : -4.575883            0.892153             7.899121
| 47> *
| 48>
| 49> #Run DFT-D3 single point of the particle with dimer basis set
| 50> $new_job
| 51> %base "12-89_DFT_B"
| 52> ! wB97X-D3 def2-TZVP TIGHTSCF CHELPG PMODEL
| 53>
| 54> %scf
| 55> MaxIter 1000
| 56> end
| 57>
| 58> * xyz 0 1
| 59>   C                    : -4.658780            -2.037883            7.649658
| 60>   O                    : -5.337638            -1.572166            6.540238
| 61>   H                    : -6.235660            -1.469603            6.901389
| 62>   H                    : -3.612432            -1.652803            7.614765
| 63>   H                    : -5.188026            -1.588476            8.460927
| 64>   H                    : -4.629709            -3.094023            7.716798
| 65>   C                      -5.092731            1.692038             8.397460
| 66>   O                      -4.331788            2.881893             8.249943
| 67>   H                      -4.203986            3.322232             9.111334
| 68>   H                      -5.047075            1.267063             9.382715
| 69>   H                      -6.093993            1.748745             7.895877
| 70>   H                      -4.575883            0.892153             7.899121
| 71> *
| 72>
| 73>                          ****END OF INPUT****
 Total Charge           Charge          ....    0
 Multiplicity           Mult            ....    1
 Number of Electrons    NEL             ....   36
Dispersion correction           -0.001802942
FINAL SINGLE POINT ENERGY      -231.457900242039
Dispersion correction           -0.000197371
FINAL SINGLE POINT ENERGY      -115.728333557233

CARTESIAN COORDINATES (ANGSTROEM)
---------------------------------
  C     -4.658780   -2.037883    7.649658
  O     -5.337638   -1.572166    6.540238
  H     -6.235660   -1.469603    6.901389
  H     -3.612432   -1.652803    7.614765
  H     -5.188026   -1.588476    8.460927
  H     -4.629709   -3.094023    7.716798
  C     -5.092731    1.692038    8.397460
  O     -4.331788    2.881893    8.249943
  H     -4.203986    3.322232    9.111334
  H     -5.047075    1.267063    9.382715
  H     -6.093993    1.748745    7.895877
  H     -4.575883    0.892153    7.899121

 Multiplicity           Mult            ....    1
 Number of Electrons    NEL             ....   18
 Basis Dimension        Dim             ....  172

ORBITAL ENERGIES
----------------

  NO   OCC          E(Eh)            E(eV)
   0   2.0000     -19.230851      -523.2981
   1   2.0000     -10.311208      -280.5822
   2   2.0000      -1.129141       -30.7255
   3   2.0000      -0.798856       -21.7380
   4   2.0000      -0.610870       -16.6226
   5   2.0000      -0.541858       -14.7447
   6   2.0000      -0.522276       -14.2118
   7   2.0000      -0.427973       -11.6457
   8   2.0000      -0.372620       -10.1395
   9   0.0000       0.084675         2.3041
  10   0.0000       0.114891         3.1264
  11   0.0000       0.154626         4.2076
  12   0.0000       0.167823         4.5667
  13   0.0000       0.177559         4.8316

MULLIKEN ATOMIC CHARGES
-----------------------
   0 C :   -0.001973
   1 O :    0.000331
   2 H :   -0.000023
   3 H :    0.000446
   4 H :   -0.000454
   5 H :   -0.000096
   6 C :   -0.171462
   7 O :   -0.482329
   8 H :    0.320179
   9 H :    0.110937
  10 H :    0.108483
  11 H :    0.115962
Sum of atomic charges:    0.0000000

LOEWDIN ATOMIC CHARGES
----------------------
   0 C :   -0.007214
   1 O :   -0.001050
   2 H :   -0.000465
   3 H :   -0.001397
   4 H :   -0.001818
   5 H :   -0.000092
   6 C :   -0.386421
   7 O :   -0.088539
   8 H :    0.177339
   9 H :    0.097206
  10 H :    0.107392
  11 H :    0.105058

  Mayer bond orders larger than 0.1
B(  6-C ,  7-O ) :   1.0113 B(  6-C ,  9-H ) :   0.9817 B(  6-C , 10-H ) :   0.9679
B(  6-C , 11-H ) :   0.9756 B(  7-O ,  8-H ) :   0.8949

Dispersion correction           -0.000264240
FINAL SINGLE POINT ENERGY      -115.728894101631

DIPOLE MOMENT
-------------
                                X             Y             Z
Electronic contribution:      0.87043       1.61241      -0.22143
Nuclear contribution   :     -1.05137      -1.84200       0.84843
                        -----------------------------------------
Total Dipole Moment    :     -0.18093      -0.22958       0.62700
                        -----------------------------------------
Magnitude (a.u.)       :      0.69179
Magnitude (Debye)      :      1.75839

Rotational constants in cm-1:     4.390898     0.816800     0.789592
Rotational constants in MHz : 131635.806028 24487.060131 23671.380862

                             ****ORCA TERMINATED NORMALLY****
TOTAL RUN TIME: 0 days 0 hours 1 minutes 8 seconds 587 msec
