                         Program Version 4.1.2  - RELEASE  -
|  1> #Run DFT-D3 single point of the dimer
|  2> ! wB97X-D3 def2-TZVP TIGHTSCF CHELPG PMODEL PAL8
|  3>
|  4> %base "14-18_DFT_AB"
|  5>
|  6> %scf
|  7> MaxIter 1000
|  8> end
|  9>
| 10> * xyz 0 1
| 11>   C                      -9.672709            4.006744             2.552932
| 12>   O                      -10.300829           4.988320             3.368327
| 13>   H                      -10.582800           4.429678             4.110281
| 14>   H                      -10.532027           3.583830             1.937451
| 15>   H                      -9.091793            4.425824             1.762786
| 16>   H                      -9.184682            3.240365             3.147805
| 17>   C                      -6.154052            3.958405             3.975718
| 18>   O                      -5.344385            3.991416             5.166101
| 19>   H                      -4.464513            3.618490             4.895154
| 20>   H                      -5.814235            4.644346             3.153076
| 21>   H                      -6.268747            2.967762             3.478861
| 22>   H                      -7.189835            4.229594             4.185290
| 23> *
| 24>
| 25> #Run DFT-D3 single point of the molecule with dimer basis set
| 26> $new_job
| 27> %base "14-18_DFT_A"
| 28> ! wB97X-D3 def2-TZVP TIGHTSCF CHELPG PMODEL
| 29>
| 30> %scf
| 31> MaxIter 1000
| 32> end
| 33>
| 34> * xyz 0 1
| 35>   C                      -9.672709            4.006744             2.552932
| 36>   O                      -10.300829           4.988320             3.368327
| 37>   H                      -10.582800           4.429678             4.110281
| 38>   H                      -10.532027           3.583830             1.937451
| 39>   H                      -9.091793            4.425824             1.762786
| 40>   H                      -9.184682            3.240365             3.147805
| 41>   C                    : -6.154052            3.958405             3.975718
| 42>   O                    : -5.344385            3.991416             5.166101
| 43>   H                    : -4.464513            3.618490             4.895154
| 44>   H                    : -5.814235            4.644346             3.153076
| 45>   H                    : -6.268747            2.967762             3.478861
| 46>   H                    : -7.189835            4.229594             4.185290
| 47> *
| 48>
| 49> #Run DFT-D3 single point of the particle with dimer basis set
| 50> $new_job
| 51> %base "14-18_DFT_B"
| 52> ! wB97X-D3 def2-TZVP TIGHTSCF CHELPG PMODEL
| 53>
| 54> %scf
| 55> MaxIter 1000
| 56> end
| 57>
| 58> * xyz 0 1
| 59>   C                    : -9.672709            4.006744             2.552932
| 60>   O                    : -10.300829           4.988320             3.368327
| 61>   H                    : -10.582800           4.429678             4.110281
| 62>   H                    : -10.532027           3.583830             1.937451
| 63>   H                    : -9.091793            4.425824             1.762786
| 64>   H                    : -9.184682            3.240365             3.147805
| 65>   C                      -6.154052            3.958405             3.975718
| 66>   O                      -5.344385            3.991416             5.166101
| 67>   H                      -4.464513            3.618490             4.895154
| 68>   H                      -5.814235            4.644346             3.153076
| 69>   H                      -6.268747            2.967762             3.478861
| 70>   H                      -7.189835            4.229594             4.185290
| 71> *
| 72>
| 73>                          ****END OF INPUT****
 Total Charge           Charge          ....    0
 Multiplicity           Mult            ....    1
 Number of Electrons    NEL             ....   36
Dispersion correction           -0.001589766
FINAL SINGLE POINT ENERGY      -231.460810066120
Dispersion correction           -0.000215645
FINAL SINGLE POINT ENERGY      -115.727483725201

CARTESIAN COORDINATES (ANGSTROEM)
---------------------------------
  C     -9.672709    4.006744    2.552932
  O    -10.300829    4.988320    3.368327
  H    -10.582800    4.429678    4.110281
  H    -10.532027    3.583830    1.937451
  H     -9.091793    4.425824    1.762786
  H     -9.184682    3.240365    3.147805
  C     -6.154052    3.958405    3.975718
  O     -5.344385    3.991416    5.166101
  H     -4.464513    3.618490    4.895154
  H     -5.814235    4.644346    3.153076
  H     -6.268747    2.967762    3.478861
  H     -7.189835    4.229594    4.185290

 Multiplicity           Mult            ....    1
 Number of Electrons    NEL             ....   18
 Basis Dimension        Dim             ....  172

ORBITAL ENERGIES
----------------

  NO   OCC          E(Eh)            E(eV)
   0   2.0000     -19.240331      -523.5560
   1   2.0000     -10.320153      -280.8257
   2   2.0000      -1.126520       -30.6542
   3   2.0000      -0.792671       -21.5697
   4   2.0000      -0.604176       -16.4405
   5   2.0000      -0.531317       -14.4579
   6   2.0000      -0.522227       -14.2105
   7   2.0000      -0.438478       -11.9316
   8   2.0000      -0.376732       -10.2514
   9   0.0000       0.083929         2.2838
  10   0.0000       0.112624         3.0647
  11   0.0000       0.145694         3.9645
  12   0.0000       0.165134         4.4935
  13   0.0000       0.186021         5.0619

MULLIKEN ATOMIC CHARGES
-----------------------
   0 C :    0.001555
   1 O :   -0.000048
   2 H :   -0.000088
   3 H :   -0.000030
   4 H :    0.000108
   5 H :   -0.002812
   6 C :   -0.187917
   7 O :   -0.466992
   8 H :    0.319309
   9 H :    0.104785
  10 H :    0.105944
  11 H :    0.126187
Sum of atomic charges:    0.0000000

LOEWDIN ATOMIC CHARGES
----------------------
   0 C :   -0.005583
   1 O :   -0.000151
   2 H :   -0.000135
   3 H :   -0.000039
   4 H :   -0.000292
   5 H :   -0.003124
   6 C :   -0.386194
   7 O :   -0.102637
   8 H :    0.189317
   9 H :    0.100101
  10 H :    0.098688
  11 H :    0.110050

  Mayer bond orders larger than 0.1
B(  6-C ,  7-O ) :   1.0123 B(  6-C ,  9-H ) :   0.9672 B(  6-C , 10-H ) :   0.9692
B(  6-C , 11-H ) :   0.9753 B(  7-O ,  8-H ) :   0.8940

Dispersion correction           -0.000281575
FINAL SINGLE POINT ENERGY      -115.732521990150

DIPOLE MOMENT
-------------
                                X             Y             Z
Electronic contribution:      0.99620       0.11875       1.75086
Nuclear contribution   :     -0.79076      -0.36769      -2.37783
                        -----------------------------------------
Total Dipole Moment    :      0.20544      -0.24895      -0.62697
                        -----------------------------------------
Magnitude (a.u.)       :      0.70517
Magnitude (Debye)      :      1.79241

Rotational constants in cm-1:     4.282922     0.790650     0.763020
Rotational constants in MHz : 128398.783879 23703.078653 22874.769635

                             ****ORCA TERMINATED NORMALLY****
TOTAL RUN TIME: 0 days 0 hours 1 minutes 0 seconds 567 msec
