                         Program Version 4.1.2  - RELEASE  -
|  1> #Run DFT-D3 single point of the dimer
|  2> ! wB97X-D3 def2-TZVP TIGHTSCF CHELPG PMODEL PAL8
|  3>
|  4> %base "17-64_DFT_AB"
|  5>
|  6> %scf
|  7> MaxIter 1000
|  8> end
|  9>
| 10> * xyz 0 1
| 11>   C                      3.428928             8.666497             5.285069
| 12>   O                      4.762131             8.230754             5.347500
| 13>   H                      4.851017             7.570642             4.577961
| 14>   H                      3.003292             8.738284             4.342669
| 15>   H                      2.793504             7.932422             5.811546
| 16>   H                      3.320919             9.639837             5.807513
| 17>   C                      6.131417             10.996762            7.863631
| 18>   O                      7.042752             11.339503            8.814869
| 19>   H                      6.905795             10.728852            9.527801
| 20>   H                      6.391286             10.050053            7.406230
| 21>   H                      5.165496             10.870847            8.328558
| 22>   H                      6.068326             11.769853            7.165914
| 23> *
| 24>
| 25> #Run DFT-D3 single point of the molecule with dimer basis set
| 26> $new_job
| 27> %base "17-64_DFT_A"
| 28> ! wB97X-D3 def2-TZVP TIGHTSCF CHELPG PMODEL
| 29>
| 30> %scf
| 31> MaxIter 1000
| 32> end
| 33>
| 34> * xyz 0 1
| 35>   C                      3.428928             8.666497             5.285069
| 36>   O                      4.762131             8.230754             5.347500
| 37>   H                      4.851017             7.570642             4.577961
| 38>   H                      3.003292             8.738284             4.342669
| 39>   H                      2.793504             7.932422             5.811546
| 40>   H                      3.320919             9.639837             5.807513
| 41>   C                    : 6.131417             10.996762            7.863631
| 42>   O                    : 7.042752             11.339503            8.814869
| 43>   H                    : 6.905795             10.728852            9.527801
| 44>   H                    : 6.391286             10.050053            7.406230
| 45>   H                    : 5.165496             10.870847            8.328558
| 46>   H                    : 6.068326             11.769853            7.165914
| 47> *
| 48>
| 49> #Run DFT-D3 single point of the particle with dimer basis set
| 50> $new_job
| 51> %base "17-64_DFT_B"
| 52> ! wB97X-D3 def2-TZVP TIGHTSCF CHELPG PMODEL
| 53>
| 54> %scf
| 55> MaxIter 1000
| 56> end
| 57>
| 58> * xyz 0 1
| 59>   C                    : 3.428928             8.666497             5.285069
| 60>   O                    : 4.762131             8.230754             5.347500
| 61>   H                    : 4.851017             7.570642             4.577961
| 62>   H                    : 3.003292             8.738284             4.342669
| 63>   H                    : 2.793504             7.932422             5.811546
| 64>   H                    : 3.320919             9.639837             5.807513
| 65>   C                      6.131417             10.996762            7.863631
| 66>   O                      7.042752             11.339503            8.814869
| 67>   H                      6.905795             10.728852            9.527801
| 68>   H                      6.391286             10.050053            7.406230
| 69>   H                      5.165496             10.870847            8.328558
| 70>   H                      6.068326             11.769853            7.165914
| 71> *
| 72>
| 73>                          ****END OF INPUT****
 Total Charge           Charge          ....    0
 Multiplicity           Mult            ....    1
 Number of Electrons    NEL             ....   36
Dispersion correction           -0.001180625
FINAL SINGLE POINT ENERGY      -231.462760804783
Dispersion correction           -0.000231716
FINAL SINGLE POINT ENERGY      -115.729481903281

CARTESIAN COORDINATES (ANGSTROEM)
---------------------------------
  C      3.428928    8.666497    5.285069
  O      4.762131    8.230754    5.347500
  H      4.851017    7.570642    4.577961
  H      3.003292    8.738284    4.342669
  H      2.793504    7.932422    5.811546
  H      3.320919    9.639837    5.807513
  C      6.131417   10.996762    7.863631
  O      7.042752   11.339503    8.814869
  H      6.905795   10.728852    9.527801
  H      6.391286   10.050053    7.406230
  H      5.165496   10.870847    8.328558
  H      6.068326   11.769853    7.165914

 Multiplicity           Mult            ....    1
 Number of Electrons    NEL             ....   18
 Basis Dimension        Dim             ....  172

ORBITAL ENERGIES
----------------

  NO   OCC          E(Eh)            E(eV)
   0   2.0000     -19.225821      -523.1612
   1   2.0000     -10.299539      -280.2647
   2   2.0000      -1.156606       -31.4729
   3   2.0000      -0.797510       -21.7013
   4   2.0000      -0.623015       -16.9531
   5   2.0000      -0.552096       -15.0233
   6   2.0000      -0.538215       -14.6456
   7   2.0000      -0.436011       -11.8645
   8   2.0000      -0.368781       -10.0350
   9   0.0000       0.081664         2.2222
  10   0.0000       0.116435         3.1684
  11   0.0000       0.151521         4.1231
  12   0.0000       0.160646         4.3714
  13   0.0000       0.198347         5.3973

MULLIKEN ATOMIC CHARGES
-----------------------
   0 C :   -0.000613
   1 O :   -0.000031
   2 H :   -0.000026
   3 H :   -0.000005
   4 H :    0.000037
   5 H :   -0.000115
   6 C :   -0.141984
   7 O :   -0.461552
   8 H :    0.311997
   9 H :    0.088696
  10 H :    0.089838
  11 H :    0.113757
Sum of atomic charges:    0.0000000

LOEWDIN ATOMIC CHARGES
----------------------
   0 C :   -0.000605
   1 O :   -0.000938
   2 H :   -0.000055
   3 H :   -0.000007
   4 H :   -0.000007
   5 H :   -0.000358
   6 C :   -0.413362
   7 O :   -0.032278
   8 H :    0.167224
   9 H :    0.091145
  10 H :    0.091817
  11 H :    0.097425

  Mayer bond orders larger than 0.1
B(  6-C ,  7-O ) :   1.0040 B(  6-C ,  9-H ) :   0.9797 B(  6-C , 10-H ) :   0.9896
B(  6-C , 11-H ) :   0.9732 B(  7-O ,  8-H ) :   0.9039

Dispersion correction           -0.000188182
FINAL SINGLE POINT ENERGY      -115.731976997895

DIPOLE MOMENT
-------------
                                X             Y             Z
Electronic contribution:      1.26751       0.60951       1.08429
Nuclear contribution   :     -1.69660      -1.10479      -0.97704
                        -----------------------------------------
Total Dipole Moment    :     -0.42909      -0.49528       0.10725
                        -----------------------------------------
Magnitude (a.u.)       :      0.66403
Magnitude (Debye)      :      1.68782

Rotational constants in cm-1:     4.389040     0.902295     0.867100
Rotational constants in MHz : 131580.100182 27050.130227 25995.016631

                             ****ORCA TERMINATED NORMALLY****
TOTAL RUN TIME: 0 days 0 hours 1 minutes 11 seconds 494 msec
