                         Program Version 4.1.2  - RELEASE  -
|  1> #Run DFT-D3 single point of the dimer
|  2> ! wB97X-D3 def2-TZVP TIGHTSCF CHELPG PMODEL PAL8
|  3>
|  4> %base "15-53_DFT_AB"
|  5>
|  6> %scf
|  7> MaxIter 1000
|  8> end
|  9>
| 10> * xyz 0 1
| 11>   C                      7.027536             3.700445             1.588677
| 12>   O                      7.121738             4.093266             0.247516
| 13>   H                      7.366341             3.333908             -0.299382
| 14>   H                      8.023769             3.471064             2.076743
| 15>   H                      6.544191             4.464693             2.197487
| 16>   H                      6.420623             2.848499             1.708700
| 17>   C                      6.117011             -0.537824            2.319645
| 18>   O                      6.705269             -0.410618            1.052811
| 19>   H                      7.634214             -0.345952            1.299747
| 20>   H                      6.282751             0.344865             2.953731
| 21>   H                      5.042268             -0.805252            2.201874
| 22>   H                      6.552636             -1.415495            2.782392
| 23> *
| 24>
| 25> #Run DFT-D3 single point of the molecule with dimer basis set
| 26> $new_job
| 27> %base "15-53_DFT_A"
| 28> ! wB97X-D3 def2-TZVP TIGHTSCF CHELPG PMODEL
| 29>
| 30> %scf
| 31> MaxIter 1000
| 32> end
| 33>
| 34> * xyz 0 1
| 35>   C                      7.027536             3.700445             1.588677
| 36>   O                      7.121738             4.093266             0.247516
| 37>   H                      7.366341             3.333908             -0.299382
| 38>   H                      8.023769             3.471064             2.076743
| 39>   H                      6.544191             4.464693             2.197487
| 40>   H                      6.420623             2.848499             1.708700
| 41>   C                    : 6.117011             -0.537824            2.319645
| 42>   O                    : 6.705269             -0.410618            1.052811
| 43>   H                    : 7.634214             -0.345952            1.299747
| 44>   H                    : 6.282751             0.344865             2.953731
| 45>   H                    : 5.042268             -0.805252            2.201874
| 46>   H                    : 6.552636             -1.415495            2.782392
| 47> *
| 48>
| 49> #Run DFT-D3 single point of the particle with dimer basis set
| 50> $new_job
| 51> %base "15-53_DFT_B"
| 52> ! wB97X-D3 def2-TZVP TIGHTSCF CHELPG PMODEL
| 53>
| 54> %scf
| 55> MaxIter 1000
| 56> end
| 57>
| 58> * xyz 0 1
| 59>   C                    : 7.027536             3.700445             1.588677
| 60>   O                    : 7.121738             4.093266             0.247516
| 61>   H                    : 7.366341             3.333908             -0.299382
| 62>   H                    : 8.023769             3.471064             2.076743
| 63>   H                    : 6.544191             4.464693             2.197487
| 64>   H                    : 6.420623             2.848499             1.708700
| 65>   C                      6.117011             -0.537824            2.319645
| 66>   O                      6.705269             -0.410618            1.052811
| 67>   H                      7.634214             -0.345952            1.299747
| 68>   H                      6.282751             0.344865             2.953731
| 69>   H                      5.042268             -0.805252            2.201874
| 70>   H                      6.552636             -1.415495            2.782392
| 71> *
| 72>
| 73>                          ****END OF INPUT****
 Total Charge           Charge          ....    0
 Multiplicity           Mult            ....    1
 Number of Electrons    NEL             ....   36
Dispersion correction           -0.001336913
FINAL SINGLE POINT ENERGY      -231.469183780979
Dispersion correction           -0.000247625
FINAL SINGLE POINT ENERGY      -115.734463681519

CARTESIAN COORDINATES (ANGSTROEM)
---------------------------------
  C      7.027536    3.700445    1.588677
  O      7.121738    4.093266    0.247516
  H      7.366341    3.333908   -0.299382
  H      8.023769    3.471064    2.076743
  H      6.544191    4.464693    2.197487
  H      6.420623    2.848499    1.708700
  C      6.117011   -0.537824    2.319645
  O      6.705269   -0.410618    1.052811
  H      7.634214   -0.345952    1.299747
  H      6.282751    0.344865    2.953731
  H      5.042268   -0.805252    2.201874
  H      6.552636   -1.415495    2.782392

 Multiplicity           Mult            ....    1
 Number of Electrons    NEL             ....   18
 Basis Dimension        Dim             ....  172

ORBITAL ENERGIES
----------------

  NO   OCC          E(Eh)            E(eV)
   0   2.0000     -19.231405      -523.3131
   1   2.0000     -10.313419      -280.6424
   2   2.0000      -1.144974       -31.1563
   3   2.0000      -0.788910       -21.4673
   4   2.0000      -0.611231       -16.6324
   5   2.0000      -0.550184       -14.9713
   6   2.0000      -0.524245       -14.2654
   7   2.0000      -0.438242       -11.9252
   8   2.0000      -0.373305       -10.1581
   9   0.0000       0.083814         2.2807
  10   0.0000       0.123968         3.3733
  11   0.0000       0.151509         4.1228
  12   0.0000       0.174334         4.7439
  13   0.0000       0.191209         5.2031

MULLIKEN ATOMIC CHARGES
-----------------------
   0 C :   -0.002140
   1 O :    0.000283
   2 H :   -0.000600
   3 H :    0.000018
   4 H :    0.000025
   5 H :    0.001113
   6 C :   -0.180480
   7 O :   -0.460999
   8 H :    0.314288
   9 H :    0.105200
  10 H :    0.116496
  11 H :    0.106795
Sum of atomic charges:   -0.0000000

LOEWDIN ATOMIC CHARGES
----------------------
   0 C :   -0.001620
   1 O :   -0.000037
   2 H :   -0.000404
   3 H :   -0.000065
   4 H :   -0.000022
   5 H :   -0.001460
   6 C :   -0.401994
   7 O :   -0.070415
   8 H :    0.175701
   9 H :    0.094595
  10 H :    0.112800
  11 H :    0.092921

  Mayer bond orders larger than 0.1
B(  6-C ,  7-O ) :   0.9935 B(  6-C ,  9-H ) :   0.9706 B(  6-C , 10-H ) :   0.9730
B(  6-C , 11-H ) :   0.9877 B(  7-O ,  8-H ) :   0.9027

Dispersion correction           -0.000206830
FINAL SINGLE POINT ENERGY      -115.733183379957

DIPOLE MOMENT
-------------
                                X             Y             Z
Electronic contribution:      0.58961       0.25399      -1.70409
Nuclear contribution   :     -0.24233      -0.29523       2.33091
                        -----------------------------------------
Total Dipole Moment    :      0.34728      -0.04124       0.62682
                        -----------------------------------------
Magnitude (a.u.)       :      0.71778
Magnitude (Debye)      :      1.82445

Rotational constants in cm-1:     4.146568     0.856998     0.822183
Rotational constants in MHz : 124310.976395 25692.144594 24648.428727

                             ****ORCA TERMINATED NORMALLY****
TOTAL RUN TIME: 0 days 0 hours 0 minutes 52 seconds 332 msec
