                         Program Version 4.1.2  - RELEASE  -
|  1> #Run DFT-D3 single point of the dimer
|  2> ! wB97X-D3 def2-TZVP TIGHTSCF CHELPG PMODEL PAL8
|  3>
|  4> %base "9-0_DFT_AB"
|  5>
|  6> %scf
|  7> MaxIter 1000
|  8> end
|  9>
| 10> * xyz 0 1
| 11>   C                      5.326910             4.806322             -3.533113
| 12>   O                      6.034877             3.972360             -4.447765
| 13>   H                      6.237275             3.163824             -3.960999
| 14>   H                      6.014065             5.326131             -2.833834
| 15>   H                      4.817935             5.581777             -4.157801
| 16>   H                      4.623172             4.233674             -2.922331
| 17>   C                      6.482871             0.175619             -3.124092
| 18>   O                      5.876064             1.479061             -3.086430
| 19>   H                      5.127288             1.460981             -2.485195
| 20>   H                      6.305677             -0.243266            -2.102666
| 21>   H                      5.921835             -0.472918            -3.836024
| 22>   H                      7.590044             0.153542             -3.268757
| 23> *
| 24>
| 25> #Run DFT-D3 single point of the molecule with dimer basis set
| 26> $new_job
| 27> %base "9-0_DFT_A"
| 28> ! wB97X-D3 def2-TZVP TIGHTSCF CHELPG PMODEL
| 29>
| 30> %scf
| 31> MaxIter 1000
| 32> end
| 33>
| 34> * xyz 0 1
| 35>   C                      5.326910             4.806322             -3.533113
| 36>   O                      6.034877             3.972360             -4.447765
| 37>   H                      6.237275             3.163824             -3.960999
| 38>   H                      6.014065             5.326131             -2.833834
| 39>   H                      4.817935             5.581777             -4.157801
| 40>   H                      4.623172             4.233674             -2.922331
| 41>   C                    : 6.482871             0.175619             -3.124092
| 42>   O                    : 5.876064             1.479061             -3.086430
| 43>   H                    : 5.127288             1.460981             -2.485195
| 44>   H                    : 6.305677             -0.243266            -2.102666
| 45>   H                    : 5.921835             -0.472918            -3.836024
| 46>   H                    : 7.590044             0.153542             -3.268757
| 47> *
| 48>
| 49> #Run DFT-D3 single point of the particle with dimer basis set
| 50> $new_job
| 51> %base "9-0_DFT_B"
| 52> ! wB97X-D3 def2-TZVP TIGHTSCF CHELPG PMODEL
| 53>
| 54> %scf
| 55> MaxIter 1000
| 56> end
| 57>
| 58> * xyz 0 1
| 59>   C                    : 5.326910             4.806322             -3.533113
| 60>   O                    : 6.034877             3.972360             -4.447765
| 61>   H                    : 6.237275             3.163824             -3.960999
| 62>   H                    : 6.014065             5.326131             -2.833834
| 63>   H                    : 4.817935             5.581777             -4.157801
| 64>   H                    : 4.623172             4.233674             -2.922331
| 65>   C                      6.482871             0.175619             -3.124092
| 66>   O                      5.876064             1.479061             -3.086430
| 67>   H                      5.127288             1.460981             -2.485195
| 68>   H                      6.305677             -0.243266            -2.102666
| 69>   H                      5.921835             -0.472918            -3.836024
| 70>   H                      7.590044             0.153542             -3.268757
| 71> *
| 72>
| 73>                          ****END OF INPUT****
 Total Charge           Charge          ....    0
 Multiplicity           Mult            ....    1
 Number of Electrons    NEL             ....   36
Dispersion correction           -0.001675670
FINAL SINGLE POINT ENERGY      -231.474470290985
Dispersion correction           -0.000242129
FINAL SINGLE POINT ENERGY      -115.736212455826

CARTESIAN COORDINATES (ANGSTROEM)
---------------------------------
  C      5.326910    4.806322   -3.533113
  O      6.034877    3.972360   -4.447765
  H      6.237275    3.163824   -3.960999
  H      6.014065    5.326131   -2.833834
  H      4.817935    5.581777   -4.157801
  H      4.623172    4.233674   -2.922331
  C      6.482871    0.175619   -3.124092
  O      5.876064    1.479061   -3.086430
  H      5.127288    1.460981   -2.485195
  H      6.305677   -0.243266   -2.102666
  H      5.921835   -0.472918   -3.836024
  H      7.590044    0.153542   -3.268757

 Multiplicity           Mult            ....    1
 Number of Electrons    NEL             ....   18
 Basis Dimension        Dim             ....  172

ORBITAL ENERGIES
----------------

  NO   OCC          E(Eh)            E(eV)
   0   2.0000     -19.228625      -523.2375
   1   2.0000     -10.324390      -280.9409
   2   2.0000      -1.128518       -30.7085
   3   2.0000      -0.791108       -21.5272
   4   2.0000      -0.604350       -16.4452
   5   2.0000      -0.541728       -14.7412
   6   2.0000      -0.526385       -14.3237
   7   2.0000      -0.425599       -11.5811
   8   2.0000      -0.373496       -10.1633
   9   0.0000       0.096418         2.6237
  10   0.0000       0.122509         3.3336
  11   0.0000       0.150297         4.0898
  12   0.0000       0.186750         5.0817
  13   0.0000       0.197931         5.3860

MULLIKEN ATOMIC CHARGES
-----------------------
   0 C :    0.001862
   1 O :    0.001019
   2 H :   -0.012460
   3 H :   -0.000313
   4 H :   -0.000132
   5 H :   -0.002480
   6 C :   -0.166437
   7 O :   -0.474082
   8 H :    0.318012
   9 H :    0.100653
  10 H :    0.106279
  11 H :    0.128079
Sum of atomic charges:   -0.0000000

LOEWDIN ATOMIC CHARGES
----------------------
   0 C :   -0.005025
   1 O :   -0.006236
   2 H :   -0.043156
   3 H :   -0.000108
   4 H :   -0.000060
   5 H :   -0.001413
   6 C :   -0.369996
   7 O :   -0.055781
   8 H :    0.168867
   9 H :    0.101715
  10 H :    0.099617
  11 H :    0.111576

  Mayer bond orders larger than 0.1
B(  6-C ,  7-O ) :   0.9861 B(  6-C ,  9-H ) :   0.9872 B(  6-C , 10-H ) :   0.9702
B(  6-C , 11-H ) :   0.9679 B(  7-O ,  8-H ) :   0.8950

Dispersion correction           -0.000249290
FINAL SINGLE POINT ENERGY      -115.730730521194

DIPOLE MOMENT
-------------
                                X             Y             Z
Electronic contribution:     -0.54705       1.71173      -0.18739
Nuclear contribution   :      0.32382      -2.27217       0.58849
                        -----------------------------------------
Total Dipole Moment    :     -0.22322      -0.56044       0.40110
                        -----------------------------------------
Magnitude (a.u.)       :      0.72443
Magnitude (Debye)      :      1.84135

Rotational constants in cm-1:     4.157530     0.803633     0.779676
Rotational constants in MHz : 124639.619746 24092.300296 23374.100520

                             ****ORCA TERMINATED NORMALLY****
TOTAL RUN TIME: 0 days 0 hours 0 minutes 42 seconds 802 msec
