                         Program Version 4.1.2  - RELEASE  -
|  1> #Run DFT-D3 single point of the dimer
|  2> ! wB97X-D3 def2-TZVP TIGHTSCF CHELPG PMODEL PAL8
|  3>
|  4> %base "5-54_DFT_AB"
|  5>
|  6> %scf
|  7> MaxIter 1000
|  8> end
|  9>
| 10> * xyz 0 1
| 11>   C                      -6.273322            -9.533329            -8.368384
| 12>   O                      -7.523562            -10.051300           -8.014050
| 13>   H                      -8.078851            -9.952586            -8.778788
| 14>   H                      -5.871098            -8.781854            -7.648397
| 15>   H                      -5.513111            -10.350072           -8.413968
| 16>   H                      -6.238926            -9.095729            -9.396470
| 17>   C                      -7.847015            -10.797170           -4.774399
| 18>   O                      -9.056352            -10.963265           -4.130736
| 19>   H                      -9.679498            -10.343751           -4.391485
| 20>   H                      -8.014355            -10.073135           -5.561590
| 21>   H                      -7.090545            -10.423001           -4.066921
| 22>   H                      -7.466017            -11.744374           -5.103162
| 23> *
| 24>
| 25> #Run DFT-D3 single point of the molecule with dimer basis set
| 26> $new_job
| 27> %base "5-54_DFT_A"
| 28> ! wB97X-D3 def2-TZVP TIGHTSCF CHELPG PMODEL
| 29>
| 30> %scf
| 31> MaxIter 1000
| 32> end
| 33>
| 34> * xyz 0 1
| 35>   C                      -6.273322            -9.533329            -8.368384
| 36>   O                      -7.523562            -10.051300           -8.014050
| 37>   H                      -8.078851            -9.952586            -8.778788
| 38>   H                      -5.871098            -8.781854            -7.648397
| 39>   H                      -5.513111            -10.350072           -8.413968
| 40>   H                      -6.238926            -9.095729            -9.396470
| 41>   C                    : -7.847015            -10.797170           -4.774399
| 42>   O                    : -9.056352            -10.963265           -4.130736
| 43>   H                    : -9.679498            -10.343751           -4.391485
| 44>   H                    : -8.014355            -10.073135           -5.561590
| 45>   H                    : -7.090545            -10.423001           -4.066921
| 46>   H                    : -7.466017            -11.744374           -5.103162
| 47> *
| 48>
| 49> #Run DFT-D3 single point of the particle with dimer basis set
| 50> $new_job
| 51> %base "5-54_DFT_B"
| 52> ! wB97X-D3 def2-TZVP TIGHTSCF CHELPG PMODEL
| 53>
| 54> %scf
| 55> MaxIter 1000
| 56> end
| 57>
| 58> * xyz 0 1
| 59>   C                    : -6.273322            -9.533329            -8.368384
| 60>   O                    : -7.523562            -10.051300           -8.014050
| 61>   H                    : -8.078851            -9.952586            -8.778788
| 62>   H                    : -5.871098            -8.781854            -7.648397
| 63>   H                    : -5.513111            -10.350072           -8.413968
| 64>   H                    : -6.238926            -9.095729            -9.396470
| 65>   C                      -7.847015            -10.797170           -4.774399
| 66>   O                      -9.056352            -10.963265           -4.130736
| 67>   H                      -9.679498            -10.343751           -4.391485
| 68>   H                      -8.014355            -10.073135           -5.561590
| 69>   H                      -7.090545            -10.423001           -4.066921
| 70>   H                      -7.466017            -11.744374           -5.103162
| 71> *
| 72>
| 73>                          ****END OF INPUT****
 Total Charge           Charge          ....    0
 Multiplicity           Mult            ....    1
 Number of Electrons    NEL             ....   36
Dispersion correction           -0.001543407
FINAL SINGLE POINT ENERGY      -231.465881275970
Dispersion correction           -0.000255993
FINAL SINGLE POINT ENERGY      -115.733766969288

CARTESIAN COORDINATES (ANGSTROEM)
---------------------------------
  C     -6.273322   -9.533329   -8.368384
  O     -7.523562  -10.051300   -8.014050
  H     -8.078851   -9.952586   -8.778788
  H     -5.871098   -8.781854   -7.648397
  H     -5.513111  -10.350072   -8.413968
  H     -6.238926   -9.095729   -9.396470
  C     -7.847015  -10.797170   -4.774399
  O     -9.056352  -10.963265   -4.130736
  H     -9.679498  -10.343751   -4.391485
  H     -8.014355  -10.073135   -5.561590
  H     -7.090545  -10.423001   -4.066921
  H     -7.466017  -11.744374   -5.103162

 Multiplicity           Mult            ....    1
 Number of Electrons    NEL             ....   18
 Basis Dimension        Dim             ....  172

ORBITAL ENERGIES
----------------

  NO   OCC          E(Eh)            E(eV)
   0   2.0000     -19.220336      -523.0119
   1   2.0000     -10.308171      -280.4996
   2   2.0000      -1.151695       -31.3392
   3   2.0000      -0.801447       -21.8085
   4   2.0000      -0.621433       -16.9100
   5   2.0000      -0.547131       -14.8882
   6   2.0000      -0.539710       -14.6863
   7   2.0000      -0.427745       -11.6395
   8   2.0000      -0.368166       -10.0183
   9   0.0000       0.080759         2.1976
  10   0.0000       0.118449         3.2232
  11   0.0000       0.157788         4.2936
  12   0.0000       0.164647         4.4803
  13   0.0000       0.185766         5.0550

MULLIKEN ATOMIC CHARGES
-----------------------
   0 C :   -0.000911
   1 O :   -0.000669
   2 H :   -0.000213
   3 H :   -0.000180
   4 H :    0.000014
   5 H :   -0.000015
   6 C :   -0.136755
   7 O :   -0.468144
   8 H :    0.309593
   9 H :    0.097084
  10 H :    0.096575
  11 H :    0.103620
Sum of atomic charges:   -0.0000000

LOEWDIN ATOMIC CHARGES
----------------------
   0 C :   -0.002456
   1 O :   -0.006638
   2 H :   -0.000436
   3 H :   -0.000342
   4 H :   -0.000070
   5 H :   -0.000041
   6 C :   -0.393120
   7 O :   -0.033445
   8 H :    0.140369
   9 H :    0.099529
  10 H :    0.098411
  11 H :    0.098238

  Mayer bond orders larger than 0.1
B(  6-C ,  7-O ) :   1.0161 B(  6-C ,  9-H ) :   0.9974 B(  6-C , 10-H ) :   0.9720
B(  6-C , 11-H ) :   0.9766 B(  7-O ,  8-H ) :   0.9094

Dispersion correction           -0.000222264
FINAL SINGLE POINT ENERGY      -115.730800166216

DIPOLE MOMENT
-------------
                                X             Y             Z
Electronic contribution:     -1.51114      -0.32253       0.78847
Nuclear contribution   :      1.55024       0.80541      -1.22227
                        -----------------------------------------
Total Dipole Moment    :      0.03910       0.48288      -0.43380
                        -----------------------------------------
Magnitude (a.u.)       :      0.65029
Magnitude (Debye)      :      1.65291

Rotational constants in cm-1:     4.410340     0.875282     0.838689
Rotational constants in MHz : 132218.666782 26240.295534 25143.255574

                             ****ORCA TERMINATED NORMALLY****
TOTAL RUN TIME: 0 days 0 hours 0 minutes 52 seconds 803 msec
