                         Program Version 4.1.2  - RELEASE  -
|  1> #Run DFT-D3 single point of the dimer
|  2> ! wB97X-D3 def2-TZVP TIGHTSCF CHELPG PMODEL PAL8
|  3>
|  4> %base "8-118_DFT_AB"
|  5>
|  6> %scf
|  7> MaxIter 1000
|  8> end
|  9>
| 10> * xyz 0 1
| 11>   C                      -3.085407            1.212228             -6.857028
| 12>   O                      -4.014511            0.679533             -7.754818
| 13>   H                      -3.617017            -0.153410            -8.081807
| 14>   H                      -3.475457            2.195119             -6.416982
| 15>   H                      -2.699295            0.539996             -6.108891
| 16>   H                      -2.225274            1.472159             -7.430988
| 17>   C                      -0.151003            -2.035609            -8.821723
| 18>   O                      -0.924824            -1.536299            -7.733373
| 19>   H                      -1.828442            -1.692329            -7.979716
| 20>   H                      -0.282953            -1.539425            -9.797442
| 21>   H                      0.915134             -1.846635            -8.655497
| 22>   H                      -0.344206            -3.076921            -8.978535
| 23> *
| 24>
| 25> #Run DFT-D3 single point of the molecule with dimer basis set
| 26> $new_job
| 27> %base "8-118_DFT_A"
| 28> ! wB97X-D3 def2-TZVP TIGHTSCF CHELPG PMODEL
| 29>
| 30> %scf
| 31> MaxIter 1000
| 32> end
| 33>
| 34> * xyz 0 1
| 35>   C                      -3.085407            1.212228             -6.857028
| 36>   O                      -4.014511            0.679533             -7.754818
| 37>   H                      -3.617017            -0.153410            -8.081807
| 38>   H                      -3.475457            2.195119             -6.416982
| 39>   H                      -2.699295            0.539996             -6.108891
| 40>   H                      -2.225274            1.472159             -7.430988
| 41>   C                    : -0.151003            -2.035609            -8.821723
| 42>   O                    : -0.924824            -1.536299            -7.733373
| 43>   H                    : -1.828442            -1.692329            -7.979716
| 44>   H                    : -0.282953            -1.539425            -9.797442
| 45>   H                    : 0.915134             -1.846635            -8.655497
| 46>   H                    : -0.344206            -3.076921            -8.978535
| 47> *
| 48>
| 49> #Run DFT-D3 single point of the particle with dimer basis set
| 50> $new_job
| 51> %base "8-118_DFT_B"
| 52> ! wB97X-D3 def2-TZVP TIGHTSCF CHELPG PMODEL
| 53>
| 54> %scf
| 55> MaxIter 1000
| 56> end
| 57>
| 58> * xyz 0 1
| 59>   C                    : -3.085407            1.212228             -6.857028
| 60>   O                    : -4.014511            0.679533             -7.754818
| 61>   H                    : -3.617017            -0.153410            -8.081807
| 62>   H                    : -3.475457            2.195119             -6.416982
| 63>   H                    : -2.699295            0.539996             -6.108891
| 64>   H                    : -2.225274            1.472159             -7.430988
| 65>   C                      -0.151003            -2.035609            -8.821723
| 66>   O                      -0.924824            -1.536299            -7.733373
| 67>   H                      -1.828442            -1.692329            -7.979716
| 68>   H                      -0.282953            -1.539425            -9.797442
| 69>   H                      0.915134             -1.846635            -8.655497
| 70>   H                      -0.344206            -3.076921            -8.978535
| 71> *
| 72>
| 73>                          ****END OF INPUT****
 Total Charge           Charge          ....    0
 Multiplicity           Mult            ....    1
 Number of Electrons    NEL             ....   36
Dispersion correction           -0.001632521
FINAL SINGLE POINT ENERGY      -231.464948126329
Dispersion correction           -0.000222222
FINAL SINGLE POINT ENERGY      -115.730741860607

CARTESIAN COORDINATES (ANGSTROEM)
---------------------------------
  C     -3.085407    1.212228   -6.857028
  O     -4.014511    0.679533   -7.754818
  H     -3.617017   -0.153410   -8.081807
  H     -3.475457    2.195119   -6.416982
  H     -2.699295    0.539996   -6.108891
  H     -2.225274    1.472159   -7.430988
  C     -0.151003   -2.035609   -8.821723
  O     -0.924824   -1.536299   -7.733373
  H     -1.828442   -1.692329   -7.979716
  H     -0.282953   -1.539425   -9.797442
  H      0.915134   -1.846635   -8.655497
  H     -0.344206   -3.076921   -8.978535

 Multiplicity           Mult            ....    1
 Number of Electrons    NEL             ....   18
 Basis Dimension        Dim             ....  172

ORBITAL ENERGIES
----------------

  NO   OCC          E(Eh)            E(eV)
   0   2.0000     -19.233998      -523.3837
   1   2.0000     -10.313120      -280.6343
   2   2.0000      -1.138528       -30.9809
   3   2.0000      -0.799105       -21.7448
   4   2.0000      -0.612528       -16.6677
   5   2.0000      -0.546927       -14.8826
   6   2.0000      -0.520421       -14.1614
   7   2.0000      -0.439490       -11.9591
   8   2.0000      -0.377208       -10.2643
   9   0.0000       0.085876         2.3368
  10   0.0000       0.128855         3.5063
  11   0.0000       0.151409         4.1200
  12   0.0000       0.178031         4.8445
  13   0.0000       0.200191         5.4475

MULLIKEN ATOMIC CHARGES
-----------------------
   0 C :    0.000472
   1 O :    0.000809
   2 H :   -0.004506
   3 H :   -0.000382
   4 H :   -0.001088
   5 H :   -0.003566
   6 C :   -0.181115
   7 O :   -0.461616
   8 H :    0.316493
   9 H :    0.100347
  10 H :    0.122610
  11 H :    0.111541
Sum of atomic charges:   -0.0000000

LOEWDIN ATOMIC CHARGES
----------------------
   0 C :   -0.005299
   1 O :   -0.000209
   2 H :   -0.003973
   3 H :   -0.000068
   4 H :   -0.001531
   5 H :   -0.002086
   6 C :   -0.381467
   7 O :   -0.067629
   8 H :    0.164340
   9 H :    0.095960
  10 H :    0.110773
  11 H :    0.091189

  Mayer bond orders larger than 0.1
B(  6-C ,  7-O ) :   1.0019 B(  6-C ,  9-H ) :   0.9671 B(  6-C , 10-H ) :   0.9757
B(  6-C , 11-H ) :   0.9796 B(  7-O ,  8-H ) :   0.9002

Dispersion correction           -0.000246510
FINAL SINGLE POINT ENERGY      -115.734561852542

DIPOLE MOMENT
-------------
                                X             Y             Z
Electronic contribution:     -0.91674       0.63765       1.53723
Nuclear contribution   :      0.67667      -0.94245      -2.13315
                        -----------------------------------------
Total Dipole Moment    :     -0.24007      -0.30480      -0.59592
                        -----------------------------------------
Magnitude (a.u.)       :      0.71110
Magnitude (Debye)      :      1.80746

Rotational constants in cm-1:     4.416876     0.817560     0.787064
Rotational constants in MHz : 132414.602736 24509.843451 23595.578373

                             ****ORCA TERMINATED NORMALLY****
TOTAL RUN TIME: 0 days 0 hours 0 minutes 46 seconds 14 msec
