                         Program Version 4.1.2  - RELEASE  -
|  1> #Run DFT-D3 single point of the dimer
|  2> ! wB97X-D3 def2-TZVP TIGHTSCF  CHELPG PAL8
|  3>
|  4> %base "13_charges"
|  5>
|  6> %scf
|  7> MaxIter 1000
|  8> end
|  9> %output
| 10>   Print[ P_Mayer ] 1
| 11>   Print[ P_NatPop ] 1
| 12>   Print[ P_Hirshfeld ] 1
| 13>   Print[ P_Mulliken ] 1
| 14>   Print [ P_Loewdin ] 1
| 15> end
| 16>
| 17> * xyz 0 1
| 18>   C                      -4.033601            1.529301             11.771566
| 19>   O                      -5.007422            2.268931             11.052850
| 20>   H                      -4.645211            3.126733             10.850898
| 21>   H                      -4.487010            0.656511             12.279783
| 22>   H                      -3.353375            1.104135             11.017285
| 23>   H                      -3.382930            2.127444             12.443107
| 24> *
| 25>
| 26>                          ****END OF INPUT****

CARTESIAN COORDINATES (ANGSTROEM)
---------------------------------
  C     -4.033601    1.529301   11.771566
  O     -5.007422    2.268931   11.052850
  H     -4.645211    3.126733   10.850898
  H     -4.487010    0.656511   12.279783
  H     -3.353375    1.104135   11.017285
  H     -3.382930    2.127444   12.443107

 Total Charge           Charge          ....    0
 Multiplicity           Mult            ....    1
 Number of Electrons    NEL             ....   18
 Basis Dimension        Dim             ....   86

ORBITAL ENERGIES
----------------

  NO   OCC          E(Eh)            E(eV)
   0   2.0000     -19.229264      -523.2549
   1   2.0000     -10.317402      -280.7508
   2   2.0000      -1.136146       -30.9161
   3   2.0000      -0.793730       -21.5985
   4   2.0000      -0.611859       -16.6495
   5   2.0000      -0.533103       -14.5065
   6   2.0000      -0.529235       -14.4012
   7   2.0000      -0.438311       -11.9270
   8   2.0000      -0.369006       -10.0412
   9   0.0000       0.115428         3.1410
  10   0.0000       0.154390         4.2012
  11   0.0000       0.196072         5.3354
  12   0.0000       0.204870         5.5748
  13   0.0000       0.230067         6.2604

MULLIKEN ATOMIC CHARGES
-----------------------
   0 C :   -0.167579
   1 O :   -0.473902
   2 H :    0.314482
   3 H :    0.122582
   4 H :    0.102105
   5 H :    0.102312
Sum of atomic charges:   -0.0000000

LOEWDIN ATOMIC CHARGES
----------------------
   0 C :   -0.387770
   1 O :   -0.079446
   2 H :    0.163837
   3 H :    0.110717
   4 H :    0.096049
   5 H :    0.096614

  Mayer bond orders larger than 0.1
B(  0-C ,  1-O ) :   0.9964 B(  0-C ,  3-H ) :   0.9710 B(  0-C ,  4-H ) :   0.9826
B(  0-C ,  5-H ) :   0.9730 B(  1-O ,  2-H ) :   0.8996

Dispersion correction           -0.000245230
FINAL SINGLE POINT ENERGY      -115.733871235375

DIPOLE MOMENT
-------------
                                X             Y             Z
Electronic contribution:     -1.41271       0.89711      -0.78533
Nuclear contribution   :      2.03544      -0.64469       0.93550
                        -----------------------------------------
Total Dipole Moment    :      0.62273       0.25242       0.15017
                        -----------------------------------------
Magnitude (a.u.)       :      0.68852
Magnitude (Debye)      :      1.75007

Rotational constants in cm-1:     4.251416     0.828264     0.790758
Rotational constants in MHz : 127454.242463 24830.732075 23706.323515

                             ****ORCA TERMINATED NORMALLY****
TOTAL RUN TIME: 0 days 0 hours 0 minutes 43 seconds 85 msec
