                         Program Version 4.1.2  - RELEASE  -
|  1> #Run DFT-D3 single point of the dimer
|  2> ! wB97X-D3 def2-TZVP TIGHTSCF CHELPG PMODEL PAL8
|  3>
|  4> %base "11-115_DFT_AB"
|  5>
|  6> %scf
|  7> MaxIter 1000
|  8> end
|  9>
| 10> * xyz 0 1
| 11>   C                      -4.783363            4.112619             -2.570429
| 12>   O                      -6.170966            4.051347             -2.271669
| 13>   H                      -6.396381            3.112215             -2.297182
| 14>   H                      -4.677063            4.150604             -3.633048
| 15>   H                      -4.392991            5.100541             -2.206898
| 16>   H                      -4.210136            3.298748             -2.150329
| 17>   C                      -7.362782            6.392833             -0.031246
| 18>   O                      -6.746706            5.358698             0.595294
| 19>   H                      -7.008309            4.498787             0.148125
| 20>   H                      -7.361403            7.336571             0.467680
| 21>   H                      -7.100800            6.503015             -1.023257
| 22>   H                      -8.394243            6.060086             -0.106421
| 23> *
| 24>
| 25> #Run DFT-D3 single point of the molecule with dimer basis set
| 26> $new_job
| 27> %base "11-115_DFT_A"
| 28> ! wB97X-D3 def2-TZVP TIGHTSCF CHELPG PMODEL
| 29>
| 30> %scf
| 31> MaxIter 1000
| 32> end
| 33>
| 34> * xyz 0 1
| 35>   C                      -4.783363            4.112619             -2.570429
| 36>   O                      -6.170966            4.051347             -2.271669
| 37>   H                      -6.396381            3.112215             -2.297182
| 38>   H                      -4.677063            4.150604             -3.633048
| 39>   H                      -4.392991            5.100541             -2.206898
| 40>   H                      -4.210136            3.298748             -2.150329
| 41>   C                    : -7.362782            6.392833             -0.031246
| 42>   O                    : -6.746706            5.358698             0.595294
| 43>   H                    : -7.008309            4.498787             0.148125
| 44>   H                    : -7.361403            7.336571             0.467680
| 45>   H                    : -7.100800            6.503015             -1.023257
| 46>   H                    : -8.394243            6.060086             -0.106421
| 47> *
| 48>
| 49> #Run DFT-D3 single point of the particle with dimer basis set
| 50> $new_job
| 51> %base "11-115_DFT_B"
| 52> ! wB97X-D3 def2-TZVP TIGHTSCF CHELPG PMODEL
| 53>
| 54> %scf
| 55> MaxIter 1000
| 56> end
| 57>
| 58> * xyz 0 1
| 59>   C                    : -4.783363            4.112619             -2.570429
| 60>   O                    : -6.170966            4.051347             -2.271669
| 61>   H                    : -6.396381            3.112215             -2.297182
| 62>   H                    : -4.677063            4.150604             -3.633048
| 63>   H                    : -4.392991            5.100541             -2.206898
| 64>   H                    : -4.210136            3.298748             -2.150329
| 65>   C                      -7.362782            6.392833             -0.031246
| 66>   O                      -6.746706            5.358698             0.595294
| 67>   H                      -7.008309            4.498787             0.148125
| 68>   H                      -7.361403            7.336571             0.467680
| 69>   H                      -7.100800            6.503015             -1.023257
| 70>   H                      -8.394243            6.060086             -0.106421
| 71> *
| 72>
| 73>                          ****END OF INPUT****
 Total Charge           Charge          ....    0
 Multiplicity           Mult            ....    1
 Number of Electrons    NEL             ....   36
Dispersion correction           -0.001864964
FINAL SINGLE POINT ENERGY      -231.461760017303
Dispersion correction           -0.000231413
FINAL SINGLE POINT ENERGY      -115.734988260461

CARTESIAN COORDINATES (ANGSTROEM)
---------------------------------
  C     -4.783363    4.112619   -2.570429
  O     -6.170966    4.051347   -2.271669
  H     -6.396381    3.112215   -2.297182
  H     -4.677063    4.150604   -3.633048
  H     -4.392991    5.100541   -2.206898
  H     -4.210136    3.298748   -2.150329
  C     -7.362782    6.392833   -0.031246
  O     -6.746706    5.358698    0.595294
  H     -7.008309    4.498787    0.148125
  H     -7.361403    7.336571    0.467680
  H     -7.100800    6.503015   -1.023257
  H     -8.394243    6.060086   -0.106421

 Multiplicity           Mult            ....    1
 Number of Electrons    NEL             ....   18
 Basis Dimension        Dim             ....  172

ORBITAL ENERGIES
----------------

  NO   OCC          E(Eh)            E(eV)
   0   2.0000     -19.230695      -523.2938
   1   2.0000     -10.296963      -280.1946
   2   2.0000      -1.146755       -31.2048
   3   2.0000      -0.796520       -21.6744
   4   2.0000      -0.621411       -16.9095
   5   2.0000      -0.548253       -14.9187
   6   2.0000      -0.545048       -14.8315
   7   2.0000      -0.427422       -11.6307
   8   2.0000      -0.363349        -9.8872
   9   0.0000       0.072949         1.9850
  10   0.0000       0.123136         3.3507
  11   0.0000       0.151846         4.1320
  12   0.0000       0.172024         4.6810
  13   0.0000       0.189463         5.1555

MULLIKEN ATOMIC CHARGES
-----------------------
   0 C :   -0.003068
   1 O :   -0.001558
   2 H :   -0.000250
   3 H :   -0.000048
   4 H :   -0.000024
   5 H :    0.000365
   6 C :   -0.163589
   7 O :   -0.472402
   8 H :    0.324426
   9 H :    0.124239
  10 H :    0.099704
  11 H :    0.092207
Sum of atomic charges:   -0.0000000

LOEWDIN ATOMIC CHARGES
----------------------
   0 C :   -0.002588
   1 O :   -0.005086
   2 H :   -0.000780
   3 H :   -0.000060
   4 H :   -0.000424
   5 H :   -0.000046
   6 C :   -0.422816
   7 O :   -0.050135
   8 H :    0.201737
   9 H :    0.104641
  10 H :    0.078877
  11 H :    0.096681

  Mayer bond orders larger than 0.1
B(  6-C ,  7-O ) :   1.0008 B(  6-C ,  9-H ) :   0.9694 B(  6-C , 10-H ) :   0.9733
B(  6-C , 11-H ) :   1.0048 B(  7-O ,  8-H ) :   0.8861

Dispersion correction           -0.000195874
FINAL SINGLE POINT ENERGY      -115.722697082637

DIPOLE MOMENT
-------------
                                X             Y             Z
Electronic contribution:      1.08290      -1.11271       0.97328
Nuclear contribution   :     -1.48886       0.96873      -1.48811
                        -----------------------------------------
Total Dipole Moment    :     -0.40596      -0.14398      -0.51483
                        -----------------------------------------
Magnitude (a.u.)       :      0.67125
Magnitude (Debye)      :      1.70618

Rotational constants in cm-1:     4.509726     0.896987     0.851418
Rotational constants in MHz : 135198.197172 26891.000693 25524.857635

                             ****ORCA TERMINATED NORMALLY****
TOTAL RUN TIME: 0 days 0 hours 1 minutes 6 seconds 832 msec
