                         Program Version 4.1.2  - RELEASE  -
|  1> #Run DFT-D3 single point of the dimer
|  2> ! wB97X-D3 def2-TZVP TIGHTSCF CHELPG PMODEL PAL8
|  3>
|  4> %base "20-58_DFT_AB"
|  5>
|  6> %scf
|  7> MaxIter 1000
|  8> end
|  9>
| 10> * xyz 0 1
| 11>   C                      6.774995             -8.324252            -6.953877
| 12>   O                      7.881105             -8.521997            -6.079112
| 13>   H                      7.517149             -8.829247            -5.213137
| 14>   H                      6.347906             -9.271718            -7.258913
| 15>   H                      6.000089             -7.780573            -6.407686
| 16>   H                      7.153695             -7.866640            -7.863631
| 17>   C                      7.744184             -10.654787           -3.444805
| 18>   O                      6.586102             -10.333390           -4.132204
| 19>   H                      5.925763             -10.827691           -3.628894
| 20>   H                      8.707866             -10.479906           -3.960858
| 21>   H                      7.903785             -9.976957            -2.584237
| 22>   H                      7.646756             -11.684471           -3.155189
| 23> *
| 24>
| 25> #Run DFT-D3 single point of the molecule with dimer basis set
| 26> $new_job
| 27> %base "20-58_DFT_A"
| 28> ! wB97X-D3 def2-TZVP TIGHTSCF CHELPG PMODEL
| 29>
| 30> %scf
| 31> MaxIter 1000
| 32> end
| 33>
| 34> * xyz 0 1
| 35>   C                      6.774995             -8.324252            -6.953877
| 36>   O                      7.881105             -8.521997            -6.079112
| 37>   H                      7.517149             -8.829247            -5.213137
| 38>   H                      6.347906             -9.271718            -7.258913
| 39>   H                      6.000089             -7.780573            -6.407686
| 40>   H                      7.153695             -7.866640            -7.863631
| 41>   C                    : 7.744184             -10.654787           -3.444805
| 42>   O                    : 6.586102             -10.333390           -4.132204
| 43>   H                    : 5.925763             -10.827691           -3.628894
| 44>   H                    : 8.707866             -10.479906           -3.960858
| 45>   H                    : 7.903785             -9.976957            -2.584237
| 46>   H                    : 7.646756             -11.684471           -3.155189
| 47> *
| 48>
| 49> #Run DFT-D3 single point of the particle with dimer basis set
| 50> $new_job
| 51> %base "20-58_DFT_B"
| 52> ! wB97X-D3 def2-TZVP TIGHTSCF CHELPG PMODEL
| 53>
| 54> %scf
| 55> MaxIter 1000
| 56> end
| 57>
| 58> * xyz 0 1
| 59>   C                    : 6.774995             -8.324252            -6.953877
| 60>   O                    : 7.881105             -8.521997            -6.079112
| 61>   H                    : 7.517149             -8.829247            -5.213137
| 62>   H                    : 6.347906             -9.271718            -7.258913
| 63>   H                    : 6.000089             -7.780573            -6.407686
| 64>   H                    : 7.153695             -7.866640            -7.863631
| 65>   C                      7.744184             -10.654787           -3.444805
| 66>   O                      6.586102             -10.333390           -4.132204
| 67>   H                      5.925763             -10.827691           -3.628894
| 68>   H                      8.707866             -10.479906           -3.960858
| 69>   H                      7.903785             -9.976957            -2.584237
| 70>   H                      7.646756             -11.684471           -3.155189
| 71> *
| 72>
| 73>                          ****END OF INPUT****
 Total Charge           Charge          ....    0
 Multiplicity           Mult            ....    1
 Number of Electrons    NEL             ....   36
Dispersion correction           -0.001809835
FINAL SINGLE POINT ENERGY      -231.468742411936
Dispersion correction           -0.000226969
FINAL SINGLE POINT ENERGY      -115.734826923400

CARTESIAN COORDINATES (ANGSTROEM)
---------------------------------
  C      6.774995   -8.324252   -6.953877
  O      7.881105   -8.521997   -6.079112
  H      7.517149   -8.829247   -5.213137
  H      6.347906   -9.271718   -7.258913
  H      6.000089   -7.780573   -6.407686
  H      7.153695   -7.866640   -7.863631
  C      7.744184  -10.654787   -3.444805
  O      6.586102  -10.333390   -4.132204
  H      5.925763  -10.827691   -3.628894
  H      8.707866  -10.479906   -3.960858
  H      7.903785   -9.976957   -2.584237
  H      7.646756  -11.684471   -3.155189

 Multiplicity           Mult            ....    1
 Number of Electrons    NEL             ....   18
 Basis Dimension        Dim             ....  172

ORBITAL ENERGIES
----------------

  NO   OCC          E(Eh)            E(eV)
   0   2.0000     -19.233097      -523.3592
   1   2.0000     -10.311713      -280.5960
   2   2.0000      -1.150926       -31.3183
   3   2.0000      -0.790388       -21.5076
   4   2.0000      -0.615240       -16.7415
   5   2.0000      -0.554220       -15.0811
   6   2.0000      -0.530963       -14.4482
   7   2.0000      -0.433756       -11.8031
   8   2.0000      -0.370169       -10.0728
   9   0.0000       0.099389         2.7045
  10   0.0000       0.123313         3.3555
  11   0.0000       0.150533         4.0962
  12   0.0000       0.190546         5.1850
  13   0.0000       0.199538         5.4297

MULLIKEN ATOMIC CHARGES
-----------------------
   0 C :    0.002913
   1 O :    0.000306
   2 H :   -0.003060
   3 H :   -0.003161
   4 H :   -0.001545
   5 H :   -0.000260
   6 C :   -0.172283
   7 O :   -0.451391
   8 H :    0.313964
   9 H :    0.116383
  10 H :    0.093752
  11 H :    0.104380
Sum of atomic charges:    0.0000000

LOEWDIN ATOMIC CHARGES
----------------------
   0 C :   -0.005246
   1 O :   -0.002852
   2 H :   -0.022605
   3 H :   -0.001324
   4 H :   -0.000645
   5 H :   -0.000054
   6 C :   -0.412466
   7 O :   -0.036001
   8 H :    0.180920
   9 H :    0.110502
  10 H :    0.096066
  11 H :    0.093705

  Mayer bond orders larger than 0.1
B(  6-C ,  7-O ) :   0.9946 B(  6-C ,  9-H ) :   0.9757 B(  6-C , 10-H ) :   0.9735
B(  6-C , 11-H ) :   0.9888 B(  7-O ,  8-H ) :   0.8994

Dispersion correction           -0.000215378
FINAL SINGLE POINT ENERGY      -115.728518049295

DIPOLE MOMENT
-------------
                                X             Y             Z
Electronic contribution:     -1.48315       0.45039      -1.09093
Nuclear contribution   :      1.51178      -0.88662       1.65182
                        -----------------------------------------
Total Dipole Moment    :      0.02863      -0.43624       0.56089
                        -----------------------------------------
Magnitude (a.u.)       :      0.71114
Magnitude (Debye)      :      1.80758

Rotational constants in cm-1:     4.298954     0.866232     0.829110
Rotational constants in MHz : 128879.384501 25968.982964 24856.086907

                             ****ORCA TERMINATED NORMALLY****
TOTAL RUN TIME: 0 days 0 hours 1 minutes 9 seconds 716 msec
