                         Program Version 4.1.2  - RELEASE  -
|  1> #Run DFT-D3 single point of the dimer
|  2> ! wB97X-D3 def2-TZVP TIGHTSCF CHELPG PMODEL PAL8
|  3>
|  4> %base "17-152_DFT_AB"
|  5>
|  6> %scf
|  7> MaxIter 1000
|  8> end
|  9>
| 10> * xyz 0 1
| 11>   C                      -0.014004            -8.914242            3.677463
| 12>   O                      -0.243283            -7.666548            3.192443
| 13>   H                      -0.330893            -7.706242            2.229205
| 14>   H                      0.478737             -9.580093            2.996806
| 15>   H                      0.624726             -8.936190            4.581951
| 16>   H                      -0.910941            -9.473797            3.977538
| 17>   C                      3.336545             -6.019057            -0.127289
| 18>   O                      2.124200             -6.692143            -0.632479
| 19>   H                      2.245712             -6.788249            -1.551181
| 20>   H                      3.279200             -5.674546            0.871108
| 21>   H                      4.169471             -6.729841            -0.125674
| 22>   H                      3.693860             -5.153305            -0.729483
| 23> *
| 24>
| 25> #Run DFT-D3 single point of the molecule with dimer basis set
| 26> $new_job
| 27> %base "17-152_DFT_A"
| 28> ! wB97X-D3 def2-TZVP TIGHTSCF CHELPG PMODEL
| 29>
| 30> %scf
| 31> MaxIter 1000
| 32> end
| 33>
| 34> * xyz 0 1
| 35>   C                      -0.014004            -8.914242            3.677463
| 36>   O                      -0.243283            -7.666548            3.192443
| 37>   H                      -0.330893            -7.706242            2.229205
| 38>   H                      0.478737             -9.580093            2.996806
| 39>   H                      0.624726             -8.936190            4.581951
| 40>   H                      -0.910941            -9.473797            3.977538
| 41>   C                    : 3.336545             -6.019057            -0.127289
| 42>   O                    : 2.124200             -6.692143            -0.632479
| 43>   H                    : 2.245712             -6.788249            -1.551181
| 44>   H                    : 3.279200             -5.674546            0.871108
| 45>   H                    : 4.169471             -6.729841            -0.125674
| 46>   H                    : 3.693860             -5.153305            -0.729483
| 47> *
| 48>
| 49> #Run DFT-D3 single point of the particle with dimer basis set
| 50> $new_job
| 51> %base "17-152_DFT_B"
| 52> ! wB97X-D3 def2-TZVP TIGHTSCF CHELPG PMODEL
| 53>
| 54> %scf
| 55> MaxIter 1000
| 56> end
| 57>
| 58> * xyz 0 1
| 59>   C                    : -0.014004            -8.914242            3.677463
| 60>   O                    : -0.243283            -7.666548            3.192443
| 61>   H                    : -0.330893            -7.706242            2.229205
| 62>   H                    : 0.478737             -9.580093            2.996806
| 63>   H                    : 0.624726             -8.936190            4.581951
| 64>   H                    : -0.910941            -9.473797            3.977538
| 65>   C                      3.336545             -6.019057            -0.127289
| 66>   O                      2.124200             -6.692143            -0.632479
| 67>   H                      2.245712             -6.788249            -1.551181
| 68>   H                      3.279200             -5.674546            0.871108
| 69>   H                      4.169471             -6.729841            -0.125674
| 70>   H                      3.693860             -5.153305            -0.729483
| 71> *
| 72>
| 73>                          ****END OF INPUT****
 Total Charge           Charge          ....    0
 Multiplicity           Mult            ....    1
 Number of Electrons    NEL             ....   36
Dispersion correction           -0.000767182
FINAL SINGLE POINT ENERGY      -231.464037345255
Dispersion correction           -0.000240954
FINAL SINGLE POINT ENERGY      -115.732425753165

CARTESIAN COORDINATES (ANGSTROEM)
---------------------------------
  C     -0.014004   -8.914242    3.677463
  O     -0.243283   -7.666548    3.192443
  H     -0.330893   -7.706242    2.229205
  H      0.478737   -9.580093    2.996806
  H      0.624726   -8.936190    4.581951
  H     -0.910941   -9.473797    3.977538
  C      3.336545   -6.019057   -0.127289
  O      2.124200   -6.692143   -0.632479
  H      2.245712   -6.788249   -1.551181
  H      3.279200   -5.674546    0.871108
  H      4.169471   -6.729841   -0.125674
  H      3.693860   -5.153305   -0.729483

 Multiplicity           Mult            ....    1
 Number of Electrons    NEL             ....   18
 Basis Dimension        Dim             ....  172

ORBITAL ENERGIES
----------------

  NO   OCC          E(Eh)            E(eV)
   0   2.0000     -19.230930      -523.3002
   1   2.0000     -10.317855      -280.7631
   2   2.0000      -1.126725       -30.6598
   3   2.0000      -0.803962       -21.8769
   4   2.0000      -0.603678       -16.4269
   5   2.0000      -0.532076       -14.4785
   6   2.0000      -0.526851       -14.3364
   7   2.0000      -0.442564       -12.0428
   8   2.0000      -0.377007       -10.2589
   9   0.0000       0.094185         2.5629
  10   0.0000       0.118516         3.2250
  11   0.0000       0.147067         4.0019
  12   0.0000       0.173499         4.7211
  13   0.0000       0.199522         5.4293

MULLIKEN ATOMIC CHARGES
-----------------------
   0 C :    0.000184
   1 O :    0.000058
   2 H :   -0.001064
   3 H :   -0.000113
   4 H :    0.000000
   5 H :   -0.000011
   6 C :   -0.183116
   7 O :   -0.471303
   8 H :    0.308928
   9 H :    0.128951
  10 H :    0.108601
  11 H :    0.108883
Sum of atomic charges:   -0.0000000

LOEWDIN ATOMIC CHARGES
----------------------
   0 C :   -0.000021
   1 O :   -0.000015
   2 H :   -0.000493
   3 H :   -0.000020
   4 H :   -0.000001
   5 H :   -0.000001
   6 C :   -0.342786
   7 O :   -0.101349
   8 H :    0.146628
   9 H :    0.099798
  10 H :    0.097101
  11 H :    0.101158

  Mayer bond orders larger than 0.1
B(  6-C ,  7-O ) :   0.9949 B(  6-C ,  9-H ) :   0.9740 B(  6-C , 10-H ) :   0.9786
B(  6-C , 11-H ) :   0.9714 B(  7-O ,  8-H ) :   0.9082

Dispersion correction           -0.000274012
FINAL SINGLE POINT ENERGY      -115.730007816064

DIPOLE MOMENT
-------------
                                X             Y             Z
Electronic contribution:     -1.69224      -0.80376      -0.45826
Nuclear contribution   :      2.29716       1.03516       0.10184
                        -----------------------------------------
Total Dipole Moment    :      0.60493       0.23139      -0.35641
                        -----------------------------------------
Magnitude (a.u.)       :      0.73926
Magnitude (Debye)      :      1.87906

Rotational constants in cm-1:     4.487671     0.767941     0.743958
Rotational constants in MHz : 134536.988047 23022.297243 22303.294859

                             ****ORCA TERMINATED NORMALLY****
TOTAL RUN TIME: 0 days 0 hours 1 minutes 7 seconds 989 msec
