                         Program Version 4.1.2  - RELEASE  -
|  1> #Run DFT-D3 single point of the dimer
|  2> ! wB97X-D3 def2-TZVP TIGHTSCF CHELPG PMODEL PAL8
|  3>
|  4> %base "5-101_DFT_AB"
|  5>
|  6> %scf
|  7> MaxIter 1000
|  8> end
|  9>
| 10> * xyz 0 1
| 11>   C                      10.099755            -8.391832            7.426089
| 12>   O                      8.932273             -9.123837            7.036020
| 13>   H                      9.240936             -10.078565           7.004083
| 14>   H                      10.500209            -8.720719            8.378348
| 15>   H                      10.929111            -8.689775            6.786376
| 16>   H                      9.978572             -7.339789            7.447551
| 17>   C                      6.493591             -7.114689            5.665414
| 18>   O                      7.749158             -7.200561            5.023627
| 19>   H                      8.417499             -7.256658            5.702624
| 20>   H                      6.411173             -7.828988            6.442911
| 21>   H                      6.322881             -6.124128            6.161306
| 22>   H                      5.695959             -7.314876            5.013645
| 23> *
| 24>
| 25> #Run DFT-D3 single point of the molecule with dimer basis set
| 26> $new_job
| 27> %base "5-101_DFT_A"
| 28> ! wB97X-D3 def2-TZVP TIGHTSCF CHELPG PMODEL
| 29>
| 30> %scf
| 31> MaxIter 1000
| 32> end
| 33>
| 34> * xyz 0 1
| 35>   C                      10.099755            -8.391832            7.426089
| 36>   O                      8.932273             -9.123837            7.036020
| 37>   H                      9.240936             -10.078565           7.004083
| 38>   H                      10.500209            -8.720719            8.378348
| 39>   H                      10.929111            -8.689775            6.786376
| 40>   H                      9.978572             -7.339789            7.447551
| 41>   C                    : 6.493591             -7.114689            5.665414
| 42>   O                    : 7.749158             -7.200561            5.023627
| 43>   H                    : 8.417499             -7.256658            5.702624
| 44>   H                    : 6.411173             -7.828988            6.442911
| 45>   H                    : 6.322881             -6.124128            6.161306
| 46>   H                    : 5.695959             -7.314876            5.013645
| 47> *
| 48>
| 49> #Run DFT-D3 single point of the particle with dimer basis set
| 50> $new_job
| 51> %base "5-101_DFT_B"
| 52> ! wB97X-D3 def2-TZVP TIGHTSCF CHELPG PMODEL
| 53>
| 54> %scf
| 55> MaxIter 1000
| 56> end
| 57>
| 58> * xyz 0 1
| 59>   C                    : 10.099755            -8.391832            7.426089
| 60>   O                    : 8.932273             -9.123837            7.036020
| 61>   H                    : 9.240936             -10.078565           7.004083
| 62>   H                    : 10.500209            -8.720719            8.378348
| 63>   H                    : 10.929111            -8.689775            6.786376
| 64>   H                    : 9.978572             -7.339789            7.447551
| 65>   C                      6.493591             -7.114689            5.665414
| 66>   O                      7.749158             -7.200561            5.023627
| 67>   H                      8.417499             -7.256658            5.702624
| 68>   H                      6.411173             -7.828988            6.442911
| 69>   H                      6.322881             -6.124128            6.161306
| 70>   H                      5.695959             -7.314876            5.013645
| 71> *
| 72>
| 73>                          ****END OF INPUT****
 Total Charge           Charge          ....    0
 Multiplicity           Mult            ....    1
 Number of Electrons    NEL             ....   36
Dispersion correction           -0.001890569
FINAL SINGLE POINT ENERGY      -231.466394447451
Dispersion correction           -0.000228026
FINAL SINGLE POINT ENERGY      -115.729950849806

CARTESIAN COORDINATES (ANGSTROEM)
---------------------------------
  C     10.099755   -8.391832    7.426089
  O      8.932273   -9.123837    7.036020
  H      9.240936  -10.078565    7.004083
  H     10.500209   -8.720719    8.378348
  H     10.929111   -8.689775    6.786376
  H      9.978572   -7.339789    7.447551
  C      6.493591   -7.114689    5.665414
  O      7.749158   -7.200561    5.023627
  H      8.417499   -7.256658    5.702624
  H      6.411173   -7.828988    6.442911
  H      6.322881   -6.124128    6.161306
  H      5.695959   -7.314876    5.013645

 Multiplicity           Mult            ....    1
 Number of Electrons    NEL             ....   18
 Basis Dimension        Dim             ....  172

ORBITAL ENERGIES
----------------

  NO   OCC          E(Eh)            E(eV)
   0   2.0000     -19.231426      -523.3137
   1   2.0000     -10.307700      -280.4868
   2   2.0000      -1.138598       -30.9828
   3   2.0000      -0.801985       -21.8231
   4   2.0000      -0.614931       -16.7331
   5   2.0000      -0.539706       -14.6862
   6   2.0000      -0.533969       -14.5300
   7   2.0000      -0.437984       -11.9181
   8   2.0000      -0.373878       -10.1737
   9   0.0000       0.070233         1.9111
  10   0.0000       0.135850         3.6967
  11   0.0000       0.149268         4.0618
  12   0.0000       0.163064         4.4372
  13   0.0000       0.190365         5.1801

MULLIKEN ATOMIC CHARGES
-----------------------
   0 C :   -0.001849
   1 O :   -0.003146
   2 H :   -0.000300
   3 H :   -0.000092
   4 H :    0.000210
   5 H :   -0.002240
   6 C :   -0.165807
   7 O :   -0.466461
   8 H :    0.313521
   9 H :    0.104661
  10 H :    0.097345
  11 H :    0.124159
Sum of atomic charges:    0.0000000

LOEWDIN ATOMIC CHARGES
----------------------
   0 C :   -0.007675
   1 O :   -0.007970
   2 H :   -0.000399
   3 H :   -0.000102
   4 H :   -0.000167
   5 H :   -0.002369
   6 C :   -0.377483
   7 O :   -0.059612
   8 H :    0.168980
   9 H :    0.088012
  10 H :    0.100085
  11 H :    0.098699

  Mayer bond orders larger than 0.1
B(  6-C ,  7-O ) :   1.0000 B(  6-C ,  9-H ) :   0.9776 B(  6-C , 10-H ) :   0.9801
B(  6-C , 11-H ) :   0.9739 B(  7-O ,  8-H ) :   0.9078

Dispersion correction           -0.000235109
FINAL SINGLE POINT ENERGY      -115.734362467825

DIPOLE MOMENT
-------------
                                X             Y             Z
Electronic contribution:      1.53455      -0.13914      -1.05889
Nuclear contribution   :     -1.62767       0.10626       1.73783
                        -----------------------------------------
Total Dipole Moment    :     -0.09312      -0.03288       0.67894
                        -----------------------------------------
Magnitude (a.u.)       :      0.68608
Magnitude (Debye)      :      1.74388

Rotational constants in cm-1:     4.474906     0.830584     0.803300
Rotational constants in MHz : 134154.310583 24900.282434 24082.338874

                             ****ORCA TERMINATED NORMALLY****
TOTAL RUN TIME: 0 days 0 hours 1 minutes 1 seconds 289 msec
