                         Program Version 4.1.2  - RELEASE  -
|  1> #Run DFT-D3 single point of the dimer
|  2> ! wB97X-D3 def2-TZVP TIGHTSCF CHELPG PMODEL PAL8
|  3>
|  4> %base "22-161_DFT_AB"
|  5>
|  6> %scf
|  7> MaxIter 1000
|  8> end
|  9>
| 10> * xyz 0 1
| 11>   C                      -8.533005            9.425008             2.244899
| 12>   O                      -8.767148            8.486847             3.339499
| 13>   H                      -8.878157            7.567461             3.034750
| 14>   H                      -7.497985            9.385551             1.820937
| 15>   H                      -9.222402            9.301168             1.459743
| 16>   H                      -8.738443            10.375658            2.569069
| 17>   C                      -7.406490            5.114962             2.194658
| 18>   O                      -8.127863            5.716703             3.172104
| 19>   H                      -8.698114            5.083331             3.538264
| 20>   H                      -7.612737            5.667259             1.305622
| 21>   H                      -6.353386            5.182250             2.467790
| 22>   H                      -7.619469            4.045659             1.948745
| 23> *
| 24>
| 25> #Run DFT-D3 single point of the molecule with dimer basis set
| 26> $new_job
| 27> %base "22-161_DFT_A"
| 28> ! wB97X-D3 def2-TZVP TIGHTSCF CHELPG PMODEL
| 29>
| 30> %scf
| 31> MaxIter 1000
| 32> end
| 33>
| 34> * xyz 0 1
| 35>   C                      -8.533005            9.425008             2.244899
| 36>   O                      -8.767148            8.486847             3.339499
| 37>   H                      -8.878157            7.567461             3.034750
| 38>   H                      -7.497985            9.385551             1.820937
| 39>   H                      -9.222402            9.301168             1.459743
| 40>   H                      -8.738443            10.375658            2.569069
| 41>   C                    : -7.406490            5.114962             2.194658
| 42>   O                    : -8.127863            5.716703             3.172104
| 43>   H                    : -8.698114            5.083331             3.538264
| 44>   H                    : -7.612737            5.667259             1.305622
| 45>   H                    : -6.353386            5.182250             2.467790
| 46>   H                    : -7.619469            4.045659             1.948745
| 47> *
| 48>
| 49> #Run DFT-D3 single point of the particle with dimer basis set
| 50> $new_job
| 51> %base "22-161_DFT_B"
| 52> ! wB97X-D3 def2-TZVP TIGHTSCF CHELPG PMODEL
| 53>
| 54> %scf
| 55> MaxIter 1000
| 56> end
| 57>
| 58> * xyz 0 1
| 59>   C                    : -8.533005            9.425008             2.244899
| 60>   O                    : -8.767148            8.486847             3.339499
| 61>   H                    : -8.878157            7.567461             3.034750
| 62>   H                    : -7.497985            9.385551             1.820937
| 63>   H                    : -9.222402            9.301168             1.459743
| 64>   H                    : -8.738443            10.375658            2.569069
| 65>   C                      -7.406490            5.114962             2.194658
| 66>   O                      -8.127863            5.716703             3.172104
| 67>   H                      -8.698114            5.083331             3.538264
| 68>   H                      -7.612737            5.667259             1.305622
| 69>   H                      -6.353386            5.182250             2.467790
| 70>   H                      -7.619469            4.045659             1.948745
| 71> *
| 72>
| 73>                          ****END OF INPUT****
 Total Charge           Charge          ....    0
 Multiplicity           Mult            ....    1
 Number of Electrons    NEL             ....   36
Dispersion correction           -0.001633969
FINAL SINGLE POINT ENERGY      -231.463711179499
Dispersion correction           -0.000276394
FINAL SINGLE POINT ENERGY      -115.729581444899

CARTESIAN COORDINATES (ANGSTROEM)
---------------------------------
  C     -8.533005    9.425008    2.244899
  O     -8.767148    8.486847    3.339499
  H     -8.878157    7.567461    3.034750
  H     -7.497985    9.385551    1.820937
  H     -9.222402    9.301168    1.459743
  H     -8.738443   10.375658    2.569069
  C     -7.406490    5.114962    2.194658
  O     -8.127863    5.716703    3.172104
  H     -8.698114    5.083331    3.538264
  H     -7.612737    5.667259    1.305622
  H     -6.353386    5.182250    2.467790
  H     -7.619469    4.045659    1.948745

 Multiplicity           Mult            ....    1
 Number of Electrons    NEL             ....   18
 Basis Dimension        Dim             ....  172

ORBITAL ENERGIES
----------------

  NO   OCC          E(Eh)            E(eV)
   0   2.0000     -19.226564      -523.1814
   1   2.0000     -10.305723      -280.4330
   2   2.0000      -1.162537       -31.6342
   3   2.0000      -0.797471       -21.7003
   4   2.0000      -0.626548       -17.0492
   5   2.0000      -0.555643       -15.1198
   6   2.0000      -0.527898       -14.3648
   7   2.0000      -0.432443       -11.7674
   8   2.0000      -0.370105       -10.0711
   9   0.0000       0.097000         2.6395
  10   0.0000       0.123890         3.3712
  11   0.0000       0.159131         4.3302
  12   0.0000       0.184679         5.0254
  13   0.0000       0.202126         5.5001

MULLIKEN ATOMIC CHARGES
-----------------------
   0 C :    0.001134
   1 O :    0.002132
   2 H :   -0.014544
   3 H :   -0.000048
   4 H :   -0.000223
   5 H :   -0.000090
   6 C :   -0.158202
   7 O :   -0.449338
   8 H :    0.310698
   9 H :    0.108529
  10 H :    0.101681
  11 H :    0.098270
Sum of atomic charges:   -0.0000000

LOEWDIN ATOMIC CHARGES
----------------------
   0 C :   -0.000773
   1 O :   -0.006698
   2 H :   -0.037980
   3 H :   -0.000049
   4 H :   -0.000024
   5 H :   -0.000017
   6 C :   -0.425324
   7 O :    0.020053
   8 H :    0.154185
   9 H :    0.096599
  10 H :    0.099393
  11 H :    0.100635

  Mayer bond orders larger than 0.1
B(  6-C ,  7-O ) :   0.9952 B(  6-C ,  9-H ) :   0.9840 B(  6-C , 10-H ) :   0.9784
B(  6-C , 11-H ) :   0.9761 B(  7-O ,  8-H ) :   0.9052

Dispersion correction           -0.000221812
FINAL SINGLE POINT ENERGY      -115.729381406960

DIPOLE MOMENT
-------------
                                X             Y             Z
Electronic contribution:     -0.94169       0.86622       1.32149
Nuclear contribution   :      0.80722      -1.51761      -1.42938
                        -----------------------------------------
Total Dipole Moment    :     -0.13446      -0.65139      -0.10788
                        -----------------------------------------
Magnitude (a.u.)       :      0.67382
Magnitude (Debye)      :      1.71270

Rotational constants in cm-1:     4.379728     0.892459     0.862632
Rotational constants in MHz : 131300.928820 26755.257249 25861.062062

                             ****ORCA TERMINATED NORMALLY****
TOTAL RUN TIME: 0 days 0 hours 1 minutes 9 seconds 281 msec
