                         Program Version 4.1.2  - RELEASE  -
|  1> #Run DFT-D3 single point of the dimer
|  2> ! wB97X-D3 def2-TZVP TIGHTSCF CHELPG PMODEL PAL8
|  3>
|  4> %base "7-116_DFT_AB"
|  5>
|  6> %scf
|  7> MaxIter 1000
|  8> end
|  9>
| 10> * xyz 0 1
| 11>   C                      8.231847             4.812904             2.218231
| 12>   O                      7.857317             4.358539             3.507066
| 13>   H                      8.511085             3.740002             3.820354
| 14>   H                      9.259510             4.563071             1.868465
| 15>   H                      7.425748             4.418321             1.520043
| 16>   H                      8.132544             5.888729             2.119775
| 17>   C                      10.560418            3.098178             -0.880398
| 18>   O                      11.202843            3.408740             0.386204
| 19>   H                      10.928286            2.683354             0.941212
| 20>   H                      9.677609             3.810956             -0.896926
| 21>   H                      11.240863            3.265396             -1.742691
| 22>   H                      10.141027            2.036011             -0.992917
| 23> *
| 24>
| 25> #Run DFT-D3 single point of the molecule with dimer basis set
| 26> $new_job
| 27> %base "7-116_DFT_A"
| 28> ! wB97X-D3 def2-TZVP TIGHTSCF CHELPG PMODEL
| 29>
| 30> %scf
| 31> MaxIter 1000
| 32> end
| 33>
| 34> * xyz 0 1
| 35>   C                      8.231847             4.812904             2.218231
| 36>   O                      7.857317             4.358539             3.507066
| 37>   H                      8.511085             3.740002             3.820354
| 38>   H                      9.259510             4.563071             1.868465
| 39>   H                      7.425748             4.418321             1.520043
| 40>   H                      8.132544             5.888729             2.119775
| 41>   C                    : 10.560418            3.098178             -0.880398
| 42>   O                    : 11.202843            3.408740             0.386204
| 43>   H                    : 10.928286            2.683354             0.941212
| 44>   H                    : 9.677609             3.810956             -0.896926
| 45>   H                    : 11.240863            3.265396             -1.742691
| 46>   H                    : 10.141027            2.036011             -0.992917
| 47> *
| 48>
| 49> #Run DFT-D3 single point of the particle with dimer basis set
| 50> $new_job
| 51> %base "7-116_DFT_B"
| 52> ! wB97X-D3 def2-TZVP TIGHTSCF CHELPG PMODEL
| 53>
| 54> %scf
| 55> MaxIter 1000
| 56> end
| 57>
| 58> * xyz 0 1
| 59>   C                    : 8.231847             4.812904             2.218231
| 60>   O                    : 7.857317             4.358539             3.507066
| 61>   H                    : 8.511085             3.740002             3.820354
| 62>   H                    : 9.259510             4.563071             1.868465
| 63>   H                    : 7.425748             4.418321             1.520043
| 64>   H                    : 8.132544             5.888729             2.119775
| 65>   C                      10.560418            3.098178             -0.880398
| 66>   O                      11.202843            3.408740             0.386204
| 67>   H                      10.928286            2.683354             0.941212
| 68>   H                      9.677609             3.810956             -0.896926
| 69>   H                      11.240863            3.265396             -1.742691
| 70>   H                      10.141027            2.036011             -0.992917
| 71> *
| 72>
| 73>                          ****END OF INPUT****
 Total Charge           Charge          ....    0
 Multiplicity           Mult            ....    1
 Number of Electrons    NEL             ....   36
Dispersion correction           -0.001610144
FINAL SINGLE POINT ENERGY      -231.462775238654
Dispersion correction           -0.000266412
FINAL SINGLE POINT ENERGY      -115.731891990507

CARTESIAN COORDINATES (ANGSTROEM)
---------------------------------
  C      8.231847    4.812904    2.218231
  O      7.857317    4.358539    3.507066
  H      8.511085    3.740002    3.820354
  H      9.259510    4.563071    1.868465
  H      7.425748    4.418321    1.520043
  H      8.132544    5.888729    2.119775
  C     10.560418    3.098178   -0.880398
  O     11.202843    3.408740    0.386204
  H     10.928286    2.683354    0.941212
  H      9.677609    3.810956   -0.896926
  H     11.240863    3.265396   -1.742691
  H     10.141027    2.036011   -0.992917

 Multiplicity           Mult            ....    1
 Number of Electrons    NEL             ....   18
 Basis Dimension        Dim             ....  172

ORBITAL ENERGIES
----------------

  NO   OCC          E(Eh)            E(eV)
   0   2.0000     -19.233423      -523.3681
   1   2.0000     -10.328781      -281.0604
   2   2.0000      -1.131243       -30.7827
   3   2.0000      -0.786976       -21.4147
   4   2.0000      -0.603317       -16.4171
   5   2.0000      -0.539016       -14.6674
   6   2.0000      -0.511901       -13.9295
   7   2.0000      -0.443389       -12.0652
   8   2.0000      -0.373927       -10.1751
   9   0.0000       0.083643         2.2761
  10   0.0000       0.124840         3.3971
  11   0.0000       0.142765         3.8848
  12   0.0000       0.162995         4.4353
  13   0.0000       0.189168         5.1475

MULLIKEN ATOMIC CHARGES
-----------------------
   0 C :    0.003143
   1 O :    0.000068
   2 H :   -0.000046
   3 H :   -0.012919
   4 H :   -0.000210
   5 H :   -0.000427
   6 C :   -0.194128
   7 O :   -0.459015
   8 H :    0.315878
   9 H :    0.113472
  10 H :    0.125285
  11 H :    0.108899
Sum of atomic charges:    0.0000000

LOEWDIN ATOMIC CHARGES
----------------------
   0 C :   -0.002993
   1 O :   -0.000021
   2 H :   -0.000039
   3 H :   -0.009404
   4 H :   -0.000197
   5 H :   -0.000037
   6 C :   -0.375372
   7 O :   -0.094536
   8 H :    0.164316
   9 H :    0.107005
  10 H :    0.106065
  11 H :    0.105214

  Mayer bond orders larger than 0.1
B(  6-C ,  7-O ) :   0.9984 B(  6-C ,  9-H ) :   0.9793 B(  6-C , 10-H ) :   0.9685
B(  6-C , 11-H ) :   0.9728 B(  7-O ,  8-H ) :   0.9029

Dispersion correction           -0.000268129
FINAL SINGLE POINT ENERGY      -115.729209636355

DIPOLE MOMENT
-------------
                                X             Y             Z
Electronic contribution:      0.99559       0.46910       1.52229
Nuclear contribution   :     -1.40710      -1.06895      -1.68341
                        -----------------------------------------
Total Dipole Moment    :     -0.41152      -0.59986      -0.16113
                        -----------------------------------------
Magnitude (a.u.)       :      0.74507
Magnitude (Debye)      :      1.89383

Rotational constants in cm-1:     4.029192     0.792973     0.766975
Rotational constants in MHz : 120792.125392 23772.742021 22993.322219

                             ****ORCA TERMINATED NORMALLY****
TOTAL RUN TIME: 0 days 0 hours 1 minutes 2 seconds 782 msec
