                         Program Version 4.1.2  - RELEASE  -
|  1> #Run DFT-D3 single point of the dimer
|  2> ! wB97X-D3 def2-TZVP TIGHTSCF CHELPG PMODEL PAL8
|  3>
|  4> %base "6-14_DFT_AB"
|  5>
|  6> %scf
|  7> MaxIter 1000
|  8> end
|  9>
| 10> * xyz 0 1
| 11>   C                      10.093888            -10.923622           -4.878112
| 12>   O                      8.854168             -11.523886           -5.213173
| 13>   H                      8.103930             -11.097083           -4.746784
| 14>   H                      10.121338            -10.612979           -3.867320
| 15>   H                      11.027255            -11.597783           -4.983063
| 16>   H                      10.219092            -10.001707           -5.424086
| 17>   C                      10.987422            -7.505309            -9.133615
| 18>   O                      10.624197            -8.281575            -10.266911
| 19>   H                      10.715524            -9.213659            -9.945010
| 20>   H                      11.051339            -6.415280            -9.396442
| 21>   H                      10.373128            -7.488285            -8.213703
| 22>   H                      11.962032            -7.770334            -8.809676
| 23> *
| 24>
| 25> #Run DFT-D3 single point of the molecule with dimer basis set
| 26> $new_job
| 27> %base "6-14_DFT_A"
| 28> ! wB97X-D3 def2-TZVP TIGHTSCF CHELPG PMODEL
| 29>
| 30> %scf
| 31> MaxIter 1000
| 32> end
| 33>
| 34> * xyz 0 1
| 35>   C                      10.093888            -10.923622           -4.878112
| 36>   O                      8.854168             -11.523886           -5.213173
| 37>   H                      8.103930             -11.097083           -4.746784
| 38>   H                      10.121338            -10.612979           -3.867320
| 39>   H                      11.027255            -11.597783           -4.983063
| 40>   H                      10.219092            -10.001707           -5.424086
| 41>   C                    : 10.987422            -7.505309            -9.133615
| 42>   O                    : 10.624197            -8.281575            -10.266911
| 43>   H                    : 10.715524            -9.213659            -9.945010
| 44>   H                    : 11.051339            -6.415280            -9.396442
| 45>   H                    : 10.373128            -7.488285            -8.213703
| 46>   H                    : 11.962032            -7.770334            -8.809676
| 47> *
| 48>
| 49> #Run DFT-D3 single point of the particle with dimer basis set
| 50> $new_job
| 51> %base "6-14_DFT_B"
| 52> ! wB97X-D3 def2-TZVP TIGHTSCF CHELPG PMODEL
| 53>
| 54> %scf
| 55> MaxIter 1000
| 56> end
| 57>
| 58> * xyz 0 1
| 59>   C                    : 10.093888            -10.923622           -4.878112
| 60>   O                    : 8.854168             -11.523886           -5.213173
| 61>   H                    : 8.103930             -11.097083           -4.746784
| 62>   H                    : 10.121338            -10.612979           -3.867320
| 63>   H                    : 11.027255            -11.597783           -4.983063
| 64>   H                    : 10.219092            -10.001707           -5.424086
| 65>   C                      10.987422            -7.505309            -9.133615
| 66>   O                      10.624197            -8.281575            -10.266911
| 67>   H                      10.715524            -9.213659            -9.945010
| 68>   H                      11.051339            -6.415280            -9.396442
| 69>   H                      10.373128            -7.488285            -8.213703
| 70>   H                      11.962032            -7.770334            -8.809676
| 71> *
| 72>
| 73>                          ****END OF INPUT****
 Total Charge           Charge          ....    0
 Multiplicity           Mult            ....    1
 Number of Electrons    NEL             ....   36
Dispersion correction           -0.000718501
FINAL SINGLE POINT ENERGY      -231.459501970331
Dispersion correction           -0.000255355
FINAL SINGLE POINT ENERGY      -115.728881323912

CARTESIAN COORDINATES (ANGSTROEM)
---------------------------------
  C     10.093888  -10.923622   -4.878112
  O      8.854168  -11.523886   -5.213173
  H      8.103930  -11.097083   -4.746784
  H     10.121338  -10.612979   -3.867320
  H     11.027255  -11.597783   -4.983063
  H     10.219092  -10.001707   -5.424086
  C     10.987422   -7.505309   -9.133615
  O     10.624197   -8.281575  -10.266911
  H     10.715524   -9.213659   -9.945010
  H     11.051339   -6.415280   -9.396442
  H     10.373128   -7.488285   -8.213703
  H     11.962032   -7.770334   -8.809676

 Multiplicity           Mult            ....    1
 Number of Electrons    NEL             ....   18
 Basis Dimension        Dim             ....  172

ORBITAL ENERGIES
----------------

  NO   OCC          E(Eh)            E(eV)
   0   2.0000     -19.239568      -523.5353
   1   2.0000     -10.314095      -280.6608
   2   2.0000      -1.133977       -30.8571
   3   2.0000      -0.793953       -21.6046
   4   2.0000      -0.609587       -16.5877
   5   2.0000      -0.540581       -14.7100
   6   2.0000      -0.520469       -14.1627
   7   2.0000      -0.437170       -11.8960
   8   2.0000      -0.376615       -10.2482
   9   0.0000       0.079551         2.1647
  10   0.0000       0.111716         3.0399
  11   0.0000       0.143842         3.9141
  12   0.0000       0.160731         4.3737
  13   0.0000       0.187318         5.0972

MULLIKEN ATOMIC CHARGES
-----------------------
   0 C :   -0.000002
   1 O :   -0.000001
   2 H :   -0.000001
   3 H :    0.000003
   4 H :   -0.000002
   5 H :   -0.000066
   6 C :   -0.179044
   7 O :   -0.462337
   8 H :    0.317282
   9 H :    0.118118
  10 H :    0.102360
  11 H :    0.103689
Sum of atomic charges:    0.0000000

LOEWDIN ATOMIC CHARGES
----------------------
   0 C :   -0.000030
   1 O :   -0.000001
   2 H :   -0.000000
   3 H :   -0.000000
   4 H :   -0.000001
   5 H :   -0.000138
   6 C :   -0.398690
   7 O :   -0.087951
   8 H :    0.189902
   9 H :    0.114808
  10 H :    0.095453
  11 H :    0.086647

  Mayer bond orders larger than 0.1
B(  6-C ,  7-O ) :   1.0092 B(  6-C ,  9-H ) :   0.9756 B(  6-C , 10-H ) :   0.9622
B(  6-C , 11-H ) :   0.9838 B(  7-O ,  8-H ) :   0.8962

Dispersion correction           -0.000258701
FINAL SINGLE POINT ENERGY      -115.730246799540

DIPOLE MOMENT
-------------
                                X             Y             Z
Electronic contribution:     -0.58403      -1.00802      -1.62302
Nuclear contribution   :      0.80278       0.73871       2.25419
                        -----------------------------------------
Total Dipole Moment    :      0.21875      -0.26930       0.63117
                        -----------------------------------------
Magnitude (a.u.)       :      0.72024
Magnitude (Debye)      :      1.83071

Rotational constants in cm-1:     4.378074     0.816129     0.781526
Rotational constants in MHz : 131251.356272 24466.929467 23429.565901

                             ****ORCA TERMINATED NORMALLY****
TOTAL RUN TIME: 0 days 0 hours 0 minutes 59 seconds 167 msec
