                         Program Version 4.1.2  - RELEASE  -
|  1> #Run DFT-D3 single point of the dimer
|  2> ! wB97X-D3 def2-TZVP TIGHTSCF  CHELPG PAL8
|  3>
|  4> %base "197_charges"
|  5>
|  6> %scf
|  7> MaxIter 1000
|  8> end
|  9> %output
| 10>   Print[ P_Mayer ] 1
| 11>   Print[ P_NatPop ] 1
| 12>   Print[ P_Hirshfeld ] 1
| 13>   Print[ P_Mulliken ] 1
| 14>   Print [ P_Loewdin ] 1
| 15> end
| 16>
| 17> * xyz 0 1
| 18>   C                      1.165597             -7.185440            -11.741140
| 19>   O                      0.859460             -8.504145            -11.184009
| 20>   H                      0.609013             -8.498024            -10.292280
| 21>   H                      1.274110             -7.373851            -12.803754
| 22>   H                      0.432952             -6.382476            -11.464724
| 23>   H                      2.171650             -6.793907            -11.504825
| 24> *
| 25>
| 26>                          ****END OF INPUT****

CARTESIAN COORDINATES (ANGSTROEM)
---------------------------------
  C      1.165597   -7.185440  -11.741140
  O      0.859460   -8.504145  -11.184009
  H      0.609013   -8.498024  -10.292280
  H      1.274110   -7.373851  -12.803754
  H      0.432952   -6.382476  -11.464724
  H      2.171650   -6.793907  -11.504825

 Total Charge           Charge          ....    0
 Multiplicity           Mult            ....    1
 Number of Electrons    NEL             ....   18
 Basis Dimension        Dim             ....   86

ORBITAL ENERGIES
----------------

  NO   OCC          E(Eh)            E(eV)
   0   2.0000     -19.226203      -523.1716
   1   2.0000     -10.322057      -280.8775
   2   2.0000      -1.125109       -30.6158
   3   2.0000      -0.802547       -21.8384
   4   2.0000      -0.609436       -16.5836
   5   2.0000      -0.536077       -14.5874
   6   2.0000      -0.513771       -13.9804
   7   2.0000      -0.434922       -11.8348
   8   2.0000      -0.374981       -10.2037
   9   0.0000       0.120212         3.2711
  10   0.0000       0.148556         4.0424
  11   0.0000       0.197881         5.3846
  12   0.0000       0.203318         5.5326
  13   0.0000       0.225671         6.1408

MULLIKEN ATOMIC CHARGES
-----------------------
   0 C :   -0.164500
   1 O :   -0.488119
   2 H :    0.308520
   3 H :    0.130485
   4 H :    0.112178
   5 H :    0.101437
Sum of atomic charges:    0.0000000

LOEWDIN ATOMIC CHARGES
----------------------
   0 C :   -0.353039
   1 O :   -0.094052
   2 H :    0.138028
   3 H :    0.110290
   4 H :    0.102567
   5 H :    0.096205

  Mayer bond orders larger than 0.1
B(  0-C ,  1-O ) :   0.9955 B(  0-C ,  3-H ) :   0.9772 B(  0-C ,  4-H ) :   0.9691
B(  0-C ,  5-H ) :   0.9681 B(  1-O ,  2-H ) :   0.9057

Dispersion correction           -0.000297202
FINAL SINGLE POINT ENERGY      -115.729577144755

DIPOLE MOMENT
-------------
                                X             Y             Z
Electronic contribution:     -0.44670      -1.64070       0.64247
Nuclear contribution   :      0.42820       2.20997      -0.30296
                        -----------------------------------------
Total Dipole Moment    :     -0.01850       0.56927       0.33951
                        -----------------------------------------
Magnitude (a.u.)       :      0.66308
Magnitude (Debye)      :      1.68542

Rotational constants in cm-1:     4.404565     0.777902     0.747657
Rotational constants in MHz : 132045.535066 23320.907368 22414.205553

                             ****ORCA TERMINATED NORMALLY****
TOTAL RUN TIME: 0 days 0 hours 0 minutes 42 seconds 144 msec
