                         Program Version 4.1.2  - RELEASE  -
|  1> #Run DFT-D3 single point of the dimer
|  2> ! wB97X-D3 def2-TZVP TIGHTSCF CHELPG PMODEL PAL8
|  3>
|  4> %base "17-205_DFT_AB"
|  5>
|  6> %scf
|  7> MaxIter 1000
|  8> end
|  9>
| 10> * xyz 0 1
| 11>   C                      -7.625825            -2.118438            6.216507
| 12>   O                      -6.382549            -1.543956            6.599083
| 13>   H                      -6.301052            -0.573742            6.507122
| 14>   H                      -7.759299            -3.193026            6.659678
| 15>   H                      -8.447343            -1.473519            6.457667
| 16>   H                      -7.672048            -2.337438            5.139044
| 17>   C                      -6.950345            -1.578505            9.915400
| 18>   O                      -5.694263            -1.556258            9.285448
| 19>   H                      -5.710257            -2.238231            8.605258
| 20>   H                      -6.901772            -0.913918            10.758104
| 21>   H                      -7.790598            -1.308341            9.307916
| 22>   H                      -7.195270            -2.597346            10.272989
| 23> *
| 24>
| 25> #Run DFT-D3 single point of the molecule with dimer basis set
| 26> $new_job
| 27> %base "17-205_DFT_A"
| 28> ! wB97X-D3 def2-TZVP TIGHTSCF CHELPG PMODEL
| 29>
| 30> %scf
| 31> MaxIter 1000
| 32> end
| 33>
| 34> * xyz 0 1
| 35>   C                      -7.625825            -2.118438            6.216507
| 36>   O                      -6.382549            -1.543956            6.599083
| 37>   H                      -6.301052            -0.573742            6.507122
| 38>   H                      -7.759299            -3.193026            6.659678
| 39>   H                      -8.447343            -1.473519            6.457667
| 40>   H                      -7.672048            -2.337438            5.139044
| 41>   C                    : -6.950345            -1.578505            9.915400
| 42>   O                    : -5.694263            -1.556258            9.285448
| 43>   H                    : -5.710257            -2.238231            8.605258
| 44>   H                    : -6.901772            -0.913918            10.758104
| 45>   H                    : -7.790598            -1.308341            9.307916
| 46>   H                    : -7.195270            -2.597346            10.272989
| 47> *
| 48>
| 49> #Run DFT-D3 single point of the particle with dimer basis set
| 50> $new_job
| 51> %base "17-205_DFT_B"
| 52> ! wB97X-D3 def2-TZVP TIGHTSCF CHELPG PMODEL
| 53>
| 54> %scf
| 55> MaxIter 1000
| 56> end
| 57>
| 58> * xyz 0 1
| 59>   C                    : -7.625825            -2.118438            6.216507
| 60>   O                    : -6.382549            -1.543956            6.599083
| 61>   H                    : -6.301052            -0.573742            6.507122
| 62>   H                    : -7.759299            -3.193026            6.659678
| 63>   H                    : -8.447343            -1.473519            6.457667
| 64>   H                    : -7.672048            -2.337438            5.139044
| 65>   C                      -6.950345            -1.578505            9.915400
| 66>   O                      -5.694263            -1.556258            9.285448
| 67>   H                      -5.710257            -2.238231            8.605258
| 68>   H                      -6.901772            -0.913918            10.758104
| 69>   H                      -7.790598            -1.308341            9.307916
| 70>   H                      -7.195270            -2.597346            10.272989
| 71> *
| 72>
| 73>                          ****END OF INPUT****
 Total Charge           Charge          ....    0
 Multiplicity           Mult            ....    1
 Number of Electrons    NEL             ....   36
Dispersion correction           -0.002252888
FINAL SINGLE POINT ENERGY      -231.468915685537
Dispersion correction           -0.000276638
FINAL SINGLE POINT ENERGY      -115.729319365806

CARTESIAN COORDINATES (ANGSTROEM)
---------------------------------
  C     -7.625825   -2.118438    6.216507
  O     -6.382549   -1.543956    6.599083
  H     -6.301052   -0.573742    6.507122
  H     -7.759299   -3.193026    6.659678
  H     -8.447343   -1.473519    6.457667
  H     -7.672048   -2.337438    5.139044
  C     -6.950345   -1.578505    9.915400
  O     -5.694263   -1.556258    9.285448
  H     -5.710257   -2.238231    8.605258
  H     -6.901772   -0.913918   10.758104
  H     -7.790598   -1.308341    9.307916
  H     -7.195270   -2.597346   10.272989

 Multiplicity           Mult            ....    1
 Number of Electrons    NEL             ....   18
 Basis Dimension        Dim             ....  172

ORBITAL ENERGIES
----------------

  NO   OCC          E(Eh)            E(eV)
   0   2.0000     -19.233424      -523.3681
   1   2.0000     -10.309395      -280.5329
   2   2.0000      -1.140327       -31.0299
   3   2.0000      -0.797752       -21.7079
   4   2.0000      -0.617132       -16.7930
   5   2.0000      -0.538659       -14.6576
   6   2.0000      -0.529665       -14.4129
   7   2.0000      -0.440299       -11.9812
   8   2.0000      -0.373752       -10.1703
   9   0.0000       0.073592         2.0025
  10   0.0000       0.135014         3.6739
  11   0.0000       0.148621         4.0442
  12   0.0000       0.163570         4.4510
  13   0.0000       0.192032         5.2255

MULLIKEN ATOMIC CHARGES
-----------------------
   0 C :   -0.000753
   1 O :   -0.006055
   2 H :   -0.002469
   3 H :   -0.000255
   4 H :   -0.000318
   5 H :   -0.000020
   6 C :   -0.164178
   7 O :   -0.461004
   8 H :    0.315174
   9 H :    0.121945
  10 H :    0.103125
  11 H :    0.094808
Sum of atomic charges:    0.0000000

LOEWDIN ATOMIC CHARGES
----------------------
   0 C :   -0.005641
   1 O :   -0.016465
   2 H :   -0.003654
   3 H :   -0.000448
   4 H :   -0.000729
   5 H :   -0.000063
   6 C :   -0.387578
   7 O :   -0.052382
   8 H :    0.174569
   9 H :    0.105627
  10 H :    0.089932
  11 H :    0.096832

  Mayer bond orders larger than 0.1
B(  6-C ,  7-O ) :   1.0081 B(  6-C ,  9-H ) :   0.9782 B(  6-C , 10-H ) :   0.9670
B(  6-C , 11-H ) :   0.9845 B(  7-O ,  8-H ) :   0.8999

Dispersion correction           -0.000233049
FINAL SINGLE POINT ENERGY      -115.736523341678

DIPOLE MOMENT
-------------
                                X             Y             Z
Electronic contribution:      1.67930       0.22307      -0.75384
Nuclear contribution   :     -2.17753      -0.65119       0.58776
                        -----------------------------------------
Total Dipole Moment    :     -0.49823      -0.42813      -0.16608
                        -----------------------------------------
Magnitude (a.u.)       :      0.67758
Magnitude (Debye)      :      1.72227

Rotational constants in cm-1:     4.371067     0.843431     0.807031
Rotational constants in MHz : 131041.280981 25285.430748 24194.187620

                             ****ORCA TERMINATED NORMALLY****
TOTAL RUN TIME: 0 days 0 hours 1 minutes 9 seconds 432 msec
