                         Program Version 4.1.2  - RELEASE  -
|  1> #Run DFT-D3 single point of the dimer
|  2> ! wB97X-D3 def2-TZVP TIGHTSCF CHELPG PMODEL PAL8
|  3>
|  4> %base "11-210_DFT_AB"
|  5>
|  6> %scf
|  7> MaxIter 1000
|  8> end
|  9>
| 10> * xyz 0 1
| 11>   C                      9.157064             9.774572             1.728110
| 12>   O                      9.164035             8.755019             2.668343
| 13>   H                      8.542077             8.981119             3.309272
| 14>   H                      8.202085             9.881156             1.210295
| 15>   H                      9.271872             10.805680            2.209505
| 16>   H                      10.024910            9.623918             1.030928
| 17>   C                      7.235443             9.089465             5.644530
| 18>   O                      7.280481             9.683275             4.368788
| 19>   H                      6.414151             9.523031             3.910607
| 20>   H                      6.394428             9.403947             6.267391
| 21>   H                      7.340276             7.952158             5.674665
| 22>   H                      8.131908             9.358944             6.263459
| 23> *
| 24>
| 25> #Run DFT-D3 single point of the molecule with dimer basis set
| 26> $new_job
| 27> %base "11-210_DFT_A"
| 28> ! wB97X-D3 def2-TZVP TIGHTSCF CHELPG PMODEL
| 29>
| 30> %scf
| 31> MaxIter 1000
| 32> end
| 33>
| 34> * xyz 0 1
| 35>   C                      9.157064             9.774572             1.728110
| 36>   O                      9.164035             8.755019             2.668343
| 37>   H                      8.542077             8.981119             3.309272
| 38>   H                      8.202085             9.881156             1.210295
| 39>   H                      9.271872             10.805680            2.209505
| 40>   H                      10.024910            9.623918             1.030928
| 41>   C                    : 7.235443             9.089465             5.644530
| 42>   O                    : 7.280481             9.683275             4.368788
| 43>   H                    : 6.414151             9.523031             3.910607
| 44>   H                    : 6.394428             9.403947             6.267391
| 45>   H                    : 7.340276             7.952158             5.674665
| 46>   H                    : 8.131908             9.358944             6.263459
| 47> *
| 48>
| 49> #Run DFT-D3 single point of the particle with dimer basis set
| 50> $new_job
| 51> %base "11-210_DFT_B"
| 52> ! wB97X-D3 def2-TZVP TIGHTSCF CHELPG PMODEL
| 53>
| 54> %scf
| 55> MaxIter 1000
| 56> end
| 57>
| 58> * xyz 0 1
| 59>   C                    : 9.157064             9.774572             1.728110
| 60>   O                    : 9.164035             8.755019             2.668343
| 61>   H                    : 8.542077             8.981119             3.309272
| 62>   H                    : 8.202085             9.881156             1.210295
| 63>   H                    : 9.271872             10.805680            2.209505
| 64>   H                    : 10.024910            9.623918             1.030928
| 65>   C                      7.235443             9.089465             5.644530
| 66>   O                      7.280481             9.683275             4.368788
| 67>   H                      6.414151             9.523031             3.910607
| 68>   H                      6.394428             9.403947             6.267391
| 69>   H                      7.340276             7.952158             5.674665
| 70>   H                      8.131908             9.358944             6.263459
| 71> *
| 72>
| 73>                          ****END OF INPUT****
 Total Charge           Charge          ....    0
 Multiplicity           Mult            ....    1
 Number of Electrons    NEL             ....   36
Dispersion correction           -0.001912205
FINAL SINGLE POINT ENERGY      -231.471418641304
Dispersion correction           -0.000230558
FINAL SINGLE POINT ENERGY      -115.732573749489

CARTESIAN COORDINATES (ANGSTROEM)
---------------------------------
  C      9.157064    9.774572    1.728110
  O      9.164035    8.755019    2.668343
  H      8.542077    8.981119    3.309272
  H      8.202085    9.881156    1.210295
  H      9.271872   10.805680    2.209505
  H     10.024910    9.623918    1.030928
  C      7.235443    9.089465    5.644530
  O      7.280481    9.683275    4.368788
  H      6.414151    9.523031    3.910607
  H      6.394428    9.403947    6.267391
  H      7.340276    7.952158    5.674665
  H      8.131908    9.358944    6.263459

 Multiplicity           Mult            ....    1
 Number of Electrons    NEL             ....   18
 Basis Dimension        Dim             ....  172

ORBITAL ENERGIES
----------------

  NO   OCC          E(Eh)            E(eV)
   0   2.0000     -19.240133      -523.5506
   1   2.0000     -10.320535      -280.8360
   2   2.0000      -1.135025       -30.8856
   3   2.0000      -0.790631       -21.5142
   4   2.0000      -0.609791       -16.5933
   5   2.0000      -0.540097       -14.6968
   6   2.0000      -0.523834       -14.2543
   7   2.0000      -0.426597       -11.6083
   8   2.0000      -0.376798       -10.2532
   9   0.0000       0.096104         2.6151
  10   0.0000       0.127018         3.4563
  11   0.0000       0.143071         3.8932
  12   0.0000       0.190259         5.1772
  13   0.0000       0.195072         5.3082

MULLIKEN ATOMIC CHARGES
-----------------------
   0 C :    0.008703
   1 O :   -0.000639
   2 H :   -0.012452
   3 H :   -0.002520
   4 H :   -0.003337
   5 H :   -0.000150
   6 C :   -0.183765
   7 O :   -0.469403
   8 H :    0.322601
   9 H :    0.116018
  10 H :    0.102747
  11 H :    0.122197
Sum of atomic charges:   -0.0000000

LOEWDIN ATOMIC CHARGES
----------------------
   0 C :   -0.008083
   1 O :   -0.009617
   2 H :   -0.057952
   3 H :   -0.000709
   4 H :   -0.001577
   5 H :   -0.000110
   6 C :   -0.410278
   7 O :   -0.017545
   8 H :    0.192830
   9 H :    0.096458
  10 H :    0.101787
  11 H :    0.114795

  Mayer bond orders larger than 0.1
B(  6-C ,  7-O ) :   0.9892 B(  6-C ,  9-H ) :   0.9688 B(  6-C , 10-H ) :   0.9719
B(  6-C , 11-H ) :   0.9745 B(  7-O ,  8-H ) :   0.8876

Dispersion correction           -0.000280043
FINAL SINGLE POINT ENERGY      -115.731996562331

DIPOLE MOMENT
-------------
                                X             Y             Z
Electronic contribution:      0.07245       0.90699      -1.77769
Nuclear contribution   :     -0.62586      -1.20645       2.00233
                        -----------------------------------------
Total Dipole Moment    :     -0.55341      -0.29946       0.22464
                        -----------------------------------------
Magnitude (a.u.)       :      0.66813
Magnitude (Debye)      :      1.69825

Rotational constants in cm-1:     4.279572     0.811079     0.788297
Rotational constants in MHz : 128298.345500 24315.527812 23632.543524

                             ****ORCA TERMINATED NORMALLY****
TOTAL RUN TIME: 0 days 0 hours 1 minutes 7 seconds 816 msec
