                         Program Version 4.1.2  - RELEASE  -
|  1> #Run DFT-D3 single point of the dimer
|  2> ! wB97X-D3 def2-TZVP TIGHTSCF CHELPG PMODEL PAL8
|  3>
|  4> %base "10-96_DFT_AB"
|  5>
|  6> %scf
|  7> MaxIter 1000
|  8> end
|  9>
| 10> * xyz 0 1
| 11>   C                      -6.546840            0.074704             9.038280
| 12>   O                      -6.336000            1.429750             8.808845
| 13>   H                      -5.428613            1.515341             8.559811
| 14>   H                      -7.109638            -0.391232            8.240486
| 15>   H                      -5.589320            -0.496312            9.039589
| 16>   H                      -7.081118            -0.070553            9.995042
| 17>   C                      -8.948701            -0.439402            5.987862
| 18>   O                      -9.115364            -0.692188            4.565162
| 19>   H                      -9.844506            -1.290664            4.538672
| 20>   H                      -9.350161            0.522866             6.290320
| 21>   H                      -9.377751            -1.276286            6.651318
| 22>   H                      -7.851956            -0.349181            6.148207
| 23> *
| 24>
| 25> #Run DFT-D3 single point of the molecule with dimer basis set
| 26> $new_job
| 27> %base "10-96_DFT_A"
| 28> ! wB97X-D3 def2-TZVP TIGHTSCF CHELPG PMODEL
| 29>
| 30> %scf
| 31> MaxIter 1000
| 32> end
| 33>
| 34> * xyz 0 1
| 35>   C                      -6.546840            0.074704             9.038280
| 36>   O                      -6.336000            1.429750             8.808845
| 37>   H                      -5.428613            1.515341             8.559811
| 38>   H                      -7.109638            -0.391232            8.240486
| 39>   H                      -5.589320            -0.496312            9.039589
| 40>   H                      -7.081118            -0.070553            9.995042
| 41>   C                    : -8.948701            -0.439402            5.987862
| 42>   O                    : -9.115364            -0.692188            4.565162
| 43>   H                    : -9.844506            -1.290664            4.538672
| 44>   H                    : -9.350161            0.522866             6.290320
| 45>   H                    : -9.377751            -1.276286            6.651318
| 46>   H                    : -7.851956            -0.349181            6.148207
| 47> *
| 48>
| 49> #Run DFT-D3 single point of the particle with dimer basis set
| 50> $new_job
| 51> %base "10-96_DFT_B"
| 52> ! wB97X-D3 def2-TZVP TIGHTSCF CHELPG PMODEL
| 53>
| 54> %scf
| 55> MaxIter 1000
| 56> end
| 57>
| 58> * xyz 0 1
| 59>   C                    : -6.546840            0.074704             9.038280
| 60>   O                    : -6.336000            1.429750             8.808845
| 61>   H                    : -5.428613            1.515341             8.559811
| 62>   H                    : -7.109638            -0.391232            8.240486
| 63>   H                    : -5.589320            -0.496312            9.039589
| 64>   H                    : -7.081118            -0.070553            9.995042
| 65>   C                      -8.948701            -0.439402            5.987862
| 66>   O                      -9.115364            -0.692188            4.565162
| 67>   H                      -9.844506            -1.290664            4.538672
| 68>   H                      -9.350161            0.522866             6.290320
| 69>   H                      -9.377751            -1.276286            6.651318
| 70>   H                      -7.851956            -0.349181            6.148207
| 71> *
| 72>
| 73>                          ****END OF INPUT****
 Total Charge           Charge          ....    0
 Multiplicity           Mult            ....    1
 Number of Electrons    NEL             ....   36
Dispersion correction           -0.001438521
FINAL SINGLE POINT ENERGY      -231.466456870878
Dispersion correction           -0.000234363
FINAL SINGLE POINT ENERGY      -115.734239944036

CARTESIAN COORDINATES (ANGSTROEM)
---------------------------------
  C     -6.546840    0.074704    9.038280
  O     -6.336000    1.429750    8.808845
  H     -5.428613    1.515341    8.559811
  H     -7.109638   -0.391232    8.240486
  H     -5.589320   -0.496312    9.039589
  H     -7.081118   -0.070553    9.995042
  C     -8.948701   -0.439402    5.987862
  O     -9.115364   -0.692188    4.565162
  H     -9.844506   -1.290664    4.538672
  H     -9.350161    0.522866    6.290320
  H     -9.377751   -1.276286    6.651318
  H     -7.851956   -0.349181    6.148207

 Multiplicity           Mult            ....    1
 Number of Electrons    NEL             ....   18
 Basis Dimension        Dim             ....  172

ORBITAL ENERGIES
----------------

  NO   OCC          E(Eh)            E(eV)
   0   2.0000     -19.231122      -523.3054
   1   2.0000     -10.323722      -280.9228
   2   2.0000      -1.131493       -30.7895
   3   2.0000      -0.791875       -21.5480
   4   2.0000      -0.603316       -16.4171
   5   2.0000      -0.535502       -14.5717
   6   2.0000      -0.518535       -14.1100
   7   2.0000      -0.443335       -12.0638
   8   2.0000      -0.375432       -10.2160
   9   0.0000       0.084670         2.3040
  10   0.0000       0.114642         3.1196
  11   0.0000       0.150772         4.1027
  12   0.0000       0.165885         4.5140
  13   0.0000       0.183765         5.0005

MULLIKEN ATOMIC CHARGES
-----------------------
   0 C :    0.004179
   1 O :   -0.000102
   2 H :   -0.000054
   3 H :   -0.007165
   4 H :   -0.000163
   5 H :   -0.000236
   6 C :   -0.184407
   7 O :   -0.463010
   8 H :    0.310501
   9 H :    0.109119
  10 H :    0.107264
  11 H :    0.124073
Sum of atomic charges:   -0.0000000

LOEWDIN ATOMIC CHARGES
----------------------
   0 C :   -0.003032
   1 O :   -0.000044
   2 H :   -0.000021
   3 H :   -0.007399
   4 H :   -0.000034
   5 H :   -0.000019
   6 C :   -0.365050
   7 O :   -0.096153
   8 H :    0.155967
   9 H :    0.094304
  10 H :    0.108589
  11 H :    0.112894

  Mayer bond orders larger than 0.1
B(  6-C ,  7-O ) :   1.0073 B(  6-C ,  9-H ) :   0.9666 B(  6-C , 10-H ) :   0.9757
B(  6-C , 11-H ) :   0.9770 B(  7-O ,  8-H ) :   0.9083

Dispersion correction           -0.000265857
FINAL SINGLE POINT ENERGY      -115.731596050501

DIPOLE MOMENT
-------------
                                X             Y             Z
Electronic contribution:     -0.18299      -0.22117      -1.84158
Nuclear contribution   :     -0.20498      -0.04923       2.39059
                        -----------------------------------------
Total Dipole Moment    :     -0.38797      -0.27040       0.54901
                        -----------------------------------------
Magnitude (a.u.)       :      0.72460
Magnitude (Debye)      :      1.84180

Rotational constants in cm-1:     4.126556     0.800113     0.763570
Rotational constants in MHz : 123711.024512 23986.795134 22891.250307

                             ****ORCA TERMINATED NORMALLY****
TOTAL RUN TIME: 0 days 0 hours 0 minutes 58 seconds 551 msec
