                         Program Version 4.1.2  - RELEASE  -
|  1> #Run DFT-D3 single point of the dimer
|  2> ! wB97X-D3 def2-TZVP TIGHTSCF CHELPG PMODEL PAL8
|  3>
|  4> %base "17-66_DFT_AB"
|  5>
|  6> %scf
|  7> MaxIter 1000
|  8> end
|  9>
| 10> * xyz 0 1
| 11>   C                      3.428928             8.666497             5.285069
| 12>   O                      4.762131             8.230754             5.347500
| 13>   H                      4.851017             7.570642             4.577961
| 14>   H                      3.003292             8.738284             4.342669
| 15>   H                      2.793504             7.932422             5.811546
| 16>   H                      3.320919             9.639837             5.807513
| 17>   C                      0.832058             9.154286             9.672728
| 18>   O                      2.258457             9.283263             9.531956
| 19>   H                      2.475014             10.214120            9.492271
| 20>   H                      0.358142             9.121555             8.682574
| 21>   H                      0.517782             8.191760             10.072256
| 22>   H                      0.342599             9.900114             10.328859
| 23> *
| 24>
| 25> #Run DFT-D3 single point of the molecule with dimer basis set
| 26> $new_job
| 27> %base "17-66_DFT_A"
| 28> ! wB97X-D3 def2-TZVP TIGHTSCF CHELPG PMODEL
| 29>
| 30> %scf
| 31> MaxIter 1000
| 32> end
| 33>
| 34> * xyz 0 1
| 35>   C                      3.428928             8.666497             5.285069
| 36>   O                      4.762131             8.230754             5.347500
| 37>   H                      4.851017             7.570642             4.577961
| 38>   H                      3.003292             8.738284             4.342669
| 39>   H                      2.793504             7.932422             5.811546
| 40>   H                      3.320919             9.639837             5.807513
| 41>   C                    : 0.832058             9.154286             9.672728
| 42>   O                    : 2.258457             9.283263             9.531956
| 43>   H                    : 2.475014             10.214120            9.492271
| 44>   H                    : 0.358142             9.121555             8.682574
| 45>   H                    : 0.517782             8.191760             10.072256
| 46>   H                    : 0.342599             9.900114             10.328859
| 47> *
| 48>
| 49> #Run DFT-D3 single point of the particle with dimer basis set
| 50> $new_job
| 51> %base "17-66_DFT_B"
| 52> ! wB97X-D3 def2-TZVP TIGHTSCF CHELPG PMODEL
| 53>
| 54> %scf
| 55> MaxIter 1000
| 56> end
| 57>
| 58> * xyz 0 1
| 59>   C                    : 3.428928             8.666497             5.285069
| 60>   O                    : 4.762131             8.230754             5.347500
| 61>   H                    : 4.851017             7.570642             4.577961
| 62>   H                    : 3.003292             8.738284             4.342669
| 63>   H                    : 2.793504             7.932422             5.811546
| 64>   H                    : 3.320919             9.639837             5.807513
| 65>   C                      0.832058             9.154286             9.672728
| 66>   O                      2.258457             9.283263             9.531956
| 67>   H                      2.475014             10.214120            9.492271
| 68>   H                      0.358142             9.121555             8.682574
| 69>   H                      0.517782             8.191760             10.072256
| 70>   H                      0.342599             9.900114             10.328859
| 71> *
| 72>
| 73>                          ****END OF INPUT****
 Total Charge           Charge          ....    0
 Multiplicity           Mult            ....    1
 Number of Electrons    NEL             ....   36
Dispersion correction           -0.000917061
FINAL SINGLE POINT ENERGY      -231.462517914256
Dispersion correction           -0.000231716
FINAL SINGLE POINT ENERGY      -115.729322905484

CARTESIAN COORDINATES (ANGSTROEM)
---------------------------------
  C      3.428928    8.666497    5.285069
  O      4.762131    8.230754    5.347500
  H      4.851017    7.570642    4.577961
  H      3.003292    8.738284    4.342669
  H      2.793504    7.932422    5.811546
  H      3.320919    9.639837    5.807513
  C      0.832058    9.154286    9.672728
  O      2.258457    9.283263    9.531956
  H      2.475014   10.214120    9.492271
  H      0.358142    9.121555    8.682574
  H      0.517782    8.191760   10.072256
  H      0.342599    9.900114   10.328859

 Multiplicity           Mult            ....    1
 Number of Electrons    NEL             ....   18
 Basis Dimension        Dim             ....  172

ORBITAL ENERGIES
----------------

  NO   OCC          E(Eh)            E(eV)
   0   2.0000     -19.232680      -523.3478
   1   2.0000     -10.316875      -280.7364
   2   2.0000      -1.130115       -30.7520
   3   2.0000      -0.798761       -21.7354
   4   2.0000      -0.606728       -16.5099
   5   2.0000      -0.537923       -14.6376
   6   2.0000      -0.525761       -14.3067
   7   2.0000      -0.433942       -11.8082
   8   2.0000      -0.375332       -10.2133
   9   0.0000       0.089851         2.4450
  10   0.0000       0.118509         3.2248
  11   0.0000       0.147398         4.0109
  12   0.0000       0.170451         4.6382
  13   0.0000       0.195542         5.3210

MULLIKEN ATOMIC CHARGES
-----------------------
   0 C :   -0.000210
   1 O :    0.000079
   2 H :   -0.000001
   3 H :   -0.000168
   4 H :   -0.000360
   5 H :   -0.001377
   6 C :   -0.175785
   7 O :   -0.473018
   8 H :    0.316304
   9 H :    0.107441
  10 H :    0.117276
  11 H :    0.109817
Sum of atomic charges:    0.0000000

LOEWDIN ATOMIC CHARGES
----------------------
   0 C :   -0.000933
   1 O :   -0.000010
   2 H :   -0.000001
   3 H :   -0.000024
   4 H :   -0.000268
   5 H :   -0.000602
   6 C :   -0.375613
   7 O :   -0.090736
   8 H :    0.165795
   9 H :    0.097721
  10 H :    0.105267
  11 H :    0.099404

  Mayer bond orders larger than 0.1
B(  6-C ,  7-O ) :   1.0025 B(  6-C ,  9-H ) :   0.9780 B(  6-C , 10-H ) :   0.9745
B(  6-C , 11-H ) :   0.9738 B(  7-O ,  8-H ) :   0.8994

Dispersion correction           -0.000272460
FINAL SINGLE POINT ENERGY      -115.733213445247

DIPOLE MOMENT
-------------
                                X             Y             Z
Electronic contribution:      1.90687       0.10210      -0.11852
Nuclear contribution   :     -2.36277       0.42353       0.16851
                        -----------------------------------------
Total Dipole Moment    :     -0.45589       0.52563       0.05000
                        -----------------------------------------
Magnitude (a.u.)       :      0.69759
Magnitude (Debye)      :      1.77313

Rotational constants in cm-1:     4.407156     0.795905     0.769887
Rotational constants in MHz : 132123.204555 23860.621990 23080.638889

                             ****ORCA TERMINATED NORMALLY****
TOTAL RUN TIME: 0 days 0 hours 1 minutes 6 seconds 939 msec
