                         Program Version 4.1.2  - RELEASE  -
|  1> #Run DFT-D3 single point of the dimer
|  2> ! wB97X-D3 def2-TZVP TIGHTSCF CHELPG PMODEL PAL8
|  3>
|  4> %base "13-127_DFT_AB"
|  5>
|  6> %scf
|  7> MaxIter 1000
|  8> end
|  9>
| 10> * xyz 0 1
| 11>   C                      7.004929             -6.565444            -6.108691
| 12>   O                      7.311226             -7.663960            -6.960760
| 13>   H                      6.495099             -8.068097            -7.257927
| 14>   H                      6.292944             -6.947194            -5.276311
| 15>   H                      7.848356             -6.265472            -5.567084
| 16>   H                      6.616340             -5.781074            -6.738117
| 17>   C                      6.086307             -8.339000            -1.950974
| 18>   O                      7.119211             -9.239033            -2.344616
| 19>   H                      7.924299             -8.996173            -1.920066
| 20>   H                      5.204355             -8.539009            -2.582275
| 21>   H                      5.796177             -8.560167            -0.931467
| 22>   H                      6.260960             -7.216122            -2.022520
| 23> *
| 24>
| 25> #Run DFT-D3 single point of the molecule with dimer basis set
| 26> $new_job
| 27> %base "13-127_DFT_A"
| 28> ! wB97X-D3 def2-TZVP TIGHTSCF CHELPG PMODEL
| 29>
| 30> %scf
| 31> MaxIter 1000
| 32> end
| 33>
| 34> * xyz 0 1
| 35>   C                      7.004929             -6.565444            -6.108691
| 36>   O                      7.311226             -7.663960            -6.960760
| 37>   H                      6.495099             -8.068097            -7.257927
| 38>   H                      6.292944             -6.947194            -5.276311
| 39>   H                      7.848356             -6.265472            -5.567084
| 40>   H                      6.616340             -5.781074            -6.738117
| 41>   C                    : 6.086307             -8.339000            -1.950974
| 42>   O                    : 7.119211             -9.239033            -2.344616
| 43>   H                    : 7.924299             -8.996173            -1.920066
| 44>   H                    : 5.204355             -8.539009            -2.582275
| 45>   H                    : 5.796177             -8.560167            -0.931467
| 46>   H                    : 6.260960             -7.216122            -2.022520
| 47> *
| 48>
| 49> #Run DFT-D3 single point of the particle with dimer basis set
| 50> $new_job
| 51> %base "13-127_DFT_B"
| 52> ! wB97X-D3 def2-TZVP TIGHTSCF CHELPG PMODEL
| 53>
| 54> %scf
| 55> MaxIter 1000
| 56> end
| 57>
| 58> * xyz 0 1
| 59>   C                    : 7.004929             -6.565444            -6.108691
| 60>   O                    : 7.311226             -7.663960            -6.960760
| 61>   H                    : 6.495099             -8.068097            -7.257927
| 62>   H                    : 6.292944             -6.947194            -5.276311
| 63>   H                    : 7.848356             -6.265472            -5.567084
| 64>   H                    : 6.616340             -5.781074            -6.738117
| 65>   C                      6.086307             -8.339000            -1.950974
| 66>   O                      7.119211             -9.239033            -2.344616
| 67>   H                      7.924299             -8.996173            -1.920066
| 68>   H                      5.204355             -8.539009            -2.582275
| 69>   H                      5.796177             -8.560167            -0.931467
| 70>   H                      6.260960             -7.216122            -2.022520
| 71> *
| 72>
| 73>                          ****END OF INPUT****
 Total Charge           Charge          ....    0
 Multiplicity           Mult            ....    1
 Number of Electrons    NEL             ....   36
Dispersion correction           -0.001106506
FINAL SINGLE POINT ENERGY      -231.464708602399
Dispersion correction           -0.000231200
FINAL SINGLE POINT ENERGY      -115.730463799678

CARTESIAN COORDINATES (ANGSTROEM)
---------------------------------
  C      7.004929   -6.565444   -6.108691
  O      7.311226   -7.663960   -6.960760
  H      6.495099   -8.068097   -7.257927
  H      6.292944   -6.947194   -5.276311
  H      7.848356   -6.265472   -5.567084
  H      6.616340   -5.781074   -6.738117
  C      6.086307   -8.339000   -1.950974
  O      7.119211   -9.239033   -2.344616
  H      7.924299   -8.996173   -1.920066
  H      5.204355   -8.539009   -2.582275
  H      5.796177   -8.560167   -0.931467
  H      6.260960   -7.216122   -2.022520

 Multiplicity           Mult            ....    1
 Number of Electrons    NEL             ....   18
 Basis Dimension        Dim             ....  172

ORBITAL ENERGIES
----------------

  NO   OCC          E(Eh)            E(eV)
   0   2.0000     -19.231129      -523.3056
   1   2.0000     -10.318540      -280.7817
   2   2.0000      -1.136880       -30.9361
   3   2.0000      -0.796430       -21.6720
   4   2.0000      -0.611680       -16.6446
   5   2.0000      -0.538940       -14.6653
   6   2.0000      -0.521331       -14.1861
   7   2.0000      -0.434613       -11.8264
   8   2.0000      -0.375935       -10.2297
   9   0.0000       0.088729         2.4144
  10   0.0000       0.121217         3.2985
  11   0.0000       0.147388         4.0106
  12   0.0000       0.168416         4.5828
  13   0.0000       0.194376         5.2892

MULLIKEN ATOMIC CHARGES
-----------------------
   0 C :   -0.001154
   1 O :    0.000112
   2 H :    0.000012
   3 H :    0.000697
   4 H :    0.000019
   5 H :    0.000024
   6 C :   -0.173305
   7 O :   -0.473996
   8 H :    0.312001
   9 H :    0.122641
  10 H :    0.109783
  11 H :    0.103164
Sum of atomic charges:    0.0000000

LOEWDIN ATOMIC CHARGES
----------------------
   0 C :   -0.000545
   1 O :   -0.000011
   2 H :   -0.000004
   3 H :   -0.000355
   4 H :   -0.000053
   5 H :   -0.000025
   6 C :   -0.385950
   7 O :   -0.073970
   8 H :    0.155421
   9 H :    0.111390
  10 H :    0.092211
  11 H :    0.101892

  Mayer bond orders larger than 0.1
B(  6-C ,  7-O ) :   0.9938 B(  6-C ,  9-H ) :   0.9746 B(  6-C , 10-H ) :   0.9779
B(  6-C , 11-H ) :   0.9660 B(  7-O ,  8-H ) :   0.9026

Dispersion correction           -0.000269809
FINAL SINGLE POINT ENERGY      -115.733940204872

DIPOLE MOMENT
-------------
                                X             Y             Z
Electronic contribution:      1.33174      -1.21402      -0.58589
Nuclear contribution   :     -1.23881       1.71629       1.01957
                        -----------------------------------------
Total Dipole Moment    :      0.09293       0.50227       0.43368
                        -----------------------------------------
Magnitude (a.u.)       :      0.67007
Magnitude (Debye)      :      1.70318

Rotational constants in cm-1:     4.339198     0.809912     0.783265
Rotational constants in MHz : 130085.888552 24280.542753 23481.708570

                             ****ORCA TERMINATED NORMALLY****
TOTAL RUN TIME: 0 days 0 hours 1 minutes 7 seconds 274 msec
