                         Program Version 4.1.2  - RELEASE  -
|  1> #Run DFT-D3 single point of the dimer
|  2> ! wB97X-D3 def2-TZVP TIGHTSCF CHELPG PMODEL PAL8
|  3>
|  4> %base "12-138_DFT_AB"
|  5>
|  6> %scf
|  7> MaxIter 1000
|  8> end
|  9>
| 10> * xyz 0 1
| 11>   C                      -10.283493           9.978408             -10.275157
| 12>   O                      -11.267189           9.607481             -11.187153
| 13>   H                      -11.688770           10.407846            -11.472604
| 14>   H                      -10.659074           10.881572            -9.761317
| 15>   H                      -10.135264           9.323717             -9.439951
| 16>   H                      -9.326250            10.102060            -10.736704
| 17>   C                      -8.907705            8.803317             -6.864882
| 18>   O                      -10.151974           9.476032             -6.676218
| 19>   H                      -10.588087           8.813658             -6.191804
| 20>   H                      -8.346268            8.624125             -5.976064
| 21>   H                      -9.002380            7.822041             -7.358662
| 22>   H                      -8.286776            9.403178             -7.537668
| 23> *
| 24>
| 25> #Run DFT-D3 single point of the molecule with dimer basis set
| 26> $new_job
| 27> %base "12-138_DFT_A"
| 28> ! wB97X-D3 def2-TZVP TIGHTSCF CHELPG PMODEL
| 29>
| 30> %scf
| 31> MaxIter 1000
| 32> end
| 33>
| 34> * xyz 0 1
| 35>   C                      -10.283493           9.978408             -10.275157
| 36>   O                      -11.267189           9.607481             -11.187153
| 37>   H                      -11.688770           10.407846            -11.472604
| 38>   H                      -10.659074           10.881572            -9.761317
| 39>   H                      -10.135264           9.323717             -9.439951
| 40>   H                      -9.326250            10.102060            -10.736704
| 41>   C                    : -8.907705            8.803317             -6.864882
| 42>   O                    : -10.151974           9.476032             -6.676218
| 43>   H                    : -10.588087           8.813658             -6.191804
| 44>   H                    : -8.346268            8.624125             -5.976064
| 45>   H                    : -9.002380            7.822041             -7.358662
| 46>   H                    : -8.286776            9.403178             -7.537668
| 47> *
| 48>
| 49> #Run DFT-D3 single point of the particle with dimer basis set
| 50> $new_job
| 51> %base "12-138_DFT_B"
| 52> ! wB97X-D3 def2-TZVP TIGHTSCF CHELPG PMODEL
| 53>
| 54> %scf
| 55> MaxIter 1000
| 56> end
| 57>
| 58> * xyz 0 1
| 59>   C                    : -10.283493           9.978408             -10.275157
| 60>   O                    : -11.267189           9.607481             -11.187153
| 61>   H                    : -11.688770           10.407846            -11.472604
| 62>   H                    : -10.659074           10.881572            -9.761317
| 63>   H                    : -10.135264           9.323717             -9.439951
| 64>   H                    : -9.326250            10.102060            -10.736704
| 65>   C                      -8.907705            8.803317             -6.864882
| 66>   O                      -10.151974           9.476032             -6.676218
| 67>   H                      -10.588087           8.813658             -6.191804
| 68>   H                      -8.346268            8.624125             -5.976064
| 69>   H                      -9.002380            7.822041             -7.358662
| 70>   H                      -8.286776            9.403178             -7.537668
| 71> *
| 72>
| 73>                          ****END OF INPUT****
 Total Charge           Charge          ....    0
 Multiplicity           Mult            ....    1
 Number of Electrons    NEL             ....   36
Dispersion correction           -0.001670344
FINAL SINGLE POINT ENERGY      -231.464793920284
Dispersion correction           -0.000224785
FINAL SINGLE POINT ENERGY      -115.730674034465

CARTESIAN COORDINATES (ANGSTROEM)
---------------------------------
  C    -10.283493    9.978408  -10.275157
  O    -11.267189    9.607481  -11.187153
  H    -11.688770   10.407846  -11.472604
  H    -10.659074   10.881572   -9.761317
  H    -10.135264    9.323717   -9.439951
  H     -9.326250   10.102060  -10.736704
  C     -8.907705    8.803317   -6.864882
  O    -10.151974    9.476032   -6.676218
  H    -10.588087    8.813658   -6.191804
  H     -8.346268    8.624125   -5.976064
  H     -9.002380    7.822041   -7.358662
  H     -8.286776    9.403178   -7.537668

 Multiplicity           Mult            ....    1
 Number of Electrons    NEL             ....   18
 Basis Dimension        Dim             ....  172

ORBITAL ENERGIES
----------------

  NO   OCC          E(Eh)            E(eV)
   0   2.0000     -19.233430      -523.3682
   1   2.0000     -10.312584      -280.6197
   2   2.0000      -1.147294       -31.2195
   3   2.0000      -0.797728       -21.7073
   4   2.0000      -0.614455       -16.7202
   5   2.0000      -0.541733       -14.7413
   6   2.0000      -0.523172       -14.2362
   7   2.0000      -0.448598       -12.2070
   8   2.0000      -0.378980       -10.3126
   9   0.0000       0.093831         2.5533
  10   0.0000       0.123319         3.3557
  11   0.0000       0.151941         4.1345
  12   0.0000       0.175260         4.7691
  13   0.0000       0.195611         5.3229

MULLIKEN ATOMIC CHARGES
-----------------------
   0 C :   -0.004096
   1 O :    0.000221
   2 H :    0.000031
   3 H :   -0.000535
   4 H :    0.005582
   5 H :   -0.000300
   6 C :   -0.204135
   7 O :   -0.450655
   8 H :    0.306184
   9 H :    0.119809
  10 H :    0.109770
  11 H :    0.118126
Sum of atomic charges:    0.0000000

LOEWDIN ATOMIC CHARGES
----------------------
   0 C :   -0.004449
   1 O :   -0.000019
   2 H :   -0.000002
   3 H :   -0.000776
   4 H :   -0.005244
   5 H :   -0.000119
   6 C :   -0.381669
   7 O :   -0.058450
   8 H :    0.152531
   9 H :    0.090131
  10 H :    0.098254
  11 H :    0.109814

  Mayer bond orders larger than 0.1
B(  6-C ,  7-O ) :   0.9947 B(  6-C ,  9-H ) :   0.9668 B(  6-C , 10-H ) :   0.9774
B(  6-C , 11-H ) :   0.9798 B(  7-O ,  8-H ) :   0.9127

Dispersion correction           -0.000226313
FINAL SINGLE POINT ENERGY      -115.732349810316

DIPOLE MOMENT
-------------
                                X             Y             Z
Electronic contribution:     -1.61673       1.03483       0.26101
Nuclear contribution   :      1.83647      -1.70656      -0.02808
                        -----------------------------------------
Total Dipole Moment    :      0.21973      -0.67173       0.23293
                        -----------------------------------------
Magnitude (a.u.)       :      0.74415
Magnitude (Debye)      :      1.89149

Rotational constants in cm-1:     4.387302     0.826819     0.794525
Rotational constants in MHz : 131528.015548 24787.417888 23819.265978

                             ****ORCA TERMINATED NORMALLY****
TOTAL RUN TIME: 0 days 0 hours 0 minutes 59 seconds 75 msec
