                         Program Version 4.1.2  - RELEASE  -
|  1> #Run DFT-D3 single point of the dimer
|  2> ! wB97X-D3 def2-TZVP TIGHTSCF CHELPG PMODEL PAL8
|  3>
|  4> %base "17-174_DFT_AB"
|  5>
|  6> %scf
|  7> MaxIter 1000
|  8> end
|  9>
| 10> * xyz 0 1
| 11>   C                      -4.390305            -7.853721            -8.340512
| 12>   O                      -3.239923            -7.533643            -7.534374
| 13>   H                      -3.454352            -6.886440            -6.874207
| 14>   H                      -4.282908            -8.754104            -8.899500
| 15>   H                      -5.215125            -8.003807            -7.642085
| 16>   H                      -4.738968            -7.005567            -9.008015
| 17>   C                      -2.539012            -5.629873            -4.086639
| 18>   O                      -3.392645            -6.306400            -4.953503
| 19>   H                      -4.115533            -5.702665            -5.142074
| 20>   H                      -2.657348            -5.959694            -3.101321
| 21>   H                      -1.519630            -5.902938            -4.379619
| 22>   H                      -2.561372            -4.506593            -4.167548
| 23> *
| 24>
| 25> #Run DFT-D3 single point of the molecule with dimer basis set
| 26> $new_job
| 27> %base "17-174_DFT_A"
| 28> ! wB97X-D3 def2-TZVP TIGHTSCF CHELPG PMODEL
| 29>
| 30> %scf
| 31> MaxIter 1000
| 32> end
| 33>
| 34> * xyz 0 1
| 35>   C                      -4.390305            -7.853721            -8.340512
| 36>   O                      -3.239923            -7.533643            -7.534374
| 37>   H                      -3.454352            -6.886440            -6.874207
| 38>   H                      -4.282908            -8.754104            -8.899500
| 39>   H                      -5.215125            -8.003807            -7.642085
| 40>   H                      -4.738968            -7.005567            -9.008015
| 41>   C                    : -2.539012            -5.629873            -4.086639
| 42>   O                    : -3.392645            -6.306400            -4.953503
| 43>   H                    : -4.115533            -5.702665            -5.142074
| 44>   H                    : -2.657348            -5.959694            -3.101321
| 45>   H                    : -1.519630            -5.902938            -4.379619
| 46>   H                    : -2.561372            -4.506593            -4.167548
| 47> *
| 48>
| 49> #Run DFT-D3 single point of the particle with dimer basis set
| 50> $new_job
| 51> %base "17-174_DFT_B"
| 52> ! wB97X-D3 def2-TZVP TIGHTSCF CHELPG PMODEL
| 53>
| 54> %scf
| 55> MaxIter 1000
| 56> end
| 57>
| 58> * xyz 0 1
| 59>   C                    : -4.390305            -7.853721            -8.340512
| 60>   O                    : -3.239923            -7.533643            -7.534374
| 61>   H                    : -3.454352            -6.886440            -6.874207
| 62>   H                    : -4.282908            -8.754104            -8.899500
| 63>   H                    : -5.215125            -8.003807            -7.642085
| 64>   H                    : -4.738968            -7.005567            -9.008015
| 65>   C                      -2.539012            -5.629873            -4.086639
| 66>   O                      -3.392645            -6.306400            -4.953503
| 67>   H                      -4.115533            -5.702665            -5.142074
| 68>   H                      -2.657348            -5.959694            -3.101321
| 69>   H                      -1.519630            -5.902938            -4.379619
| 70>   H                      -2.561372            -4.506593            -4.167548
| 71> *
| 72>
| 73>                          ****END OF INPUT****
 Total Charge           Charge          ....    0
 Multiplicity           Mult            ....    1
 Number of Electrons    NEL             ....   36
Dispersion correction           -0.001464345
FINAL SINGLE POINT ENERGY      -231.468278154597
Dispersion correction           -0.000256504
FINAL SINGLE POINT ENERGY      -115.732393852993

CARTESIAN COORDINATES (ANGSTROEM)
---------------------------------
  C     -4.390305   -7.853721   -8.340512
  O     -3.239923   -7.533643   -7.534374
  H     -3.454352   -6.886440   -6.874207
  H     -4.282908   -8.754104   -8.899500
  H     -5.215125   -8.003807   -7.642085
  H     -4.738968   -7.005567   -9.008015
  C     -2.539012   -5.629873   -4.086639
  O     -3.392645   -6.306400   -4.953503
  H     -4.115533   -5.702665   -5.142074
  H     -2.657348   -5.959694   -3.101321
  H     -1.519630   -5.902938   -4.379619
  H     -2.561372   -4.506593   -4.167548

 Multiplicity           Mult            ....    1
 Number of Electrons    NEL             ....   18
 Basis Dimension        Dim             ....  172

ORBITAL ENERGIES
----------------

  NO   OCC          E(Eh)            E(eV)
   0   2.0000     -19.231567      -523.3176
   1   2.0000     -10.308784      -280.5163
   2   2.0000      -1.145011       -31.1573
   3   2.0000      -0.796152       -21.6644
   4   2.0000      -0.613903       -16.7051
   5   2.0000      -0.551630       -15.0106
   6   2.0000      -0.526152       -14.3173
   7   2.0000      -0.433278       -11.7901
   8   2.0000      -0.374253       -10.1839
   9   0.0000       0.094155         2.5621
  10   0.0000       0.122008         3.3200
  11   0.0000       0.157253         4.2791
  12   0.0000       0.183667         4.9978
  13   0.0000       0.203522         5.5381

MULLIKEN ATOMIC CHARGES
-----------------------
   0 C :    0.002866
   1 O :    0.006200
   2 H :   -0.027054
   3 H :    0.000003
   4 H :   -0.000577
   5 H :   -0.000159
   6 C :   -0.169079
   7 O :   -0.449618
   8 H :    0.317875
   9 H :    0.108294
  10 H :    0.108851
  11 H :    0.102399
Sum of atomic charges:    0.0000000

LOEWDIN ATOMIC CHARGES
----------------------
   0 C :   -0.000871
   1 O :   -0.006682
   2 H :   -0.038018
   3 H :   -0.000012
   4 H :   -0.000197
   5 H :   -0.000017
   6 C :   -0.401014
   7 O :   -0.023288
   8 H :    0.175189
   9 H :    0.086534
  10 H :    0.105630
  11 H :    0.102747

  Mayer bond orders larger than 0.1
B(  6-C ,  7-O ) :   1.0027 B(  6-C ,  9-H ) :   0.9722 B(  6-C , 10-H ) :   0.9841
B(  6-C , 11-H ) :   0.9792 B(  7-O ,  8-H ) :   0.8974

Dispersion correction           -0.000235542
FINAL SINGLE POINT ENERGY      -115.732925701799

DIPOLE MOMENT
-------------
                                X             Y             Z
Electronic contribution:     -1.14942      -0.98942      -1.03762
Nuclear contribution   :      1.02121       1.62953       1.25396
                        -----------------------------------------
Total Dipole Moment    :     -0.12821       0.64011       0.21633
                        -----------------------------------------
Magnitude (a.u.)       :      0.68773
Magnitude (Debye)      :      1.74808

Rotational constants in cm-1:     4.322081     0.857113     0.822124
Rotational constants in MHz : 129572.727246 25695.587958 24646.671183

                             ****ORCA TERMINATED NORMALLY****
TOTAL RUN TIME: 0 days 0 hours 1 minutes 8 seconds 393 msec
