                         Program Version 4.1.2  - RELEASE  -
|  1> #Run DFT-D3 single point of the dimer
|  2> ! wB97X-D3 def2-TZVP TIGHTSCF CHELPG PMODEL PAL8
|  3>
|  4> %base "20-135_DFT_AB"
|  5>
|  6> %scf
|  7> MaxIter 1000
|  8> end
|  9>
| 10> * xyz 0 1
| 11>   C                      2.644582             -4.496149            4.921701
| 12>   O                      1.571882             -5.465876            5.016327
| 13>   H                      0.734321             -5.043278            5.354497
| 14>   H                      3.257729             -4.554362            5.857195
| 15>   H                      3.420873             -4.747145            4.172869
| 16>   H                      2.283139             -3.498105            4.678804
| 17>   C                      5.737814             -6.792202            4.012589
| 18>   O                      4.642197             -7.192453            3.223775
| 19>   H                      3.849765             -6.864474            3.676815
| 20>   H                      6.603623             -7.244640            3.633068
| 21>   H                      5.796332             -5.719068            4.113003
| 22>   H                      5.644942             -7.132266            5.028861
| 23> *
| 24>
| 25> #Run DFT-D3 single point of the molecule with dimer basis set
| 26> $new_job
| 27> %base "20-135_DFT_A"
| 28> ! wB97X-D3 def2-TZVP TIGHTSCF CHELPG PMODEL
| 29>
| 30> %scf
| 31> MaxIter 1000
| 32> end
| 33>
| 34> * xyz 0 1
| 35>   C                      2.644582             -4.496149            4.921701
| 36>   O                      1.571882             -5.465876            5.016327
| 37>   H                      0.734321             -5.043278            5.354497
| 38>   H                      3.257729             -4.554362            5.857195
| 39>   H                      3.420873             -4.747145            4.172869
| 40>   H                      2.283139             -3.498105            4.678804
| 41>   C                    : 5.737814             -6.792202            4.012589
| 42>   O                    : 4.642197             -7.192453            3.223775
| 43>   H                    : 3.849765             -6.864474            3.676815
| 44>   H                    : 6.603623             -7.244640            3.633068
| 45>   H                    : 5.796332             -5.719068            4.113003
| 46>   H                    : 5.644942             -7.132266            5.028861
| 47> *
| 48>
| 49> #Run DFT-D3 single point of the particle with dimer basis set
| 50> $new_job
| 51> %base "20-135_DFT_B"
| 52> ! wB97X-D3 def2-TZVP TIGHTSCF CHELPG PMODEL
| 53>
| 54> %scf
| 55> MaxIter 1000
| 56> end
| 57>
| 58> * xyz 0 1
| 59>   C                    : 2.644582             -4.496149            4.921701
| 60>   O                    : 1.571882             -5.465876            5.016327
| 61>   H                    : 0.734321             -5.043278            5.354497
| 62>   H                    : 3.257729             -4.554362            5.857195
| 63>   H                    : 3.420873             -4.747145            4.172869
| 64>   H                    : 2.283139             -3.498105            4.678804
| 65>   C                      5.737814             -6.792202            4.012589
| 66>   O                      4.642197             -7.192453            3.223775
| 67>   H                      3.849765             -6.864474            3.676815
| 68>   H                      6.603623             -7.244640            3.633068
| 69>   H                      5.796332             -5.719068            4.113003
| 70>   H                      5.644942             -7.132266            5.028861
| 71> *
| 72>
| 73>                          ****END OF INPUT****
 Total Charge           Charge          ....    0
 Multiplicity           Mult            ....    1
 Number of Electrons    NEL             ....   36
Dispersion correction           -0.001884347
FINAL SINGLE POINT ENERGY      -231.466867145046
Dispersion correction           -0.000278783
FINAL SINGLE POINT ENERGY      -115.729866651139

CARTESIAN COORDINATES (ANGSTROEM)
---------------------------------
  C      2.644582   -4.496149    4.921701
  O      1.571882   -5.465876    5.016327
  H      0.734321   -5.043278    5.354497
  H      3.257729   -4.554362    5.857195
  H      3.420873   -4.747145    4.172869
  H      2.283139   -3.498105    4.678804
  C      5.737814   -6.792202    4.012589
  O      4.642197   -7.192453    3.223775
  H      3.849765   -6.864474    3.676815
  H      6.603623   -7.244640    3.633068
  H      5.796332   -5.719068    4.113003
  H      5.644942   -7.132266    5.028861

 Multiplicity           Mult            ....    1
 Number of Electrons    NEL             ....   18
 Basis Dimension        Dim             ....  172

ORBITAL ENERGIES
----------------

  NO   OCC          E(Eh)            E(eV)
   0   2.0000     -19.231261      -523.3092
   1   2.0000     -10.303606      -280.3754
   2   2.0000      -1.137231       -30.9456
   3   2.0000      -0.800101       -21.7719
   4   2.0000      -0.615579       -16.7508
   5   2.0000      -0.544016       -14.8034
   6   2.0000      -0.527993       -14.3674
   7   2.0000      -0.442001       -12.0275
   8   2.0000      -0.371740       -10.1156
   9   0.0000       0.070777         1.9259
  10   0.0000       0.132342         3.6012
  11   0.0000       0.147235         4.0065
  12   0.0000       0.167239         4.5508
  13   0.0000       0.193501         5.2654

MULLIKEN ATOMIC CHARGES
-----------------------
   0 C :    0.000239
   1 O :    0.000226
   2 H :    0.000014
   3 H :   -0.000011
   4 H :   -0.005784
   5 H :   -0.000146
   6 C :   -0.163141
   7 O :   -0.470669
   8 H :    0.313898
   9 H :    0.124263
  10 H :    0.101572
  11 H :    0.099540
Sum of atomic charges:   -0.0000000

LOEWDIN ATOMIC CHARGES
----------------------
   0 C :   -0.005044
   1 O :   -0.000620
   2 H :   -0.000030
   3 H :   -0.000204
   4 H :   -0.005344
   5 H :   -0.000057
   6 C :   -0.379276
   7 O :   -0.070021
   8 H :    0.175928
   9 H :    0.100115
  10 H :    0.092575
  11 H :    0.091977

  Mayer bond orders larger than 0.1
B(  6-C ,  7-O ) :   0.9959 B(  6-C ,  9-H ) :   0.9773 B(  6-C , 10-H ) :   0.9751
B(  6-C , 11-H ) :   0.9824 B(  7-O ,  8-H ) :   0.9042

Dispersion correction           -0.000217905
FINAL SINGLE POINT ENERGY      -115.734491970712

DIPOLE MOMENT
-------------
                                X             Y             Z
Electronic contribution:     -1.23365      -0.57519      -1.19696
Nuclear contribution   :      1.17878       0.91780       1.80122
                        -----------------------------------------
Total Dipole Moment    :     -0.05487       0.34261       0.60426
                        -----------------------------------------
Magnitude (a.u.)       :      0.69680
Magnitude (Debye)      :      1.77112

Rotational constants in cm-1:     4.417733     0.848393     0.810790
Rotational constants in MHz : 132440.315968 25434.167641 24306.882139

                             ****ORCA TERMINATED NORMALLY****
TOTAL RUN TIME: 0 days 0 hours 0 minutes 56 seconds 684 msec
