                         Program Version 4.1.2  - RELEASE  -
|  1> #Run DFT-D3 single point of the dimer
|  2> ! wB97X-D3 def2-TZVP TIGHTSCF CHELPG PMODEL PAL8
|  3>
|  4> %base "21-65_DFT_AB"
|  5>
|  6> %scf
|  7> MaxIter 1000
|  8> end
|  9>
| 10> * xyz 0 1
| 11>   C                      11.474556            2.102910             -9.297509
| 12>   O                      10.307835            2.200152             -8.489772
| 13>   H                      9.766941             1.402733             -8.572671
| 14>   H                      11.357470            1.455794             -10.216754
| 15>   H                      11.682326            3.060955             -9.649247
| 16>   H                      12.259209            1.769761             -8.610688
| 17>   C                      9.733848             5.729095             -8.103224
| 18>   O                      10.155146            5.046425             -9.199890
| 19>   H                      10.460093            4.157411             -8.977608
| 20>   H                      10.485140            6.467042             -7.724578
| 21>   H                      8.799637             6.380273             -8.238862
| 22>   H                      9.482330             5.100676             -7.208801
| 23> *
| 24>
| 25> #Run DFT-D3 single point of the molecule with dimer basis set
| 26> $new_job
| 27> %base "21-65_DFT_A"
| 28> ! wB97X-D3 def2-TZVP TIGHTSCF CHELPG PMODEL
| 29>
| 30> %scf
| 31> MaxIter 1000
| 32> end
| 33>
| 34> * xyz 0 1
| 35>   C                      11.474556            2.102910             -9.297509
| 36>   O                      10.307835            2.200152             -8.489772
| 37>   H                      9.766941             1.402733             -8.572671
| 38>   H                      11.357470            1.455794             -10.216754
| 39>   H                      11.682326            3.060955             -9.649247
| 40>   H                      12.259209            1.769761             -8.610688
| 41>   C                    : 9.733848             5.729095             -8.103224
| 42>   O                    : 10.155146            5.046425             -9.199890
| 43>   H                    : 10.460093            4.157411             -8.977608
| 44>   H                    : 10.485140            6.467042             -7.724578
| 45>   H                    : 8.799637             6.380273             -8.238862
| 46>   H                    : 9.482330             5.100676             -7.208801
| 47> *
| 48>
| 49> #Run DFT-D3 single point of the particle with dimer basis set
| 50> $new_job
| 51> %base "21-65_DFT_B"
| 52> ! wB97X-D3 def2-TZVP TIGHTSCF CHELPG PMODEL
| 53>
| 54> %scf
| 55> MaxIter 1000
| 56> end
| 57>
| 58> * xyz 0 1
| 59>   C                    : 11.474556            2.102910             -9.297509
| 60>   O                    : 10.307835            2.200152             -8.489772
| 61>   H                    : 9.766941             1.402733             -8.572671
| 62>   H                    : 11.357470            1.455794             -10.216754
| 63>   H                    : 11.682326            3.060955             -9.649247
| 64>   H                    : 12.259209            1.769761             -8.610688
| 65>   C                      9.733848             5.729095             -8.103224
| 66>   O                      10.155146            5.046425             -9.199890
| 67>   H                      10.460093            4.157411             -8.977608
| 68>   H                      10.485140            6.467042             -7.724578
| 69>   H                      8.799637             6.380273             -8.238862
| 70>   H                      9.482330             5.100676             -7.208801
| 71> *
| 72>
| 73>                          ****END OF INPUT****
 Total Charge           Charge          ....    0
 Multiplicity           Mult            ....    1
 Number of Electrons    NEL             ....   36
Dispersion correction           -0.001839513
FINAL SINGLE POINT ENERGY      -231.466319506527
Dispersion correction           -0.000247817
FINAL SINGLE POINT ENERGY      -115.732169181302

CARTESIAN COORDINATES (ANGSTROEM)
---------------------------------
  C     11.474556    2.102910   -9.297509
  O     10.307835    2.200152   -8.489772
  H      9.766941    1.402733   -8.572671
  H     11.357470    1.455794  -10.216754
  H     11.682326    3.060955   -9.649247
  H     12.259209    1.769761   -8.610688
  C      9.733848    5.729095   -8.103224
  O     10.155146    5.046425   -9.199890
  H     10.460093    4.157411   -8.977608
  H     10.485140    6.467042   -7.724578
  H      8.799637    6.380273   -8.238862
  H      9.482330    5.100676   -7.208801

 Multiplicity           Mult            ....    1
 Number of Electrons    NEL             ....   18
 Basis Dimension        Dim             ....  172

ORBITAL ENERGIES
----------------

  NO   OCC          E(Eh)            E(eV)
   0   2.0000     -19.237254      -523.4723
   1   2.0000     -10.320276      -280.8290
   2   2.0000      -1.155090       -31.4316
   3   2.0000      -0.790367       -21.5070
   4   2.0000      -0.627184       -17.0665
   5   2.0000      -0.538178       -14.6446
   6   2.0000      -0.533624       -14.5206
   7   2.0000      -0.423888       -11.5346
   8   2.0000      -0.370702       -10.0873
   9   0.0000       0.070047         1.9061
  10   0.0000       0.132317         3.6005
  11   0.0000       0.156874         4.2688
  12   0.0000       0.161332         4.3901
  13   0.0000       0.191901         5.2219

MULLIKEN ATOMIC CHARGES
-----------------------
   0 C :   -0.002265
   1 O :   -0.002099
   2 H :   -0.000300
   3 H :    0.000068
   4 H :   -0.004931
   5 H :    0.000851
   6 C :   -0.173793
   7 O :   -0.450283
   8 H :    0.323642
   9 H :    0.099967
  10 H :    0.107517
  11 H :    0.101627
Sum of atomic charges:   -0.0000000

LOEWDIN ATOMIC CHARGES
----------------------
   0 C :   -0.014652
   1 O :   -0.013488
   2 H :   -0.000633
   3 H :   -0.000171
   4 H :   -0.009305
   5 H :   -0.000173
   6 C :   -0.446685
   7 O :   -0.015338
   8 H :    0.195129
   9 H :    0.096305
  10 H :    0.110590
  11 H :    0.098420

  Mayer bond orders larger than 0.1
B(  6-C ,  7-O ) :   1.0131 B(  6-C ,  9-H ) :   0.9748 B(  6-C , 10-H ) :   0.9687
B(  6-C , 11-H ) :   0.9791 B(  7-O ,  8-H ) :   0.8944

Dispersion correction           -0.000264678
FINAL SINGLE POINT ENERGY      -115.730495947099

DIPOLE MOMENT
-------------
                                X             Y             Z
Electronic contribution:      0.58750      -0.96474      -1.71848
Nuclear contribution   :     -0.54712       0.60939       2.26239
                        -----------------------------------------
Total Dipole Moment    :      0.04039      -0.35534       0.54392
                        -----------------------------------------
Magnitude (a.u.)       :      0.65096
Magnitude (Debye)      :      1.65460

Rotational constants in cm-1:     4.339106     0.855666     0.824087
Rotational constants in MHz : 130083.127542 25652.215457 24705.517079

                             ****ORCA TERMINATED NORMALLY****
TOTAL RUN TIME: 0 days 0 hours 1 minutes 5 seconds 902 msec
