                         Program Version 4.1.2  - RELEASE  -
|  1> #Run DFT-D3 single point of the dimer
|  2> ! wB97X-D3 def2-TZVP TIGHTSCF CHELPG PMODEL PAL8
|  3>
|  4> %base "14-20_DFT_AB"
|  5>
|  6> %scf
|  7> MaxIter 1000
|  8> end
|  9>
| 10> * xyz 0 1
| 11>   C                      8.629797             8.547878             8.806274
| 12>   O                      8.727650             7.489372             9.777322
| 13>   H                      8.906374             7.894992             10.650402
| 14>   H                      9.165527             9.433401             9.047837
| 15>   H                      8.882979             8.196418             7.782462
| 16>   H                      7.598564             8.894795             8.815134
| 17>   C                      4.463888             10.329483            8.452455
| 18>   O                      5.053410             11.626280            8.445353
| 19>   H                      5.107064             11.999492            9.351809
| 20>   H                      3.465351             10.341592            8.955897
| 21>   H                      4.478914             10.000706            7.463618
| 22>   H                      5.187701             9.732460             8.978266
| 23> *
| 24>
| 25> #Run DFT-D3 single point of the molecule with dimer basis set
| 26> $new_job
| 27> %base "14-20_DFT_A"
| 28> ! wB97X-D3 def2-TZVP TIGHTSCF CHELPG PMODEL
| 29>
| 30> %scf
| 31> MaxIter 1000
| 32> end
| 33>
| 34> * xyz 0 1
| 35>   C                      8.629797             8.547878             8.806274
| 36>   O                      8.727650             7.489372             9.777322
| 37>   H                      8.906374             7.894992             10.650402
| 38>   H                      9.165527             9.433401             9.047837
| 39>   H                      8.882979             8.196418             7.782462
| 40>   H                      7.598564             8.894795             8.815134
| 41>   C                    : 4.463888             10.329483            8.452455
| 42>   O                    : 5.053410             11.626280            8.445353
| 43>   H                    : 5.107064             11.999492            9.351809
| 44>   H                    : 3.465351             10.341592            8.955897
| 45>   H                    : 4.478914             10.000706            7.463618
| 46>   H                    : 5.187701             9.732460             8.978266
| 47> *
| 48>
| 49> #Run DFT-D3 single point of the particle with dimer basis set
| 50> $new_job
| 51> %base "14-20_DFT_B"
| 52> ! wB97X-D3 def2-TZVP TIGHTSCF CHELPG PMODEL
| 53>
| 54> %scf
| 55> MaxIter 1000
| 56> end
| 57>
| 58> * xyz 0 1
| 59>   C                    : 8.629797             8.547878             8.806274
| 60>   O                    : 8.727650             7.489372             9.777322
| 61>   H                    : 8.906374             7.894992             10.650402
| 62>   H                    : 9.165527             9.433401             9.047837
| 63>   H                    : 8.882979             8.196418             7.782462
| 64>   H                    : 7.598564             8.894795             8.815134
| 65>   C                      4.463888             10.329483            8.452455
| 66>   O                      5.053410             11.626280            8.445353
| 67>   H                      5.107064             11.999492            9.351809
| 68>   H                      3.465351             10.341592            8.955897
| 69>   H                      4.478914             10.000706            7.463618
| 70>   H                      5.187701             9.732460             8.978266
| 71> *
| 72>
| 73>                          ****END OF INPUT****
 Total Charge           Charge          ....    0
 Multiplicity           Mult            ....    1
 Number of Electrons    NEL             ....   36
Dispersion correction           -0.001109828
FINAL SINGLE POINT ENERGY      -231.463702433407
Dispersion correction           -0.000250532
FINAL SINGLE POINT ENERGY      -115.732287451454

CARTESIAN COORDINATES (ANGSTROEM)
---------------------------------
  C      8.629797    8.547878    8.806274
  O      8.727650    7.489372    9.777322
  H      8.906374    7.894992   10.650402
  H      9.165527    9.433401    9.047837
  H      8.882979    8.196418    7.782462
  H      7.598564    8.894795    8.815134
  C      4.463888   10.329483    8.452455
  O      5.053410   11.626280    8.445353
  H      5.107064   11.999492    9.351809
  H      3.465351   10.341592    8.955897
  H      4.478914   10.000706    7.463618
  H      5.187701    9.732460    8.978266

 Multiplicity           Mult            ....    1
 Number of Electrons    NEL             ....   18
 Basis Dimension        Dim             ....  172

ORBITAL ENERGIES
----------------

  NO   OCC          E(Eh)            E(eV)
   0   2.0000     -19.224058      -523.1132
   1   2.0000     -10.308210      -280.5007
   2   2.0000      -1.124364       -30.5955
   3   2.0000      -0.796942       -21.6859
   4   2.0000      -0.601069       -16.3559
   5   2.0000      -0.545568       -14.8456
   6   2.0000      -0.531798       -14.4710
   7   2.0000      -0.428705       -11.6657
   8   2.0000      -0.367834       -10.0093
   9   0.0000       0.086389         2.3508
  10   0.0000       0.116490         3.1699
  11   0.0000       0.157468         4.2849
  12   0.0000       0.166188         4.5222
  13   0.0000       0.190274         5.1776

MULLIKEN ATOMIC CHARGES
-----------------------
   0 C :   -0.004074
   1 O :    0.000090
   2 H :    0.000028
   3 H :    0.000083
   4 H :    0.000112
   5 H :    0.007381
   6 C :   -0.149508
   7 O :   -0.497212
   8 H :    0.314522
   9 H :    0.108743
  10 H :    0.123973
  11 H :    0.095862
Sum of atomic charges:    0.0000000

LOEWDIN ATOMIC CHARGES
----------------------
   0 C :   -0.000740
   1 O :   -0.000008
   2 H :   -0.000002
   3 H :   -0.000019
   4 H :   -0.000003
   5 H :   -0.002036
   6 C :   -0.364729
   7 O :   -0.103608
   8 H :    0.176395
   9 H :    0.101666
  10 H :    0.098723
  11 H :    0.094361

  Mayer bond orders larger than 0.1
B(  6-C ,  7-O ) :   0.9857 B(  6-C ,  9-H ) :   0.9759 B(  6-C , 10-H ) :   0.9730
B(  6-C , 11-H ) :   0.9864 B(  7-O ,  8-H ) :   0.8953

Dispersion correction           -0.000225182
FINAL SINGLE POINT ENERGY      -115.730698549541

DIPOLE MOMENT
-------------
                                X             Y             Z
Electronic contribution:      0.59710       1.49010      -0.22232
Nuclear contribution   :     -0.78595      -1.80038       0.78354
                        -----------------------------------------
Total Dipole Moment    :     -0.18885      -0.31028       0.56122
                        -----------------------------------------
Magnitude (a.u.)       :      0.66851
Magnitude (Debye)      :      1.69922

Rotational constants in cm-1:     4.238605     0.834134     0.805189
Rotational constants in MHz : 127070.169764 25006.700372 24138.960930

                             ****ORCA TERMINATED NORMALLY****
TOTAL RUN TIME: 0 days 0 hours 1 minutes 2 seconds 184 msec
