                         Program Version 4.1.2  - RELEASE  -
|  1> #Run DFT-D3 single point of the dimer
|  2> ! wB97X-D3 def2-TZVP TIGHTSCF CHELPG PMODEL PAL8
|  3>
|  4> %base "20-152_DFT_AB"
|  5>
|  6> %scf
|  7> MaxIter 1000
|  8> end
|  9>
| 10> * xyz 0 1
| 11>   C                      -4.752948            5.591868             -4.181413
| 12>   O                      -5.139830            4.777113             -3.073725
| 13>   H                      -5.629639            5.350930             -2.456730
| 14>   H                      -5.593928            6.236357             -4.410818
| 15>   H                      -3.803955            6.184682             -4.018049
| 16>   H                      -4.579629            4.990443             -5.082851
| 17>   C                      -7.108575            6.913722             -0.857616
| 18>   O                      -5.910933            6.151993             -0.758104
| 19>   H                      -6.108608            5.514156             0.021846
| 20>   H                      -8.052278            6.348833             -0.737678
| 21>   H                      -7.212517            7.592448             -0.076732
| 22>   H                      -7.252339            7.360240             -1.857203
| 23> *
| 24>
| 25> #Run DFT-D3 single point of the molecule with dimer basis set
| 26> $new_job
| 27> %base "20-152_DFT_A"
| 28> ! wB97X-D3 def2-TZVP TIGHTSCF CHELPG PMODEL
| 29>
| 30> %scf
| 31> MaxIter 1000
| 32> end
| 33>
| 34> * xyz 0 1
| 35>   C                      -4.752948            5.591868             -4.181413
| 36>   O                      -5.139830            4.777113             -3.073725
| 37>   H                      -5.629639            5.350930             -2.456730
| 38>   H                      -5.593928            6.236357             -4.410818
| 39>   H                      -3.803955            6.184682             -4.018049
| 40>   H                      -4.579629            4.990443             -5.082851
| 41>   C                    : -7.108575            6.913722             -0.857616
| 42>   O                    : -5.910933            6.151993             -0.758104
| 43>   H                    : -6.108608            5.514156             0.021846
| 44>   H                    : -8.052278            6.348833             -0.737678
| 45>   H                    : -7.212517            7.592448             -0.076732
| 46>   H                    : -7.252339            7.360240             -1.857203
| 47> *
| 48>
| 49> #Run DFT-D3 single point of the particle with dimer basis set
| 50> $new_job
| 51> %base "20-152_DFT_B"
| 52> ! wB97X-D3 def2-TZVP TIGHTSCF CHELPG PMODEL
| 53>
| 54> %scf
| 55> MaxIter 1000
| 56> end
| 57>
| 58> * xyz 0 1
| 59>   C                    : -4.752948            5.591868             -4.181413
| 60>   O                    : -5.139830            4.777113             -3.073725
| 61>   H                    : -5.629639            5.350930             -2.456730
| 62>   H                    : -5.593928            6.236357             -4.410818
| 63>   H                    : -3.803955            6.184682             -4.018049
| 64>   H                    : -4.579629            4.990443             -5.082851
| 65>   C                      -7.108575            6.913722             -0.857616
| 66>   O                      -5.910933            6.151993             -0.758104
| 67>   H                      -6.108608            5.514156             0.021846
| 68>   H                      -8.052278            6.348833             -0.737678
| 69>   H                      -7.212517            7.592448             -0.076732
| 70>   H                      -7.252339            7.360240             -1.857203
| 71> *
| 72>
| 73>                          ****END OF INPUT****
 Total Charge           Charge          ....    0
 Multiplicity           Mult            ....    1
 Number of Electrons    NEL             ....   36
Dispersion correction           -0.001766493
FINAL SINGLE POINT ENERGY      -231.466683667149
Dispersion correction           -0.000252698
FINAL SINGLE POINT ENERGY      -115.734483997874

CARTESIAN COORDINATES (ANGSTROEM)
---------------------------------
  C     -4.752948    5.591868   -4.181413
  O     -5.139830    4.777113   -3.073725
  H     -5.629639    5.350930   -2.456730
  H     -5.593928    6.236357   -4.410818
  H     -3.803955    6.184682   -4.018049
  H     -4.579629    4.990443   -5.082851
  C     -7.108575    6.913722   -0.857616
  O     -5.910933    6.151993   -0.758104
  H     -6.108608    5.514156    0.021846
  H     -8.052278    6.348833   -0.737678
  H     -7.212517    7.592448   -0.076732
  H     -7.252339    7.360240   -1.857203

 Multiplicity           Mult            ....    1
 Number of Electrons    NEL             ....   18
 Basis Dimension        Dim             ....  172

ORBITAL ENERGIES
----------------

  NO   OCC          E(Eh)            E(eV)
   0   2.0000     -19.241325      -523.5831
   1   2.0000     -10.309922      -280.5472
   2   2.0000      -1.126698       -30.6590
   3   2.0000      -0.795007       -21.6332
   4   2.0000      -0.606969       -16.5165
   5   2.0000      -0.545281       -14.8378
   6   2.0000      -0.517201       -14.0737
   7   2.0000      -0.438437       -11.9305
   8   2.0000      -0.374545       -10.1919
   9   0.0000       0.094651         2.5756
  10   0.0000       0.116503         3.1702
  11   0.0000       0.148065         4.0290
  12   0.0000       0.185131         5.0377
  13   0.0000       0.204076         5.5532

MULLIKEN ATOMIC CHARGES
-----------------------
   0 C :    0.001143
   1 O :    0.001690
   2 H :   -0.011704
   3 H :   -0.000673
   4 H :   -0.000256
   5 H :   -0.000085
   6 C :   -0.187183
   7 O :   -0.461761
   8 H :    0.317965
   9 H :    0.100115
  10 H :    0.114353
  11 H :    0.126397
Sum of atomic charges:    0.0000000

LOEWDIN ATOMIC CHARGES
----------------------
   0 C :   -0.001744
   1 O :   -0.008313
   2 H :   -0.046332
   3 H :   -0.000234
   4 H :   -0.000110
   5 H :   -0.000033
   6 C :   -0.389170
   7 O :   -0.059120
   8 H :    0.210316
   9 H :    0.097441
  10 H :    0.084299
  11 H :    0.113001

  Mayer bond orders larger than 0.1
B(  6-C ,  7-O ) :   0.9910 B(  6-C ,  9-H ) :   0.9782 B(  6-C , 10-H ) :   0.9719
B(  6-C , 11-H ) :   0.9751 B(  7-O ,  8-H ) :   0.8907

Dispersion correction           -0.000243016
FINAL SINGLE POINT ENERGY      -115.726061910470

DIPOLE MOMENT
-------------
                                X             Y             Z
Electronic contribution:      1.78520      -0.82036      -0.01069
Nuclear contribution   :     -2.39216       0.73381       0.45418
                        -----------------------------------------
Total Dipole Moment    :     -0.60696      -0.08655       0.44349
                        -----------------------------------------
Magnitude (a.u.)       :      0.75669
Magnitude (Debye)      :      1.92335

Rotational constants in cm-1:     4.319956     0.821904     0.781044
Rotational constants in MHz : 129509.021100 24640.048189 23415.116359

                             ****ORCA TERMINATED NORMALLY****
TOTAL RUN TIME: 0 days 0 hours 1 minutes 8 seconds 507 msec
