                         Program Version 4.1.2  - RELEASE  -
|  1> #Run DFT-D3 single point of the dimer
|  2> ! wB97X-D3 def2-TZVP TIGHTSCF CHELPG PMODEL PAL8
|  3>
|  4> %base "5-153_DFT_AB"
|  5>
|  6> %scf
|  7> MaxIter 1000
|  8> end
|  9>
| 10> * xyz 0 1
| 11>   C                      -9.536829            -6.807103            -2.749987
| 12>   O                      -9.730653            -8.108969            -2.178434
| 13>   H                      -9.985388            -8.595777            -2.975027
| 14>   H                      -8.560958            -6.738593            -3.254585
| 15>   H                      -10.387473           -6.501655            -3.374744
| 16>   H                      -9.584870            -6.065542            -2.040604
| 17>   C                      -7.847015            -10.797170           -4.774399
| 18>   O                      -9.056352            -10.963265           -4.130736
| 19>   H                      -9.679498            -10.343751           -4.391485
| 20>   H                      -8.014355            -10.073135           -5.561590
| 21>   H                      -7.090545            -10.423001           -4.066921
| 22>   H                      -7.466017            -11.744374           -5.103162
| 23> *
| 24>
| 25> #Run DFT-D3 single point of the molecule with dimer basis set
| 26> $new_job
| 27> %base "5-153_DFT_A"
| 28> ! wB97X-D3 def2-TZVP TIGHTSCF CHELPG PMODEL
| 29>
| 30> %scf
| 31> MaxIter 1000
| 32> end
| 33>
| 34> * xyz 0 1
| 35>   C                      -9.536829            -6.807103            -2.749987
| 36>   O                      -9.730653            -8.108969            -2.178434
| 37>   H                      -9.985388            -8.595777            -2.975027
| 38>   H                      -8.560958            -6.738593            -3.254585
| 39>   H                      -10.387473           -6.501655            -3.374744
| 40>   H                      -9.584870            -6.065542            -2.040604
| 41>   C                    : -7.847015            -10.797170           -4.774399
| 42>   O                    : -9.056352            -10.963265           -4.130736
| 43>   H                    : -9.679498            -10.343751           -4.391485
| 44>   H                    : -8.014355            -10.073135           -5.561590
| 45>   H                    : -7.090545            -10.423001           -4.066921
| 46>   H                    : -7.466017            -11.744374           -5.103162
| 47> *
| 48>
| 49> #Run DFT-D3 single point of the particle with dimer basis set
| 50> $new_job
| 51> %base "5-153_DFT_B"
| 52> ! wB97X-D3 def2-TZVP TIGHTSCF CHELPG PMODEL
| 53>
| 54> %scf
| 55> MaxIter 1000
| 56> end
| 57>
| 58> * xyz 0 1
| 59>   C                    : -9.536829            -6.807103            -2.749987
| 60>   O                    : -9.730653            -8.108969            -2.178434
| 61>   H                    : -9.985388            -8.595777            -2.975027
| 62>   H                    : -8.560958            -6.738593            -3.254585
| 63>   H                    : -10.387473           -6.501655            -3.374744
| 64>   H                    : -9.584870            -6.065542            -2.040604
| 65>   C                      -7.847015            -10.797170           -4.774399
| 66>   O                      -9.056352            -10.963265           -4.130736
| 67>   H                      -9.679498            -10.343751           -4.391485
| 68>   H                      -8.014355            -10.073135           -5.561590
| 69>   H                      -7.090545            -10.423001           -4.066921
| 70>   H                      -7.466017            -11.744374           -5.103162
| 71> *
| 72>
| 73>                          ****END OF INPUT****
 Total Charge           Charge          ....    0
 Multiplicity           Mult            ....    1
 Number of Electrons    NEL             ....   36
Dispersion correction           -0.001481784
FINAL SINGLE POINT ENERGY      -231.458722689344
Dispersion correction           -0.000228560
FINAL SINGLE POINT ENERGY      -115.729504628864

CARTESIAN COORDINATES (ANGSTROEM)
---------------------------------
  C     -9.536829   -6.807103   -2.749987
  O     -9.730653   -8.108969   -2.178434
  H     -9.985388   -8.595777   -2.975027
  H     -8.560958   -6.738593   -3.254585
  H    -10.387473   -6.501655   -3.374744
  H     -9.584870   -6.065542   -2.040604
  C     -7.847015  -10.797170   -4.774399
  O     -9.056352  -10.963265   -4.130736
  H     -9.679498  -10.343751   -4.391485
  H     -8.014355  -10.073135   -5.561590
  H     -7.090545  -10.423001   -4.066921
  H     -7.466017  -11.744374   -5.103162

 Multiplicity           Mult            ....    1
 Number of Electrons    NEL             ....   18
 Basis Dimension        Dim             ....  172

ORBITAL ENERGIES
----------------

  NO   OCC          E(Eh)            E(eV)
   0   2.0000     -19.221596      -523.0462
   1   2.0000     -10.308542      -280.5097
   2   2.0000      -1.152413       -31.3588
   3   2.0000      -0.801919       -21.8213
   4   2.0000      -0.621990       -16.9252
   5   2.0000      -0.547655       -14.9024
   6   2.0000      -0.540227       -14.7003
   7   2.0000      -0.428389       -11.6571
   8   2.0000      -0.368959       -10.0399
   9   0.0000       0.079580         2.1655
  10   0.0000       0.126335         3.4378
  11   0.0000       0.154756         4.2111
  12   0.0000       0.181154         4.9295
  13   0.0000       0.197152         5.3648

MULLIKEN ATOMIC CHARGES
-----------------------
   0 C :    0.001084
   1 O :    0.001641
   2 H :   -0.012039
   3 H :   -0.000091
   4 H :    0.000053
   5 H :   -0.000007
   6 C :   -0.142503
   7 O :   -0.464735
   8 H :    0.311727
   9 H :    0.097805
  10 H :    0.099420
  11 H :    0.107644
Sum of atomic charges:    0.0000000

LOEWDIN ATOMIC CHARGES
----------------------
   0 C :   -0.000301
   1 O :   -0.001330
   2 H :   -0.008405
   3 H :   -0.000034
   4 H :   -0.000004
   5 H :   -0.000011
   6 C :   -0.394861
   7 O :   -0.028221
   8 H :    0.140296
   9 H :    0.096244
  10 H :    0.098726
  11 H :    0.097901

  Mayer bond orders larger than 0.1
B(  6-C ,  7-O ) :   1.0089 B(  6-C ,  9-H ) :   0.9948 B(  6-C , 10-H ) :   0.9753
B(  6-C , 11-H ) :   0.9766 B(  7-O ,  8-H ) :   0.9063

Dispersion correction           -0.000222264
FINAL SINGLE POINT ENERGY      -115.731247917043

DIPOLE MOMENT
-------------
                                X             Y             Z
Electronic contribution:     -1.49436      -0.33410       0.77952
Nuclear contribution   :      1.55024       0.80541      -1.22227
                        -----------------------------------------
Total Dipole Moment    :      0.05588       0.47131      -0.44275
                        -----------------------------------------
Magnitude (a.u.)       :      0.64906
Magnitude (Debye)      :      1.64979

Rotational constants in cm-1:     4.410340     0.875282     0.838689
Rotational constants in MHz : 132218.666782 26240.295534 25143.255574

                             ****ORCA TERMINATED NORMALLY****
TOTAL RUN TIME: 0 days 0 hours 1 minutes 2 seconds 236 msec
