                         Program Version 4.1.2  - RELEASE  -
|  1> #Run DFT-D3 single point of the dimer
|  2> ! wB97X-D3 def2-TZVP TIGHTSCF CHELPG PMODEL PAL8
|  3>
|  4> %base "12-112_DFT_AB"
|  5>
|  6> %scf
|  7> MaxIter 1000
|  8> end
|  9>
| 10> * xyz 0 1
| 11>   C                      0.660958             5.234501             6.568248
| 12>   O                      1.793988             4.917370             7.403906
| 13>   H                      1.654328             3.934204             7.551554
| 14>   H                      0.805839             4.909714             5.553898
| 15>   H                      -0.204570            4.628391             6.807331
| 16>   H                      0.475641             6.293078             6.607980
| 17>   C                      -0.719860            4.547665             9.983146
| 18>   O                      -1.560078            5.348940             10.767808
| 19>   H                      -1.813774            6.001188             10.121282
| 20>   H                      -0.522874            4.892050             8.976834
| 21>   H                      0.290810             4.515127             10.514305
| 22>   H                      -1.153318            3.589730             9.933368
| 23> *
| 24>
| 25> #Run DFT-D3 single point of the molecule with dimer basis set
| 26> $new_job
| 27> %base "12-112_DFT_A"
| 28> ! wB97X-D3 def2-TZVP TIGHTSCF CHELPG PMODEL
| 29>
| 30> %scf
| 31> MaxIter 1000
| 32> end
| 33>
| 34> * xyz 0 1
| 35>   C                      0.660958             5.234501             6.568248
| 36>   O                      1.793988             4.917370             7.403906
| 37>   H                      1.654328             3.934204             7.551554
| 38>   H                      0.805839             4.909714             5.553898
| 39>   H                      -0.204570            4.628391             6.807331
| 40>   H                      0.475641             6.293078             6.607980
| 41>   C                    : -0.719860            4.547665             9.983146
| 42>   O                    : -1.560078            5.348940             10.767808
| 43>   H                    : -1.813774            6.001188             10.121282
| 44>   H                    : -0.522874            4.892050             8.976834
| 45>   H                    : 0.290810             4.515127             10.514305
| 46>   H                    : -1.153318            3.589730             9.933368
| 47> *
| 48>
| 49> #Run DFT-D3 single point of the particle with dimer basis set
| 50> $new_job
| 51> %base "12-112_DFT_B"
| 52> ! wB97X-D3 def2-TZVP TIGHTSCF CHELPG PMODEL
| 53>
| 54> %scf
| 55> MaxIter 1000
| 56> end
| 57>
| 58> * xyz 0 1
| 59>   C                    : 0.660958             5.234501             6.568248
| 60>   O                    : 1.793988             4.917370             7.403906
| 61>   H                    : 1.654328             3.934204             7.551554
| 62>   H                    : 0.805839             4.909714             5.553898
| 63>   H                    : -0.204570            4.628391             6.807331
| 64>   H                    : 0.475641             6.293078             6.607980
| 65>   C                      -0.719860            4.547665             9.983146
| 66>   O                      -1.560078            5.348940             10.767808
| 67>   H                      -1.813774            6.001188             10.121282
| 68>   H                      -0.522874            4.892050             8.976834
| 69>   H                      0.290810             4.515127             10.514305
| 70>   H                      -1.153318            3.589730             9.933368
| 71> *
| 72>
| 73>                          ****END OF INPUT****
 Total Charge           Charge          ....    0
 Multiplicity           Mult            ....    1
 Number of Electrons    NEL             ....   36
Dispersion correction           -0.001806719
FINAL SINGLE POINT ENERGY      -231.459748481548
Dispersion correction           -0.000230112
FINAL SINGLE POINT ENERGY      -115.730070282975

CARTESIAN COORDINATES (ANGSTROEM)
---------------------------------
  C      0.660958    5.234501    6.568248
  O      1.793988    4.917370    7.403906
  H      1.654328    3.934204    7.551554
  H      0.805839    4.909714    5.553898
  H     -0.204570    4.628391    6.807331
  H      0.475641    6.293078    6.607980
  C     -0.719860    4.547665    9.983146
  O     -1.560078    5.348940   10.767808
  H     -1.813774    6.001188   10.121282
  H     -0.522874    4.892050    8.976834
  H      0.290810    4.515127   10.514305
  H     -1.153318    3.589730    9.933368

 Multiplicity           Mult            ....    1
 Number of Electrons    NEL             ....   18
 Basis Dimension        Dim             ....  172

ORBITAL ENERGIES
----------------

  NO   OCC          E(Eh)            E(eV)
   0   2.0000     -19.230636      -523.2922
   1   2.0000     -10.309657      -280.5400
   2   2.0000      -1.147559       -31.2267
   3   2.0000      -0.791762       -21.5449
   4   2.0000      -0.617743       -16.8096
   5   2.0000      -0.548572       -14.9274
   6   2.0000      -0.517928       -14.0935
   7   2.0000      -0.444561       -12.0971
   8   2.0000      -0.371918       -10.1204
   9   0.0000       0.078834         2.1452
  10   0.0000       0.116931         3.1819
  11   0.0000       0.150875         4.1055
  12   0.0000       0.180172         4.9027
  13   0.0000       0.184994         5.0339

MULLIKEN ATOMIC CHARGES
-----------------------
   0 C :    0.004383
   1 O :   -0.000849
   2 H :   -0.000331
   3 H :    0.000094
   4 H :   -0.001799
   5 H :   -0.000692
   6 C :   -0.158928
   7 O :   -0.451477
   8 H :    0.313034
   9 H :    0.087029
  10 H :    0.098853
  11 H :    0.110683
Sum of atomic charges:    0.0000000

LOEWDIN ATOMIC CHARGES
----------------------
   0 C :   -0.010830
   1 O :   -0.001348
   2 H :   -0.001022
   3 H :   -0.000088
   4 H :   -0.005273
   5 H :   -0.000519
   6 C :   -0.392853
   7 O :   -0.061425
   8 H :    0.169666
   9 H :    0.100963
  10 H :    0.111010
  11 H :    0.091719

  Mayer bond orders larger than 0.1
B(  6-C ,  7-O ) :   1.0225 B(  6-C ,  9-H ) :   0.9915 B(  6-C , 10-H ) :   0.9801
B(  6-C , 11-H ) :   0.9769 B(  7-O ,  8-H ) :   0.9077

Dispersion correction           -0.000220977
FINAL SINGLE POINT ENERGY      -115.729171564734

DIPOLE MOMENT
-------------
                                X             Y             Z
Electronic contribution:     -1.17293       0.95749       1.06044
Nuclear contribution   :      1.30610      -0.83366      -1.78151
                        -----------------------------------------
Total Dipole Moment    :      0.13317       0.12383      -0.72107
                        -----------------------------------------
Magnitude (a.u.)       :      0.74364
Magnitude (Debye)      :      1.89019

Rotational constants in cm-1:     4.220118     0.855685     0.826017
Rotational constants in MHz : 126515.951358 25652.785880 24763.359537

                             ****ORCA TERMINATED NORMALLY****
TOTAL RUN TIME: 0 days 0 hours 1 minutes 11 seconds 865 msec
