                         Program Version 4.1.2  - RELEASE  -
|  1> #Run DFT-D3 single point of the dimer
|  2> ! wB97X-D3 def2-TZVP TIGHTSCF CHELPG PMODEL PAL8
|  3>
|  4> %base "17-125_DFT_AB"
|  5>
|  6> %scf
|  7> MaxIter 1000
|  8> end
|  9>
| 10> * xyz 0 1
| 11>   C                      -4.988998            9.601026             -3.583272
| 12>   O                      -3.625614            9.389035             -3.176934
| 13>   H                      -3.637029            9.435312             -2.249069
| 14>   H                      -5.701993            9.682365             -2.747060
| 15>   H                      -5.095622            10.449238            -4.301233
| 16>   H                      -5.365626            8.684799             -4.130717
| 17>   C                      -6.293331            5.922444             -6.337270
| 18>   O                      -5.239159            5.976326             -5.451876
| 19>   H                      -5.602778            6.388008             -4.641175
| 20>   H                      -5.932133            5.994813             -7.388418
| 21>   H                      -6.916755            4.990908             -6.234256
| 22>   H                      -6.929012            6.738098             -6.146326
| 23> *
| 24>
| 25> #Run DFT-D3 single point of the molecule with dimer basis set
| 26> $new_job
| 27> %base "17-125_DFT_A"
| 28> ! wB97X-D3 def2-TZVP TIGHTSCF CHELPG PMODEL
| 29>
| 30> %scf
| 31> MaxIter 1000
| 32> end
| 33>
| 34> * xyz 0 1
| 35>   C                      -4.988998            9.601026             -3.583272
| 36>   O                      -3.625614            9.389035             -3.176934
| 37>   H                      -3.637029            9.435312             -2.249069
| 38>   H                      -5.701993            9.682365             -2.747060
| 39>   H                      -5.095622            10.449238            -4.301233
| 40>   H                      -5.365626            8.684799             -4.130717
| 41>   C                    : -6.293331            5.922444             -6.337270
| 42>   O                    : -5.239159            5.976326             -5.451876
| 43>   H                    : -5.602778            6.388008             -4.641175
| 44>   H                    : -5.932133            5.994813             -7.388418
| 45>   H                    : -6.916755            4.990908             -6.234256
| 46>   H                    : -6.929012            6.738098             -6.146326
| 47> *
| 48>
| 49> #Run DFT-D3 single point of the particle with dimer basis set
| 50> $new_job
| 51> %base "17-125_DFT_B"
| 52> ! wB97X-D3 def2-TZVP TIGHTSCF CHELPG PMODEL
| 53>
| 54> %scf
| 55> MaxIter 1000
| 56> end
| 57>
| 58> * xyz 0 1
| 59>   C                    : -4.988998            9.601026             -3.583272
| 60>   O                    : -3.625614            9.389035             -3.176934
| 61>   H                    : -3.637029            9.435312             -2.249069
| 62>   H                    : -5.701993            9.682365             -2.747060
| 63>   H                    : -5.095622            10.449238            -4.301233
| 64>   H                    : -5.365626            8.684799             -4.130717
| 65>   C                      -6.293331            5.922444             -6.337270
| 66>   O                      -5.239159            5.976326             -5.451876
| 67>   H                      -5.602778            6.388008             -4.641175
| 68>   H                      -5.932133            5.994813             -7.388418
| 69>   H                      -6.916755            4.990908             -6.234256
| 70>   H                      -6.929012            6.738098             -6.146326
| 71> *
| 72>
| 73>                          ****END OF INPUT****
 Total Charge           Charge          ....    0
 Multiplicity           Mult            ....    1
 Number of Electrons    NEL             ....   36
Dispersion correction           -0.001282358
FINAL SINGLE POINT ENERGY      -231.464005476359
Dispersion correction           -0.000269140
FINAL SINGLE POINT ENERGY      -115.731811946861

CARTESIAN COORDINATES (ANGSTROEM)
---------------------------------
  C     -4.988998    9.601026   -3.583272
  O     -3.625614    9.389035   -3.176934
  H     -3.637029    9.435312   -2.249069
  H     -5.701993    9.682365   -2.747060
  H     -5.095622   10.449238   -4.301233
  H     -5.365626    8.684799   -4.130717
  C     -6.293331    5.922444   -6.337270
  O     -5.239159    5.976326   -5.451876
  H     -5.602778    6.388008   -4.641175
  H     -5.932133    5.994813   -7.388418
  H     -6.916755    4.990908   -6.234256
  H     -6.929012    6.738098   -6.146326

 Multiplicity           Mult            ....    1
 Number of Electrons    NEL             ....   18
 Basis Dimension        Dim             ....  172

ORBITAL ENERGIES
----------------

  NO   OCC          E(Eh)            E(eV)
   0   2.0000     -19.233576      -523.3722
   1   2.0000     -10.310208      -280.5550
   2   2.0000      -1.147890       -31.2357
   3   2.0000      -0.789683       -21.4884
   4   2.0000      -0.620143       -16.8750
   5   2.0000      -0.542618       -14.7654
   6   2.0000      -0.532885       -14.5005
   7   2.0000      -0.433908       -11.8072
   8   2.0000      -0.371170       -10.1001
   9   0.0000       0.077504         2.1090
  10   0.0000       0.121536         3.3072
  11   0.0000       0.154191         4.1958
  12   0.0000       0.166465         4.5297
  13   0.0000       0.191638         5.2147

MULLIKEN ATOMIC CHARGES
-----------------------
   0 C :    0.006719
   1 O :   -0.000014
   2 H :   -0.000002
   3 H :   -0.000249
   4 H :   -0.000266
   5 H :   -0.014408
   6 C :   -0.171623
   7 O :   -0.454438
   8 H :    0.319873
   9 H :    0.113345
  10 H :    0.095650
  11 H :    0.105412
Sum of atomic charges:   -0.0000000

LOEWDIN ATOMIC CHARGES
----------------------
   0 C :   -0.001402
   1 O :   -0.000020
   2 H :   -0.000002
   3 H :   -0.000019
   4 H :   -0.000013
   5 H :   -0.005311
   6 C :   -0.418117
   7 O :   -0.053579
   8 H :    0.185675
   9 H :    0.109846
  10 H :    0.097544
  11 H :    0.085397

  Mayer bond orders larger than 0.1
B(  6-C ,  7-O ) :   1.0108 B(  6-C ,  9-H ) :   0.9715 B(  6-C , 10-H ) :   0.9770
B(  6-C , 11-H ) :   0.9874 B(  7-O ,  8-H ) :   0.8956

Dispersion correction           -0.000223142
FINAL SINGLE POINT ENERGY      -115.732547994036

DIPOLE MOMENT
-------------
                                X             Y             Z
Electronic contribution:      1.52039       0.02542       1.06117
Nuclear contribution   :     -2.13744       0.24537      -0.88290
                        -----------------------------------------
Total Dipole Moment    :     -0.61705       0.27080       0.17827
                        -----------------------------------------
Magnitude (a.u.)       :      0.69703
Magnitude (Debye)      :      1.77172

Rotational constants in cm-1:     4.231406     0.869310     0.835906
Rotational constants in MHz : 126854.350037 26061.244588 25059.841440

                             ****ORCA TERMINATED NORMALLY****
TOTAL RUN TIME: 0 days 0 hours 0 minutes 59 seconds 311 msec
