                         Program Version 4.1.2  - RELEASE  -
|  1> #Run DFT-D3 single point of the dimer
|  2> ! wB97X-D3 def2-TZVP TIGHTSCF CHELPG PMODEL PAL8
|  3>
|  4> %base "14-50_DFT_AB"
|  5>
|  6> %scf
|  7> MaxIter 1000
|  8> end
|  9>
| 10> * xyz 0 1
| 11>   C                      -3.823675            4.289136             -8.766144
| 12>   O                      -4.377185            5.267155             -9.559197
| 13>   H                      -4.576584            6.000657             -8.961619
| 14>   H                      -2.831440            4.544331             -8.466993
| 15>   H                      -4.245802            4.234392             -7.782589
| 16>   H                      -3.906820            3.308003             -9.284825
| 17>   C                      -6.884273            2.759162             -10.565749
| 18>   O                      -7.233005            2.340191             -11.865965
| 19>   H                      -7.718869            3.042188             -12.262749
| 20>   H                      -6.190884            1.959772             -10.206315
| 21>   H                      -6.272609            3.739494             -10.517569
| 22>   H                      -7.605629            2.739941             -9.851805
| 23> *
| 24>
| 25> #Run DFT-D3 single point of the molecule with dimer basis set
| 26> $new_job
| 27> %base "14-50_DFT_A"
| 28> ! wB97X-D3 def2-TZVP TIGHTSCF CHELPG PMODEL
| 29>
| 30> %scf
| 31> MaxIter 1000
| 32> end
| 33>
| 34> * xyz 0 1
| 35>   C                      -3.823675            4.289136             -8.766144
| 36>   O                      -4.377185            5.267155             -9.559197
| 37>   H                      -4.576584            6.000657             -8.961619
| 38>   H                      -2.831440            4.544331             -8.466993
| 39>   H                      -4.245802            4.234392             -7.782589
| 40>   H                      -3.906820            3.308003             -9.284825
| 41>   C                    : -6.884273            2.759162             -10.565749
| 42>   O                    : -7.233005            2.340191             -11.865965
| 43>   H                    : -7.718869            3.042188             -12.262749
| 44>   H                    : -6.190884            1.959772             -10.206315
| 45>   H                    : -6.272609            3.739494             -10.517569
| 46>   H                    : -7.605629            2.739941             -9.851805
| 47> *
| 48>
| 49> #Run DFT-D3 single point of the particle with dimer basis set
| 50> $new_job
| 51> %base "14-50_DFT_B"
| 52> ! wB97X-D3 def2-TZVP TIGHTSCF CHELPG PMODEL
| 53>
| 54> %scf
| 55> MaxIter 1000
| 56> end
| 57>
| 58> * xyz 0 1
| 59>   C                    : -3.823675            4.289136             -8.766144
| 60>   O                    : -4.377185            5.267155             -9.559197
| 61>   H                    : -4.576584            6.000657             -8.961619
| 62>   H                    : -2.831440            4.544331             -8.466993
| 63>   H                    : -4.245802            4.234392             -7.782589
| 64>   H                    : -3.906820            3.308003             -9.284825
| 65>   C                      -6.884273            2.759162             -10.565749
| 66>   O                      -7.233005            2.340191             -11.865965
| 67>   H                      -7.718869            3.042188             -12.262749
| 68>   H                      -6.190884            1.959772             -10.206315
| 69>   H                      -6.272609            3.739494             -10.517569
| 70>   H                      -7.605629            2.739941             -9.851805
| 71> *
| 72>
| 73>                          ****END OF INPUT****
 Total Charge           Charge          ....    0
 Multiplicity           Mult            ....    1
 Number of Electrons    NEL             ....   36
Dispersion correction           -0.001660818
FINAL SINGLE POINT ENERGY      -231.459477469813
Dispersion correction           -0.000209828
FINAL SINGLE POINT ENERGY      -115.730273182110

CARTESIAN COORDINATES (ANGSTROEM)
---------------------------------
  C     -3.823675    4.289136   -8.766144
  O     -4.377185    5.267155   -9.559197
  H     -4.576584    6.000657   -8.961619
  H     -2.831440    4.544331   -8.466993
  H     -4.245802    4.234392   -7.782589
  H     -3.906820    3.308003   -9.284825
  C     -6.884273    2.759162  -10.565749
  O     -7.233005    2.340191  -11.865965
  H     -7.718869    3.042188  -12.262749
  H     -6.190884    1.959772  -10.206315
  H     -6.272609    3.739494  -10.517569
  H     -7.605629    2.739941   -9.851805

 Multiplicity           Mult            ....    1
 Number of Electrons    NEL             ....   18
 Basis Dimension        Dim             ....  172

ORBITAL ENERGIES
----------------

  NO   OCC          E(Eh)            E(eV)
   0   2.0000     -19.232863      -523.3528
   1   2.0000     -10.312077      -280.6059
   2   2.0000      -1.143547       -31.1175
   3   2.0000      -0.800208       -21.7748
   4   2.0000      -0.616134       -16.7659
   5   2.0000      -0.546963       -14.8836
   6   2.0000      -0.520422       -14.1614
   7   2.0000      -0.430319       -11.7096
   8   2.0000      -0.380260       -10.3474
   9   0.0000       0.083102         2.2613
  10   0.0000       0.120049         3.2667
  11   0.0000       0.156519         4.2591
  12   0.0000       0.160777         4.3750
  13   0.0000       0.188449         5.1280

MULLIKEN ATOMIC CHARGES
-----------------------
   0 C :   -0.001356
   1 O :    0.000929
   2 H :   -0.000076
   3 H :   -0.000177
   4 H :    0.000111
   5 H :   -0.001916
   6 C :   -0.169044
   7 O :   -0.461795
   8 H :    0.310548
   9 H :    0.116725
  10 H :    0.094777
  11 H :    0.111272
Sum of atomic charges:   -0.0000000

LOEWDIN ATOMIC CHARGES
----------------------
   0 C :   -0.005765
   1 O :   -0.004119
   2 H :   -0.000432
   3 H :   -0.000086
   4 H :   -0.000127
   5 H :   -0.002813
   6 C :   -0.390593
   7 O :   -0.057115
   8 H :    0.156528
   9 H :    0.118488
  10 H :    0.111724
  11 H :    0.074310

  Mayer bond orders larger than 0.1
B(  6-C ,  7-O ) :   1.0085 B(  6-C ,  9-H ) :   0.9787 B(  6-C , 10-H ) :   0.9771
B(  6-C , 11-H ) :   0.9643 B(  7-O ,  8-H ) :   0.9049

Dispersion correction           -0.000256023
FINAL SINGLE POINT ENERGY      -115.727252439856

DIPOLE MOMENT
-------------
                                X             Y             Z
Electronic contribution:     -0.64092      -0.57011      -1.69681
Nuclear contribution   :      0.44521       1.14649       1.95502
                        -----------------------------------------
Total Dipole Moment    :     -0.19570       0.57638       0.25821
                        -----------------------------------------
Magnitude (a.u.)       :      0.66121
Magnitude (Debye)      :      1.68065

Rotational constants in cm-1:     4.380121     0.831454     0.801224
Rotational constants in MHz : 131312.732311 24926.357550 24020.097894

                             ****ORCA TERMINATED NORMALLY****
TOTAL RUN TIME: 0 days 0 hours 1 minutes 2 seconds 125 msec
