                         Program Version 4.1.2  - RELEASE  -
|  1> #Run DFT-D3 single point of the dimer
|  2> ! wB97X-D3 def2-TZVP TIGHTSCF CHELPG PMODEL PAL8
|  3>
|  4> %base "11-179_DFT_AB"
|  5>
|  6> %scf
|  7> MaxIter 1000
|  8> end
|  9>
| 10> * xyz 0 1
| 11>   C                      10.141218            -4.670858            -0.826136
| 12>   O                      9.963728             -3.332241            -0.613879
| 13>   H                      10.744658            -3.148241            -0.039724
| 14>   H                      10.405545            -5.269680            0.082664
| 15>   H                      9.238099             -5.122347            -1.263982
| 16>   H                      10.917957            -4.849520            -1.561856
| 17>   C                      10.563372            -5.654747            3.505832
| 18>   O                      11.111717            -4.404740            3.040707
| 19>   H                      10.361361            -3.905842            2.783787
| 20>   H                      9.791847             -5.538091            4.269721
| 21>   H                      10.130539            -6.235199            2.589249
| 22>   H                      11.338688            -6.200359            3.990725
| 23> *
| 24>
| 25> #Run DFT-D3 single point of the molecule with dimer basis set
| 26> $new_job
| 27> %base "11-179_DFT_A"
| 28> ! wB97X-D3 def2-TZVP TIGHTSCF CHELPG PMODEL
| 29>
| 30> %scf
| 31> MaxIter 1000
| 32> end
| 33>
| 34> * xyz 0 1
| 35>   C                      10.141218            -4.670858            -0.826136
| 36>   O                      9.963728             -3.332241            -0.613879
| 37>   H                      10.744658            -3.148241            -0.039724
| 38>   H                      10.405545            -5.269680            0.082664
| 39>   H                      9.238099             -5.122347            -1.263982
| 40>   H                      10.917957            -4.849520            -1.561856
| 41>   C                    : 10.563372            -5.654747            3.505832
| 42>   O                    : 11.111717            -4.404740            3.040707
| 43>   H                    : 10.361361            -3.905842            2.783787
| 44>   H                    : 9.791847             -5.538091            4.269721
| 45>   H                    : 10.130539            -6.235199            2.589249
| 46>   H                    : 11.338688            -6.200359            3.990725
| 47> *
| 48>
| 49> #Run DFT-D3 single point of the particle with dimer basis set
| 50> $new_job
| 51> %base "11-179_DFT_B"
| 52> ! wB97X-D3 def2-TZVP TIGHTSCF CHELPG PMODEL
| 53>
| 54> %scf
| 55> MaxIter 1000
| 56> end
| 57>
| 58> * xyz 0 1
| 59>   C                    : 10.141218            -4.670858            -0.826136
| 60>   O                    : 9.963728             -3.332241            -0.613879
| 61>   H                    : 10.744658            -3.148241            -0.039724
| 62>   H                    : 10.405545            -5.269680            0.082664
| 63>   H                    : 9.238099             -5.122347            -1.263982
| 64>   H                    : 10.917957            -4.849520            -1.561856
| 65>   C                      10.563372            -5.654747            3.505832
| 66>   O                      11.111717            -4.404740            3.040707
| 67>   H                      10.361361            -3.905842            2.783787
| 68>   H                      9.791847             -5.538091            4.269721
| 69>   H                      10.130539            -6.235199            2.589249
| 70>   H                      11.338688            -6.200359            3.990725
| 71> *
| 72>
| 73>                          ****END OF INPUT****
 Total Charge           Charge          ....    0
 Multiplicity           Mult            ....    1
 Number of Electrons    NEL             ....   36
Dispersion correction           -0.001595253
FINAL SINGLE POINT ENERGY      -231.466847390834
Dispersion correction           -0.000212073
FINAL SINGLE POINT ENERGY      -115.731550546602

CARTESIAN COORDINATES (ANGSTROEM)
---------------------------------
  C     10.141218   -4.670858   -0.826136
  O      9.963728   -3.332241   -0.613879
  H     10.744658   -3.148241   -0.039724
  H     10.405545   -5.269680    0.082664
  H      9.238099   -5.122347   -1.263982
  H     10.917957   -4.849520   -1.561856
  C     10.563372   -5.654747    3.505832
  O     11.111717   -4.404740    3.040707
  H     10.361361   -3.905842    2.783787
  H      9.791847   -5.538091    4.269721
  H     10.130539   -6.235199    2.589249
  H     11.338688   -6.200359    3.990725

 Multiplicity           Mult            ....    1
 Number of Electrons    NEL             ....   18
 Basis Dimension        Dim             ....  172

ORBITAL ENERGIES
----------------

  NO   OCC          E(Eh)            E(eV)
   0   2.0000     -19.230696      -523.2938
   1   2.0000     -10.320388      -280.8320
   2   2.0000      -1.136193       -30.9174
   3   2.0000      -0.795463       -21.6456
   4   2.0000      -0.606518       -16.5042
   5   2.0000      -0.539250       -14.6737
   6   2.0000      -0.522635       -14.2216
   7   2.0000      -0.442375       -12.0376
   8   2.0000      -0.375812       -10.2264
   9   0.0000       0.084394         2.2965
  10   0.0000       0.128641         3.5005
  11   0.0000       0.144933         3.9438
  12   0.0000       0.178707         4.8629
  13   0.0000       0.190260         5.1772

MULLIKEN ATOMIC CHARGES
-----------------------
   0 C :    0.000863
   1 O :    0.000100
   2 H :   -0.002269
   3 H :   -0.002135
   4 H :    0.000010
   5 H :   -0.000190
   6 C :   -0.181407
   7 O :   -0.462727
   8 H :    0.310615
   9 H :    0.111404
  10 H :    0.098245
  11 H :    0.127492
Sum of atomic charges:    0.0000000

LOEWDIN ATOMIC CHARGES
----------------------
   0 C :   -0.001925
   1 O :   -0.000224
   2 H :   -0.001827
   3 H :   -0.002512
   4 H :   -0.000013
   5 H :   -0.000017
   6 C :   -0.368609
   7 O :   -0.080706
   8 H :    0.152164
   9 H :    0.093971
  10 H :    0.108202
  11 H :    0.101498

  Mayer bond orders larger than 0.1
B(  6-C ,  7-O ) :   1.0012 B(  6-C ,  9-H ) :   0.9744 B(  6-C , 10-H ) :   0.9726
B(  6-C , 11-H ) :   0.9750 B(  7-O ,  8-H ) :   0.9072

Dispersion correction           -0.000246596
FINAL SINGLE POINT ENERGY      -115.732441864459

DIPOLE MOMENT
-------------
                                X             Y             Z
Electronic contribution:      0.86630       1.55063      -0.47613
Nuclear contribution   :     -1.54066      -1.72684       0.54856
                        -----------------------------------------
Total Dipole Moment    :     -0.67437      -0.17621       0.07242
                        -----------------------------------------
Magnitude (a.u.)       :      0.70076
Magnitude (Debye)      :      1.78119

Rotational constants in cm-1:     4.169374     0.805552     0.784539
Rotational constants in MHz : 124994.694179 24149.843598 23519.892975

                             ****ORCA TERMINATED NORMALLY****
TOTAL RUN TIME: 0 days 0 hours 1 minutes 13 seconds 733 msec
