                         Program Version 4.1.2  - RELEASE  -
|  1> #Run DFT-D3 single point of the dimer
|  2> ! wB97X-D3 def2-TZVP TIGHTSCF CHELPG PMODEL PAL8
|  3>
|  4> %base "13-49_DFT_AB"
|  5>
|  6> %scf
|  7> MaxIter 1000
|  8> end
|  9>
| 10> * xyz 0 1
| 11>   C                      8.962663             8.231957             5.425827
| 12>   O                      9.949730             9.224172             5.452284
| 13>   H                      10.724420            8.779643             5.024574
| 14>   H                      9.107767             7.617741             6.368248
| 15>   H                      7.926964             8.624352             5.397204
| 16>   H                      9.010763             7.567590             4.507931
| 17>   C                      6.942733             11.035395            8.574752
| 18>   O                      5.920651             11.516664            9.437476
| 19>   H                      6.441431             11.905259            10.167572
| 20>   H                      6.583836             10.860585            7.507474
| 21>   H                      7.749479             11.740050            8.490882
| 22>   H                      7.358332             10.120044            8.896667
| 23> *
| 24>
| 25> #Run DFT-D3 single point of the molecule with dimer basis set
| 26> $new_job
| 27> %base "13-49_DFT_A"
| 28> ! wB97X-D3 def2-TZVP TIGHTSCF CHELPG PMODEL
| 29>
| 30> %scf
| 31> MaxIter 1000
| 32> end
| 33>
| 34> * xyz 0 1
| 35>   C                      8.962663             8.231957             5.425827
| 36>   O                      9.949730             9.224172             5.452284
| 37>   H                      10.724420            8.779643             5.024574
| 38>   H                      9.107767             7.617741             6.368248
| 39>   H                      7.926964             8.624352             5.397204
| 40>   H                      9.010763             7.567590             4.507931
| 41>   C                    : 6.942733             11.035395            8.574752
| 42>   O                    : 5.920651             11.516664            9.437476
| 43>   H                    : 6.441431             11.905259            10.167572
| 44>   H                    : 6.583836             10.860585            7.507474
| 45>   H                    : 7.749479             11.740050            8.490882
| 46>   H                    : 7.358332             10.120044            8.896667
| 47> *
| 48>
| 49> #Run DFT-D3 single point of the particle with dimer basis set
| 50> $new_job
| 51> %base "13-49_DFT_B"
| 52> ! wB97X-D3 def2-TZVP TIGHTSCF CHELPG PMODEL
| 53>
| 54> %scf
| 55> MaxIter 1000
| 56> end
| 57>
| 58> * xyz 0 1
| 59>   C                    : 8.962663             8.231957             5.425827
| 60>   O                    : 9.949730             9.224172             5.452284
| 61>   H                    : 10.724420            8.779643             5.024574
| 62>   H                    : 9.107767             7.617741             6.368248
| 63>   H                    : 7.926964             8.624352             5.397204
| 64>   H                    : 9.010763             7.567590             4.507931
| 65>   C                      6.942733             11.035395            8.574752
| 66>   O                      5.920651             11.516664            9.437476
| 67>   H                      6.441431             11.905259            10.167572
| 68>   H                      6.583836             10.860585            7.507474
| 69>   H                      7.749479             11.740050            8.490882
| 70>   H                      7.358332             10.120044            8.896667
| 71> *
| 72>
| 73>                          ****END OF INPUT****
 Total Charge           Charge          ....    0
 Multiplicity           Mult            ....    1
 Number of Electrons    NEL             ....   36
Dispersion correction           -0.000948000
FINAL SINGLE POINT ENERGY      -231.463433707633
Dispersion correction           -0.000239272
FINAL SINGLE POINT ENERGY      -115.730607489322

CARTESIAN COORDINATES (ANGSTROEM)
---------------------------------
  C      8.962663    8.231957    5.425827
  O      9.949730    9.224172    5.452284
  H     10.724420    8.779643    5.024574
  H      9.107767    7.617741    6.368248
  H      7.926964    8.624352    5.397204
  H      9.010763    7.567590    4.507931
  C      6.942733   11.035395    8.574752
  O      5.920651   11.516664    9.437476
  H      6.441431   11.905259   10.167572
  H      6.583836   10.860585    7.507474
  H      7.749479   11.740050    8.490882
  H      7.358332   10.120044    8.896667

 Multiplicity           Mult            ....    1
 Number of Electrons    NEL             ....   18
 Basis Dimension        Dim             ....  172

ORBITAL ENERGIES
----------------

  NO   OCC          E(Eh)            E(eV)
   0   2.0000     -19.234897      -523.4081
   1   2.0000     -10.312322      -280.6125
   2   2.0000      -1.135454       -30.8973
   3   2.0000      -0.794205       -21.6114
   4   2.0000      -0.608701       -16.5636
   5   2.0000      -0.545617       -14.8470
   6   2.0000      -0.522725       -14.2241
   7   2.0000      -0.437398       -11.9022
   8   2.0000      -0.376188       -10.2366
   9   0.0000       0.081471         2.2169
  10   0.0000       0.112932         3.0730
  11   0.0000       0.142048         3.8653
  12   0.0000       0.167929         4.5696
  13   0.0000       0.181176         4.9301

MULLIKEN ATOMIC CHARGES
-----------------------
   0 C :    0.000434
   1 O :   -0.000023
   2 H :   -0.000001
   3 H :   -0.000096
   4 H :   -0.000462
   5 H :   -0.000001
   6 C :   -0.169685
   7 O :   -0.465532
   8 H :    0.316313
   9 H :    0.112958
  10 H :    0.103366
  11 H :    0.102729
Sum of atomic charges:    0.0000000

LOEWDIN ATOMIC CHARGES
----------------------
   0 C :   -0.000262
   1 O :   -0.000011
   2 H :   -0.000001
   3 H :   -0.000057
   4 H :   -0.000320
   5 H :   -0.000004
   6 C :   -0.386373
   7 O :   -0.087930
   8 H :    0.183186
   9 H :    0.116085
  10 H :    0.090689
  11 H :    0.084997

  Mayer bond orders larger than 0.1
B(  6-C ,  7-O ) :   1.0043 B(  6-C ,  9-H ) :   0.9734 B(  6-C , 10-H ) :   0.9838
B(  6-C , 11-H ) :   0.9742 B(  7-O ,  8-H ) :   0.8988

Dispersion correction           -0.000232811
FINAL SINGLE POINT ENERGY      -115.731895854242

DIPOLE MOMENT
-------------
                                X             Y             Z
Electronic contribution:     -1.46794       0.55648       1.09946
Nuclear contribution   :      2.20442      -0.50122      -0.98428
                        -----------------------------------------
Total Dipole Moment    :      0.73648       0.05526       0.11518
                        -----------------------------------------
Magnitude (a.u.)       :      0.74748
Magnitude (Debye)      :      1.89993

Rotational constants in cm-1:     4.319792     0.826893     0.791077
Rotational constants in MHz : 129504.101009 24789.631913 23715.878605

                             ****ORCA TERMINATED NORMALLY****
TOTAL RUN TIME: 0 days 0 hours 1 minutes 7 seconds 553 msec
