                         Program Version 4.1.2  - RELEASE  -
|  1> #Run DFT-D3 single point of the dimer
|  2> ! wB97X-D3 def2-TZVP TIGHTSCF CHELPG PMODEL PAL8
|  3>
|  4> %base "8-47_DFT_AB"
|  5>
|  6> %scf
|  7> MaxIter 1000
|  8> end
|  9>
| 10> * xyz 0 1
| 11>   C                      8.552612             -7.935893            10.071047
| 12>   O                      7.574977             -7.005132            9.555671
| 13>   H                      7.250363             -7.410425            8.741800
| 14>   H                      8.886957             -7.615184            11.078115
| 15>   H                      8.107898             -8.926959            10.312213
| 16>   H                      9.505592             -8.028052            9.544466
| 17>   C                      4.453299             -7.891015            7.200770
| 18>   O                      5.806999             -8.137532            7.399808
| 19>   H                      6.220994             -8.641215            6.728034
| 20>   H                      4.042633             -8.647299            6.533391
| 21>   H                      3.871545             -7.952245            8.090356
| 22>   H                      4.242423             -6.909423            6.841852
| 23> *
| 24>
| 25> #Run DFT-D3 single point of the molecule with dimer basis set
| 26> $new_job
| 27> %base "8-47_DFT_A"
| 28> ! wB97X-D3 def2-TZVP TIGHTSCF CHELPG PMODEL
| 29>
| 30> %scf
| 31> MaxIter 1000
| 32> end
| 33>
| 34> * xyz 0 1
| 35>   C                      8.552612             -7.935893            10.071047
| 36>   O                      7.574977             -7.005132            9.555671
| 37>   H                      7.250363             -7.410425            8.741800
| 38>   H                      8.886957             -7.615184            11.078115
| 39>   H                      8.107898             -8.926959            10.312213
| 40>   H                      9.505592             -8.028052            9.544466
| 41>   C                    : 4.453299             -7.891015            7.200770
| 42>   O                    : 5.806999             -8.137532            7.399808
| 43>   H                    : 6.220994             -8.641215            6.728034
| 44>   H                    : 4.042633             -8.647299            6.533391
| 45>   H                    : 3.871545             -7.952245            8.090356
| 46>   H                    : 4.242423             -6.909423            6.841852
| 47> *
| 48>
| 49> #Run DFT-D3 single point of the particle with dimer basis set
| 50> $new_job
| 51> %base "8-47_DFT_B"
| 52> ! wB97X-D3 def2-TZVP TIGHTSCF CHELPG PMODEL
| 53>
| 54> %scf
| 55> MaxIter 1000
| 56> end
| 57>
| 58> * xyz 0 1
| 59>   C                    : 8.552612             -7.935893            10.071047
| 60>   O                    : 7.574977             -7.005132            9.555671
| 61>   H                    : 7.250363             -7.410425            8.741800
| 62>   H                    : 8.886957             -7.615184            11.078115
| 63>   H                    : 8.107898             -8.926959            10.312213
| 64>   H                    : 9.505592             -8.028052            9.544466
| 65>   C                      4.453299             -7.891015            7.200770
| 66>   O                      5.806999             -8.137532            7.399808
| 67>   H                      6.220994             -8.641215            6.728034
| 68>   H                      4.042633             -8.647299            6.533391
| 69>   H                      3.871545             -7.952245            8.090356
| 70>   H                      4.242423             -6.909423            6.841852
| 71> *
| 72>
| 73>                          ****END OF INPUT****
 Total Charge           Charge          ....    0
 Multiplicity           Mult            ....    1
 Number of Electrons    NEL             ....   36
Dispersion correction           -0.001466155
FINAL SINGLE POINT ENERGY      -231.471397404156
Dispersion correction           -0.000277159
FINAL SINGLE POINT ENERGY      -115.732531808216

CARTESIAN COORDINATES (ANGSTROEM)
---------------------------------
  C      8.552612   -7.935893   10.071047
  O      7.574977   -7.005132    9.555671
  H      7.250363   -7.410425    8.741800
  H      8.886957   -7.615184   11.078115
  H      8.107898   -8.926959   10.312213
  H      9.505592   -8.028052    9.544466
  C      4.453299   -7.891015    7.200770
  O      5.806999   -8.137532    7.399808
  H      6.220994   -8.641215    6.728034
  H      4.042633   -8.647299    6.533391
  H      3.871545   -7.952245    8.090356
  H      4.242423   -6.909423    6.841852

 Multiplicity           Mult            ....    1
 Number of Electrons    NEL             ....   18
 Basis Dimension        Dim             ....  172

ORBITAL ENERGIES
----------------

  NO   OCC          E(Eh)            E(eV)
   0   2.0000     -19.225383      -523.1493
   1   2.0000     -10.305230      -280.4196
   2   2.0000      -1.143303       -31.1108
   3   2.0000      -0.806384       -21.9428
   4   2.0000      -0.620680       -16.8895
   5   2.0000      -0.547863       -14.9081
   6   2.0000      -0.537460       -14.6250
   7   2.0000      -0.422343       -11.4925
   8   2.0000      -0.373531       -10.1643
   9   0.0000       0.099342         2.7032
  10   0.0000       0.123058         3.3486
  11   0.0000       0.155805         4.2397
  12   0.0000       0.191415         5.2087
  13   0.0000       0.206881         5.6295

MULLIKEN ATOMIC CHARGES
-----------------------
   0 C :    0.000354
   1 O :   -0.000425
   2 H :   -0.008850
   3 H :   -0.000100
   4 H :   -0.000879
   5 H :   -0.000079
   6 C :   -0.138859
   7 O :   -0.480830
   8 H :    0.319007
   9 H :    0.097905
  10 H :    0.112977
  11 H :    0.099779
Sum of atomic charges:    0.0000000

LOEWDIN ATOMIC CHARGES
----------------------
   0 C :   -0.001510
   1 O :   -0.003896
   2 H :   -0.032427
   3 H :   -0.000020
   4 H :   -0.000338
   5 H :   -0.000012
   6 C :   -0.387351
   7 O :   -0.018881
   8 H :    0.155569
   9 H :    0.099110
  10 H :    0.099061
  11 H :    0.090695

  Mayer bond orders larger than 0.1
B(  6-C ,  7-O ) :   1.0022 B(  6-C ,  9-H ) :   0.9837 B(  6-C , 10-H ) :   0.9768
B(  6-C , 11-H ) :   0.9783 B(  7-O ,  8-H ) :   0.8959

Dispersion correction           -0.000242651
FINAL SINGLE POINT ENERGY      -115.732150494018

DIPOLE MOMENT
-------------
                                X             Y             Z
Electronic contribution:      1.77158      -0.23628       0.33834
Nuclear contribution   :     -2.06389      -0.02033      -0.87102
                        -----------------------------------------
Total Dipole Moment    :     -0.29231      -0.25661      -0.53268
                        -----------------------------------------
Magnitude (a.u.)       :      0.65958
Magnitude (Debye)      :      1.67651

Rotational constants in cm-1:     4.653472     0.846541     0.817027
Rotational constants in MHz : 139507.587148 25378.667193 24493.852294

                             ****ORCA TERMINATED NORMALLY****
TOTAL RUN TIME: 0 days 0 hours 0 minutes 47 seconds 784 msec
