                         Program Version 4.1.2  - RELEASE  -
|  1> #Run DFT-D3 single point of the dimer
|  2> ! wB97X-D3 def2-TZVP TIGHTSCF CHELPG PMODEL PAL8
|  3>
|  4> %base "6-176_DFT_AB"
|  5>
|  6> %scf
|  7> MaxIter 1000
|  8> end
|  9>
| 10> * xyz 0 1
| 11>   C                      -3.913443            -10.367593           -0.619006
| 12>   O                      -3.032838            -11.467707           -0.763594
| 13>   H                      -2.533344            -11.548166           0.061452
| 14>   H                      -4.537743            -10.150779           -1.524708
| 15>   H                      -4.580331            -10.547433           0.262675
| 16>   H                      -3.330481            -9.510521            -0.349726
| 17>   C                      0.130955             -9.208030            3.128895
| 18>   O                      0.174308             -10.236061           2.176447
| 19>   H                      -0.337885            -9.974085            1.430465
| 20>   H                      -0.823173            -9.135374            3.648930
| 21>   H                      0.932135             -9.241934            3.863399
| 22>   H                      0.147473             -8.218368            2.634271
| 23> *
| 24>
| 25> #Run DFT-D3 single point of the molecule with dimer basis set
| 26> $new_job
| 27> %base "6-176_DFT_A"
| 28> ! wB97X-D3 def2-TZVP TIGHTSCF CHELPG PMODEL
| 29>
| 30> %scf
| 31> MaxIter 1000
| 32> end
| 33>
| 34> * xyz 0 1
| 35>   C                      -3.913443            -10.367593           -0.619006
| 36>   O                      -3.032838            -11.467707           -0.763594
| 37>   H                      -2.533344            -11.548166           0.061452
| 38>   H                      -4.537743            -10.150779           -1.524708
| 39>   H                      -4.580331            -10.547433           0.262675
| 40>   H                      -3.330481            -9.510521            -0.349726
| 41>   C                    : 0.130955             -9.208030            3.128895
| 42>   O                    : 0.174308             -10.236061           2.176447
| 43>   H                    : -0.337885            -9.974085            1.430465
| 44>   H                    : -0.823173            -9.135374            3.648930
| 45>   H                    : 0.932135             -9.241934            3.863399
| 46>   H                    : 0.147473             -8.218368            2.634271
| 47> *
| 48>
| 49> #Run DFT-D3 single point of the particle with dimer basis set
| 50> $new_job
| 51> %base "6-176_DFT_B"
| 52> ! wB97X-D3 def2-TZVP TIGHTSCF CHELPG PMODEL
| 53>
| 54> %scf
| 55> MaxIter 1000
| 56> end
| 57>
| 58> * xyz 0 1
| 59>   C                    : -3.913443            -10.367593           -0.619006
| 60>   O                    : -3.032838            -11.467707           -0.763594
| 61>   H                    : -2.533344            -11.548166           0.061452
| 62>   H                    : -4.537743            -10.150779           -1.524708
| 63>   H                    : -4.580331            -10.547433           0.262675
| 64>   H                    : -3.330481            -9.510521            -0.349726
| 65>   C                      0.130955             -9.208030            3.128895
| 66>   O                      0.174308             -10.236061           2.176447
| 67>   H                      -0.337885            -9.974085            1.430465
| 68>   H                      -0.823173            -9.135374            3.648930
| 69>   H                      0.932135             -9.241934            3.863399
| 70>   H                      0.147473             -8.218368            2.634271
| 71> *
| 72>
| 73>                          ****END OF INPUT****
 Total Charge           Charge          ....    0
 Multiplicity           Mult            ....    1
 Number of Electrons    NEL             ....   36
Dispersion correction           -0.000948041
FINAL SINGLE POINT ENERGY      -231.466844300202
Dispersion correction           -0.000227806
FINAL SINGLE POINT ENERGY      -115.733118790893

CARTESIAN COORDINATES (ANGSTROEM)
---------------------------------
  C     -3.913443  -10.367593   -0.619006
  O     -3.032838  -11.467707   -0.763594
  H     -2.533344  -11.548166    0.061452
  H     -4.537743  -10.150779   -1.524708
  H     -4.580331  -10.547433    0.262675
  H     -3.330481   -9.510521   -0.349726
  C      0.130955   -9.208030    3.128895
  O      0.174308  -10.236061    2.176447
  H     -0.337885   -9.974085    1.430465
  H     -0.823173   -9.135374    3.648930
  H      0.932135   -9.241934    3.863399
  H      0.147473   -8.218368    2.634271

 Multiplicity           Mult            ....    1
 Number of Electrons    NEL             ....   18
 Basis Dimension        Dim             ....  172

ORBITAL ENERGIES
----------------

  NO   OCC          E(Eh)            E(eV)
   0   2.0000     -19.230445      -523.2870
   1   2.0000     -10.312852      -280.6270
   2   2.0000      -1.144301       -31.1380
   3   2.0000      -0.798322       -21.7234
   4   2.0000      -0.620459       -16.8835
   5   2.0000      -0.537808       -14.6345
   6   2.0000      -0.531841       -14.4721
   7   2.0000      -0.436660       -11.8821
   8   2.0000      -0.371175       -10.1002
   9   0.0000       0.075047         2.0421
  10   0.0000       0.121590         3.3086
  11   0.0000       0.148762         4.0480
  12   0.0000       0.175184         4.7670
  13   0.0000       0.192865         5.2481

MULLIKEN ATOMIC CHARGES
-----------------------
   0 C :    0.000201
   1 O :    0.000229
   2 H :   -0.001684
   3 H :   -0.000018
   4 H :    0.000010
   5 H :   -0.000334
   6 C :   -0.169158
   7 O :   -0.463821
   8 H :    0.316257
   9 H :    0.099012
  10 H :    0.122645
  11 H :    0.096662
Sum of atomic charges:    0.0000000

LOEWDIN ATOMIC CHARGES
----------------------
   0 C :   -0.000168
   1 O :   -0.000036
   2 H :   -0.001061
   3 H :   -0.000004
   4 H :   -0.000002
   5 H :   -0.000180
   6 C :   -0.395587
   7 O :   -0.057467
   8 H :    0.159965
   9 H :    0.091957
  10 H :    0.105882
  11 H :    0.096702

  Mayer bond orders larger than 0.1
B(  6-C ,  7-O ) :   1.0053 B(  6-C ,  9-H ) :   0.9705 B(  6-C , 10-H ) :   0.9728
B(  6-C , 11-H ) :   0.9872 B(  7-O ,  8-H ) :   0.8997

Dispersion correction           -0.000237023
FINAL SINGLE POINT ENERGY      -115.733658423797

DIPOLE MOMENT
-------------
                                X             Y             Z
Electronic contribution:      0.23303      -1.54904      -1.12162
Nuclear contribution   :     -0.57703       2.13373       1.00836
                        -----------------------------------------
Total Dipole Moment    :     -0.34400       0.58469      -0.11326
                        -----------------------------------------
Magnitude (a.u.)       :      0.68777
Magnitude (Debye)      :      1.74817

Rotational constants in cm-1:     4.426213     0.840012     0.802121
Rotational constants in MHz : 132694.524207 25182.938958 24046.992346

                             ****ORCA TERMINATED NORMALLY****
TOTAL RUN TIME: 0 days 0 hours 1 minutes 0 seconds 119 msec
