                         Program Version 4.1.2  - RELEASE  -
|  1> #Run DFT-D3 single point of the dimer
|  2> ! wB97X-D3 def2-TZVP TIGHTSCF CHELPG PMODEL PAL8
|  3>
|  4> %base "10-152_DFT_AB"
|  5>
|  6> %scf
|  7> MaxIter 1000
|  8> end
|  9>
| 10> * xyz 0 1
| 11>   C                      -10.989222           3.808334             -7.931437
| 12>   O                      -9.782302            3.994247             -7.267544
| 13>   H                      -9.708580            4.826893             -6.820281
| 14>   H                      -11.861090           3.568606             -7.270567
| 15>   H                      -11.310584           4.696313             -8.406424
| 16>   H                      -10.949270           3.047277             -8.714089
| 17>   C                      -8.361043            1.058468             -6.906396
| 18>   O                      -9.492160            1.326144             -6.168459
| 19>   H                      -9.849423            2.166295             -6.511082
| 20>   H                      -7.803364            0.157782             -6.442815
| 21>   H                      -8.639304            0.758687             -7.941751
| 22>   H                      -7.696354            1.944430             -6.972373
| 23> *
| 24>
| 25> #Run DFT-D3 single point of the molecule with dimer basis set
| 26> $new_job
| 27> %base "10-152_DFT_A"
| 28> ! wB97X-D3 def2-TZVP TIGHTSCF CHELPG PMODEL
| 29>
| 30> %scf
| 31> MaxIter 1000
| 32> end
| 33>
| 34> * xyz 0 1
| 35>   C                      -10.989222           3.808334             -7.931437
| 36>   O                      -9.782302            3.994247             -7.267544
| 37>   H                      -9.708580            4.826893             -6.820281
| 38>   H                      -11.861090           3.568606             -7.270567
| 39>   H                      -11.310584           4.696313             -8.406424
| 40>   H                      -10.949270           3.047277             -8.714089
| 41>   C                    : -8.361043            1.058468             -6.906396
| 42>   O                    : -9.492160            1.326144             -6.168459
| 43>   H                    : -9.849423            2.166295             -6.511082
| 44>   H                    : -7.803364            0.157782             -6.442815
| 45>   H                    : -8.639304            0.758687             -7.941751
| 46>   H                    : -7.696354            1.944430             -6.972373
| 47> *
| 48>
| 49> #Run DFT-D3 single point of the particle with dimer basis set
| 50> $new_job
| 51> %base "10-152_DFT_B"
| 52> ! wB97X-D3 def2-TZVP TIGHTSCF CHELPG PMODEL
| 53>
| 54> %scf
| 55> MaxIter 1000
| 56> end
| 57>
| 58> * xyz 0 1
| 59>   C                    : -10.989222           3.808334             -7.931437
| 60>   O                    : -9.782302            3.994247             -7.267544
| 61>   H                    : -9.708580            4.826893             -6.820281
| 62>   H                    : -11.861090           3.568606             -7.270567
| 63>   H                    : -11.310584           4.696313             -8.406424
| 64>   H                    : -10.949270           3.047277             -8.714089
| 65>   C                      -8.361043            1.058468             -6.906396
| 66>   O                      -9.492160            1.326144             -6.168459
| 67>   H                      -9.849423            2.166295             -6.511082
| 68>   H                      -7.803364            0.157782             -6.442815
| 69>   H                      -8.639304            0.758687             -7.941751
| 70>   H                      -7.696354            1.944430             -6.972373
| 71> *
| 72>
| 73>                          ****END OF INPUT****
 Total Charge           Charge          ....    0
 Multiplicity           Mult            ....    1
 Number of Electrons    NEL             ....   36
Dispersion correction           -0.002094022
FINAL SINGLE POINT ENERGY      -231.473560258809
Dispersion correction           -0.000251157
FINAL SINGLE POINT ENERGY      -115.733010422154

CARTESIAN COORDINATES (ANGSTROEM)
---------------------------------
  C    -10.989222    3.808334   -7.931437
  O     -9.782302    3.994247   -7.267544
  H     -9.708580    4.826893   -6.820281
  H    -11.861090    3.568606   -7.270567
  H    -11.310584    4.696313   -8.406424
  H    -10.949270    3.047277   -8.714089
  C     -8.361043    1.058468   -6.906396
  O     -9.492160    1.326144   -6.168459
  H     -9.849423    2.166295   -6.511082
  H     -7.803364    0.157782   -6.442815
  H     -8.639304    0.758687   -7.941751
  H     -7.696354    1.944430   -6.972373

 Multiplicity           Mult            ....    1
 Number of Electrons    NEL             ....   18
 Basis Dimension        Dim             ....  172

ORBITAL ENERGIES
----------------

  NO   OCC          E(Eh)            E(eV)
   0   2.0000     -19.233710      -523.3758
   1   2.0000     -10.320496      -280.8350
   2   2.0000      -1.148563       -31.2540
   3   2.0000      -0.783991       -21.3335
   4   2.0000      -0.616401       -16.7731
   5   2.0000      -0.544065       -14.8048
   6   2.0000      -0.527081       -14.3426
   7   2.0000      -0.430978       -11.7275
   8   2.0000      -0.370421       -10.0797
   9   0.0000       0.065729         1.7886
  10   0.0000       0.135302         3.6818
  11   0.0000       0.148359         4.0371
  12   0.0000       0.159590         4.3427
  13   0.0000       0.194133         5.2826

MULLIKEN ATOMIC CHARGES
-----------------------
   0 C :   -0.005802
   1 O :   -0.004435
   2 H :   -0.000513
   3 H :    0.000591
   4 H :   -0.000458
   5 H :    0.000309
   6 C :   -0.162345
   7 O :   -0.455449
   8 H :    0.316800
   9 H :    0.117630
  10 H :    0.093361
  11 H :    0.100312
Sum of atomic charges:   -0.0000000

LOEWDIN ATOMIC CHARGES
----------------------
   0 C :   -0.012506
   1 O :   -0.016293
   2 H :   -0.000918
   3 H :   -0.000942
   4 H :   -0.000258
   5 H :   -0.000935
   6 C :   -0.425111
   7 O :   -0.043168
   8 H :    0.192108
   9 H :    0.119528
  10 H :    0.093625
  11 H :    0.094870

  Mayer bond orders larger than 0.1
B(  6-C ,  7-O ) :   0.9911 B(  6-C ,  9-H ) :   0.9721 B(  6-C , 10-H ) :   0.9748
B(  6-C , 11-H ) :   0.9782 B(  7-O ,  8-H ) :   0.9059

Dispersion correction           -0.000226821
FINAL SINGLE POINT ENERGY      -115.733450301698

DIPOLE MOMENT
-------------
                                X             Y             Z
Electronic contribution:     -1.48153       0.27353       1.10429
Nuclear contribution   :      1.66497       0.15067      -1.57598
                        -----------------------------------------
Total Dipole Moment    :      0.18344       0.42420      -0.47168
                        -----------------------------------------
Magnitude (a.u.)       :      0.66037
Magnitude (Debye)      :      1.67852

Rotational constants in cm-1:     4.042163     0.868472     0.828361
Rotational constants in MHz : 121180.988011 26036.146732 24833.623807

                             ****ORCA TERMINATED NORMALLY****
TOTAL RUN TIME: 0 days 0 hours 1 minutes 6 seconds 495 msec
