                         Program Version 4.1.2  - RELEASE  -
|  1> #Run DFT-D3 single point of the dimer
|  2> ! wB97X-D3 def2-TZVP TIGHTSCF CHELPG PMODEL PAL8
|  3>
|  4> %base "6-142_DFT_AB"
|  5>
|  6> %scf
|  7> MaxIter 1000
|  8> end
|  9>
| 10> * xyz 0 1
| 11>   C                      -4.761511            4.033597             0.644561
| 12>   O                      -5.840978            3.433233             0.049642
| 13>   H                      -5.492849            2.523633             0.104784
| 14>   H                      -3.783085            3.629081             0.423102
| 15>   H                      -4.640133            5.102742             0.387107
| 16>   H                      -4.887416            4.115966             1.738798
| 17>   C                      -4.879796            -0.509376            1.260039
| 18>   O                      -5.387422            0.817447             1.362583
| 19>   H                      -5.858975            0.885262             2.199319
| 20>   H                      -4.683871            -0.840258            0.265881
| 21>   H                      -3.955907            -0.558190            1.810354
| 22>   H                      -5.515917            -1.299171            1.741369
| 23> *
| 24>
| 25> #Run DFT-D3 single point of the molecule with dimer basis set
| 26> $new_job
| 27> %base "6-142_DFT_A"
| 28> ! wB97X-D3 def2-TZVP TIGHTSCF CHELPG PMODEL
| 29>
| 30> %scf
| 31> MaxIter 1000
| 32> end
| 33>
| 34> * xyz 0 1
| 35>   C                      -4.761511            4.033597             0.644561
| 36>   O                      -5.840978            3.433233             0.049642
| 37>   H                      -5.492849            2.523633             0.104784
| 38>   H                      -3.783085            3.629081             0.423102
| 39>   H                      -4.640133            5.102742             0.387107
| 40>   H                      -4.887416            4.115966             1.738798
| 41>   C                    : -4.879796            -0.509376            1.260039
| 42>   O                    : -5.387422            0.817447             1.362583
| 43>   H                    : -5.858975            0.885262             2.199319
| 44>   H                    : -4.683871            -0.840258            0.265881
| 45>   H                    : -3.955907            -0.558190            1.810354
| 46>   H                    : -5.515917            -1.299171            1.741369
| 47> *
| 48>
| 49> #Run DFT-D3 single point of the particle with dimer basis set
| 50> $new_job
| 51> %base "6-142_DFT_B"
| 52> ! wB97X-D3 def2-TZVP TIGHTSCF CHELPG PMODEL
| 53>
| 54> %scf
| 55> MaxIter 1000
| 56> end
| 57>
| 58> * xyz 0 1
| 59>   C                    : -4.761511            4.033597             0.644561
| 60>   O                    : -5.840978            3.433233             0.049642
| 61>   H                    : -5.492849            2.523633             0.104784
| 62>   H                    : -3.783085            3.629081             0.423102
| 63>   H                    : -4.640133            5.102742             0.387107
| 64>   H                    : -4.887416            4.115966             1.738798
| 65>   C                      -4.879796            -0.509376            1.260039
| 66>   O                      -5.387422            0.817447             1.362583
| 67>   H                      -5.858975            0.885262             2.199319
| 68>   H                      -4.683871            -0.840258            0.265881
| 69>   H                      -3.955907            -0.558190            1.810354
| 70>   H                      -5.515917            -1.299171            1.741369
| 71> *
| 72>
| 73>                          ****END OF INPUT****
 Total Charge           Charge          ....    0
 Multiplicity           Mult            ....    1
 Number of Electrons    NEL             ....   36
Dispersion correction           -0.001675392
FINAL SINGLE POINT ENERGY      -231.468343576761
Dispersion correction           -0.000218104
FINAL SINGLE POINT ENERGY      -115.727171360226

CARTESIAN COORDINATES (ANGSTROEM)
---------------------------------
  C     -4.761511    4.033597    0.644561
  O     -5.840978    3.433233    0.049642
  H     -5.492849    2.523633    0.104784
  H     -3.783085    3.629081    0.423102
  H     -4.640133    5.102742    0.387107
  H     -4.887416    4.115966    1.738798
  C     -4.879796   -0.509376    1.260039
  O     -5.387422    0.817447    1.362583
  H     -5.858975    0.885262    2.199319
  H     -4.683871   -0.840258    0.265881
  H     -3.955907   -0.558190    1.810354
  H     -5.515917   -1.299171    1.741369

 Multiplicity           Mult            ....    1
 Number of Electrons    NEL             ....   18
 Basis Dimension        Dim             ....  172

ORBITAL ENERGIES
----------------

  NO   OCC          E(Eh)            E(eV)
   0   2.0000     -19.232759      -523.3500
   1   2.0000     -10.312620      -280.6206
   2   2.0000      -1.133845       -30.8535
   3   2.0000      -0.798984       -21.7415
   4   2.0000      -0.610320       -16.6077
   5   2.0000      -0.541631       -14.7385
   6   2.0000      -0.527517       -14.3545
   7   2.0000      -0.437180       -11.8963
   8   2.0000      -0.373144       -10.1538
   9   0.0000       0.097951         2.6654
  10   0.0000       0.125624         3.4184
  11   0.0000       0.152621         4.1530
  12   0.0000       0.188646         5.1333
  13   0.0000       0.198973         5.4143

MULLIKEN ATOMIC CHARGES
-----------------------
   0 C :    0.002776
   1 O :    0.001601
   2 H :   -0.010657
   3 H :   -0.002359
   4 H :   -0.000363
   5 H :   -0.002391
   6 C :   -0.164737
   7 O :   -0.467724
   8 H :    0.316774
   9 H :    0.122263
  10 H :    0.104735
  11 H :    0.100083
Sum of atomic charges:    0.0000000

LOEWDIN ATOMIC CHARGES
----------------------
   0 C :   -0.007804
   1 O :   -0.004084
   2 H :   -0.027402
   3 H :   -0.000924
   4 H :   -0.000100
   5 H :   -0.000900
   6 C :   -0.375622
   7 O :   -0.051174
   8 H :    0.172814
   9 H :    0.100244
  10 H :    0.093140
  11 H :    0.101814

  Mayer bond orders larger than 0.1
B(  6-C ,  7-O ) :   0.9940 B(  6-C ,  9-H ) :   0.9746 B(  6-C , 10-H ) :   0.9794
B(  6-C , 11-H ) :   0.9736 B(  7-O ,  8-H ) :   0.8958

Dispersion correction           -0.000248532
FINAL SINGLE POINT ENERGY      -115.733453786294

DIPOLE MOMENT
-------------
                                X             Y             Z
Electronic contribution:     -0.63075       1.78065      -0.11552
Nuclear contribution   :      0.54129      -2.29180       0.60923
                        -----------------------------------------
Total Dipole Moment    :     -0.08946      -0.51115       0.49370
                        -----------------------------------------
Magnitude (a.u.)       :      0.71625
Magnitude (Debye)      :      1.82057

Rotational constants in cm-1:     4.415184     0.817459     0.785097
Rotational constants in MHz : 132363.889658 24506.811426 23536.607367

                             ****ORCA TERMINATED NORMALLY****
TOTAL RUN TIME: 0 days 0 hours 1 minutes 4 seconds 552 msec
