                         Program Version 4.1.2  - RELEASE  -
|  1> #Run DFT-D3 single point of the dimer
|  2> ! wB97X-D3 def2-TZVP TIGHTSCF CHELPG PMODEL PAL8
|  3>
|  4> %base "4-83_DFT_AB"
|  5>
|  6> %scf
|  7> MaxIter 1000
|  8> end
|  9>
| 10> * xyz 0 1
| 11>   C                      10.523130            -2.639775            4.449714
| 12>   O                      9.637086             -1.623541            4.944725
| 13>   H                      10.235835            -1.029594            5.432499
| 14>   H                      10.169014            -3.207924            3.581402
| 15>   H                      11.577218            -2.300368            4.261550
| 16>   H                      10.573071            -3.466301            5.153517
| 17>   C                      6.217340             -1.346205            4.088742
| 18>   O                      6.697135             -1.248581            5.395807
| 19>   H                      7.653262             -1.220963            5.333175
| 20>   H                      6.205620             -0.444576            3.465276
| 21>   H                      6.666536             -2.072092            3.429082
| 22>   H                      5.130316             -1.505163            4.044797
| 23> *
| 24>
| 25> #Run DFT-D3 single point of the molecule with dimer basis set
| 26> $new_job
| 27> %base "4-83_DFT_A"
| 28> ! wB97X-D3 def2-TZVP TIGHTSCF CHELPG PMODEL
| 29>
| 30> %scf
| 31> MaxIter 1000
| 32> end
| 33>
| 34> * xyz 0 1
| 35>   C                      10.523130            -2.639775            4.449714
| 36>   O                      9.637086             -1.623541            4.944725
| 37>   H                      10.235835            -1.029594            5.432499
| 38>   H                      10.169014            -3.207924            3.581402
| 39>   H                      11.577218            -2.300368            4.261550
| 40>   H                      10.573071            -3.466301            5.153517
| 41>   C                    : 6.217340             -1.346205            4.088742
| 42>   O                    : 6.697135             -1.248581            5.395807
| 43>   H                    : 7.653262             -1.220963            5.333175
| 44>   H                    : 6.205620             -0.444576            3.465276
| 45>   H                    : 6.666536             -2.072092            3.429082
| 46>   H                    : 5.130316             -1.505163            4.044797
| 47> *
| 48>
| 49> #Run DFT-D3 single point of the particle with dimer basis set
| 50> $new_job
| 51> %base "4-83_DFT_B"
| 52> ! wB97X-D3 def2-TZVP TIGHTSCF CHELPG PMODEL
| 53>
| 54> %scf
| 55> MaxIter 1000
| 56> end
| 57>
| 58> * xyz 0 1
| 59>   C                    : 10.523130            -2.639775            4.449714
| 60>   O                    : 9.637086             -1.623541            4.944725
| 61>   H                    : 10.235835            -1.029594            5.432499
| 62>   H                    : 10.169014            -3.207924            3.581402
| 63>   H                    : 11.577218            -2.300368            4.261550
| 64>   H                    : 10.573071            -3.466301            5.153517
| 65>   C                      6.217340             -1.346205            4.088742
| 66>   O                      6.697135             -1.248581            5.395807
| 67>   H                      7.653262             -1.220963            5.333175
| 68>   H                      6.205620             -0.444576            3.465276
| 69>   H                      6.666536             -2.072092            3.429082
| 70>   H                      5.130316             -1.505163            4.044797
| 71> *
| 72>
| 73>                          ****END OF INPUT****
 Total Charge           Charge          ....    0
 Multiplicity           Mult            ....    1
 Number of Electrons    NEL             ....   36
Dispersion correction           -0.001616378
FINAL SINGLE POINT ENERGY      -231.468143750615
Dispersion correction           -0.000261416
FINAL SINGLE POINT ENERGY      -115.730228618609

CARTESIAN COORDINATES (ANGSTROEM)
---------------------------------
  C     10.523130   -2.639775    4.449714
  O      9.637086   -1.623541    4.944725
  H     10.235835   -1.029594    5.432499
  H     10.169014   -3.207924    3.581402
  H     11.577218   -2.300368    4.261550
  H     10.573071   -3.466301    5.153517
  C      6.217340   -1.346205    4.088742
  O      6.697135   -1.248581    5.395807
  H      7.653262   -1.220963    5.333175
  H      6.205620   -0.444576    3.465276
  H      6.666536   -2.072092    3.429082
  H      5.130316   -1.505163    4.044797

 Multiplicity           Mult            ....    1
 Number of Electrons    NEL             ....   18
 Basis Dimension        Dim             ....  172

ORBITAL ENERGIES
----------------

  NO   OCC          E(Eh)            E(eV)
   0   2.0000     -19.239167      -523.5243
   1   2.0000     -10.310650      -280.5671
   2   2.0000      -1.146838       -31.2070
   3   2.0000      -0.800887       -21.7933
   4   2.0000      -0.622653       -16.9433
   5   2.0000      -0.542168       -14.7531
   6   2.0000      -0.523549       -14.2465
   7   2.0000      -0.437160       -11.8957
   8   2.0000      -0.374811       -10.1991
   9   0.0000       0.069210         1.8833
  10   0.0000       0.130391         3.5481
  11   0.0000       0.138161         3.7596
  12   0.0000       0.170356         4.6356
  13   0.0000       0.195237         5.3127

MULLIKEN ATOMIC CHARGES
-----------------------
   0 C :   -0.001307
   1 O :   -0.003005
   2 H :   -0.000421
   3 H :   -0.000052
   4 H :   -0.000001
   5 H :    0.000133
   6 C :   -0.181663
   7 O :   -0.452776
   8 H :    0.315593
   9 H :    0.096454
  10 H :    0.108097
  11 H :    0.118948
Sum of atomic charges:    0.0000000

LOEWDIN ATOMIC CHARGES
----------------------
   0 C :   -0.001337
   1 O :   -0.014858
   2 H :   -0.001207
   3 H :   -0.000093
   4 H :   -0.000032
   5 H :   -0.000043
   6 C :   -0.416336
   7 O :   -0.043210
   8 H :    0.178762
   9 H :    0.094351
  10 H :    0.092175
  11 H :    0.111828

  Mayer bond orders larger than 0.1
B(  6-C ,  7-O ) :   1.0079 B(  6-C ,  9-H ) :   0.9716 B(  6-C , 10-H ) :   0.9726
B(  6-C , 11-H ) :   0.9771 B(  7-O ,  8-H ) :   0.9070

Dispersion correction           -0.000264123
FINAL SINGLE POINT ENERGY      -115.730211783052

DIPOLE MOMENT
-------------
                                X             Y             Z
Electronic contribution:      0.66059       0.04745       1.97220
Nuclear contribution   :     -0.25092      -0.06579      -2.50720
                        -----------------------------------------
Total Dipole Moment    :      0.40967      -0.01834      -0.53501
                        -----------------------------------------
Magnitude (a.u.)       :      0.67409
Magnitude (Debye)      :      1.71341

Rotational constants in cm-1:     4.620976     0.831052     0.795773
Rotational constants in MHz : 138533.382127 24914.323028 23856.675116

                             ****ORCA TERMINATED NORMALLY****
TOTAL RUN TIME: 0 days 0 hours 1 minutes 35 seconds 548 msec
