                         Program Version 4.1.2  - RELEASE  -
|  1> #Run DFT-D3 single point of the dimer
|  2> ! wB97X-D3 def2-TZVP TIGHTSCF CHELPG PMODEL PAL8
|  3>
|  4> %base "21-7_DFT_AB"
|  5>
|  6> %scf
|  7> MaxIter 1000
|  8> end
|  9>
| 10> * xyz 0 1
| 11>   C                      -6.197209            -10.043977           -7.076087
| 12>   O                      -7.192169            -9.113181            -7.459103
| 13>   H                      -7.983588            -9.380507            -7.088494
| 14>   H                      -6.571320            -11.022002           -7.330227
| 15>   H                      -5.260879            -9.809619            -7.601295
| 16>   H                      -5.787484            -10.013825           -6.086584
| 17>   C                      -6.433659            -7.688560            -2.264360
| 18>   O                      -7.821233            -7.958168            -2.522958
| 19>   H                      -8.350406            -7.525737            -1.852029
| 20>   H                      -5.984123            -8.200384            -1.403321
| 21>   H                      -5.834364            -7.884514            -3.193238
| 22>   H                      -6.276113            -6.608584            -2.092495
| 23> *
| 24>
| 25> #Run DFT-D3 single point of the molecule with dimer basis set
| 26> $new_job
| 27> %base "21-7_DFT_A"
| 28> ! wB97X-D3 def2-TZVP TIGHTSCF CHELPG PMODEL
| 29>
| 30> %scf
| 31> MaxIter 1000
| 32> end
| 33>
| 34> * xyz 0 1
| 35>   C                      -6.197209            -10.043977           -7.076087
| 36>   O                      -7.192169            -9.113181            -7.459103
| 37>   H                      -7.983588            -9.380507            -7.088494
| 38>   H                      -6.571320            -11.022002           -7.330227
| 39>   H                      -5.260879            -9.809619            -7.601295
| 40>   H                      -5.787484            -10.013825           -6.086584
| 41>   C                    : -6.433659            -7.688560            -2.264360
| 42>   O                    : -7.821233            -7.958168            -2.522958
| 43>   H                    : -8.350406            -7.525737            -1.852029
| 44>   H                    : -5.984123            -8.200384            -1.403321
| 45>   H                    : -5.834364            -7.884514            -3.193238
| 46>   H                    : -6.276113            -6.608584            -2.092495
| 47> *
| 48>
| 49> #Run DFT-D3 single point of the particle with dimer basis set
| 50> $new_job
| 51> %base "21-7_DFT_B"
| 52> ! wB97X-D3 def2-TZVP TIGHTSCF CHELPG PMODEL
| 53>
| 54> %scf
| 55> MaxIter 1000
| 56> end
| 57>
| 58> * xyz 0 1
| 59>   C                    : -6.197209            -10.043977           -7.076087
| 60>   O                    : -7.192169            -9.113181            -7.459103
| 61>   H                    : -7.983588            -9.380507            -7.088494
| 62>   H                    : -6.571320            -11.022002           -7.330227
| 63>   H                    : -5.260879            -9.809619            -7.601295
| 64>   H                    : -5.787484            -10.013825           -6.086584
| 65>   C                      -6.433659            -7.688560            -2.264360
| 66>   O                      -7.821233            -7.958168            -2.522958
| 67>   H                      -8.350406            -7.525737            -1.852029
| 68>   H                      -5.984123            -8.200384            -1.403321
| 69>   H                      -5.834364            -7.884514            -3.193238
| 70>   H                      -6.276113            -6.608584            -2.092495
| 71> *
| 72>
| 73>                          ****END OF INPUT****
 Total Charge           Charge          ....    0
 Multiplicity           Mult            ....    1
 Number of Electrons    NEL             ....   36
Dispersion correction           -0.000784073
FINAL SINGLE POINT ENERGY      -231.463729263438
Dispersion correction           -0.000241853
FINAL SINGLE POINT ENERGY      -115.728643001431

CARTESIAN COORDINATES (ANGSTROEM)
---------------------------------
  C     -6.197209  -10.043977   -7.076087
  O     -7.192169   -9.113181   -7.459103
  H     -7.983588   -9.380507   -7.088494
  H     -6.571320  -11.022002   -7.330227
  H     -5.260879   -9.809619   -7.601295
  H     -5.787484  -10.013825   -6.086584
  C     -6.433659   -7.688560   -2.264360
  O     -7.821233   -7.958168   -2.522958
  H     -8.350406   -7.525737   -1.852029
  H     -5.984123   -8.200384   -1.403321
  H     -5.834364   -7.884514   -3.193238
  H     -6.276113   -6.608584   -2.092495

 Multiplicity           Mult            ....    1
 Number of Electrons    NEL             ....   18
 Basis Dimension        Dim             ....  172

ORBITAL ENERGIES
----------------

  NO   OCC          E(Eh)            E(eV)
   0   2.0000     -19.231873      -523.3259
   1   2.0000     -10.319769      -280.8152
   2   2.0000      -1.130064       -30.7506
   3   2.0000      -0.794535       -21.6204
   4   2.0000      -0.609022       -16.5723
   5   2.0000      -0.537460       -14.6250
   6   2.0000      -0.520138       -14.1537
   7   2.0000      -0.432461       -11.7679
   8   2.0000      -0.376522       -10.2457
   9   0.0000       0.091178         2.4811
  10   0.0000       0.117061         3.1854
  11   0.0000       0.148050         4.0287
  12   0.0000       0.171296         4.6612
  13   0.0000       0.179811         4.8929

MULLIKEN ATOMIC CHARGES
-----------------------
   0 C :   -0.000049
   1 O :    0.000002
   2 H :   -0.000058
   3 H :   -0.000001
   4 H :    0.000005
   5 H :    0.000057
   6 C :   -0.175242
   7 O :   -0.475107
   8 H :    0.314938
   9 H :    0.107041
  10 H :    0.123986
  11 H :    0.104426
Sum of atomic charges:   -0.0000000

LOEWDIN ATOMIC CHARGES
----------------------
   0 C :   -0.000059
   1 O :   -0.000003
   2 H :   -0.000030
   3 H :   -0.000001
   4 H :   -0.000001
   5 H :   -0.000115
   6 C :   -0.379075
   7 O :   -0.091639
   8 H :    0.165038
   9 H :    0.094311
  10 H :    0.115153
  11 H :    0.096422

  Mayer bond orders larger than 0.1
B(  6-C ,  7-O ) :   1.0027 B(  6-C ,  9-H ) :   0.9653 B(  6-C , 10-H ) :   0.9729
B(  6-C , 11-H ) :   0.9805 B(  7-O ,  8-H ) :   0.8994

Dispersion correction           -0.000267510
FINAL SINGLE POINT ENERGY      -115.734458749309

DIPOLE MOMENT
-------------
                                X             Y             Z
Electronic contribution:     -1.77939      -0.53318      -0.37977
Nuclear contribution   :      2.00747       0.94172       0.90587
                        -----------------------------------------
Total Dipole Moment    :      0.22807       0.40854       0.52611
                        -----------------------------------------
Magnitude (a.u.)       :      0.70407
Magnitude (Debye)      :      1.78960

Rotational constants in cm-1:     4.286110     0.799936     0.772656
Rotational constants in MHz : 128494.355254 23981.466540 23163.647323

                             ****ORCA TERMINATED NORMALLY****
TOTAL RUN TIME: 0 days 0 hours 1 minutes 5 seconds 283 msec
