                         Program Version 4.1.2  - RELEASE  -
|  1> #Run DFT-D3 single point of the dimer
|  2> ! wB97X-D3 def2-TZVP TIGHTSCF CHELPG PMODEL PAL8
|  3>
|  4> %base "3-179_DFT_AB"
|  5>
|  6> %scf
|  7> MaxIter 1000
|  8> end
|  9>
| 10> * xyz 0 1
| 11>   C                      7.281428             -9.565872            -11.049260
| 12>   O                      8.512080             -9.111649            -11.628326
| 13>   H                      8.472386             -9.228865            -12.577842
| 14>   H                      7.334403             -9.507376            -9.927743
| 15>   H                      6.402606             -9.026132            -11.434370
| 16>   H                      7.190315             -10.599415           -11.368730
| 17>   C                      6.057053             -5.596897            -11.317847
| 18>   O                      7.020771             -6.495254            -10.889214
| 19>   H                      6.983095             -6.517294            -9.921539
| 20>   H                      6.226132             -4.551050            -11.184380
| 21>   H                      5.929378             -5.586242            -12.429916
| 22>   H                      5.089214             -5.836619            -10.945969
| 23> *
| 24>
| 25> #Run DFT-D3 single point of the molecule with dimer basis set
| 26> $new_job
| 27> %base "3-179_DFT_A"
| 28> ! wB97X-D3 def2-TZVP TIGHTSCF CHELPG PMODEL
| 29>
| 30> %scf
| 31> MaxIter 1000
| 32> end
| 33>
| 34> * xyz 0 1
| 35>   C                      7.281428             -9.565872            -11.049260
| 36>   O                      8.512080             -9.111649            -11.628326
| 37>   H                      8.472386             -9.228865            -12.577842
| 38>   H                      7.334403             -9.507376            -9.927743
| 39>   H                      6.402606             -9.026132            -11.434370
| 40>   H                      7.190315             -10.599415           -11.368730
| 41>   C                    : 6.057053             -5.596897            -11.317847
| 42>   O                    : 7.020771             -6.495254            -10.889214
| 43>   H                    : 6.983095             -6.517294            -9.921539
| 44>   H                    : 6.226132             -4.551050            -11.184380
| 45>   H                    : 5.929378             -5.586242            -12.429916
| 46>   H                    : 5.089214             -5.836619            -10.945969
| 47> *
| 48>
| 49> #Run DFT-D3 single point of the particle with dimer basis set
| 50> $new_job
| 51> %base "3-179_DFT_B"
| 52> ! wB97X-D3 def2-TZVP TIGHTSCF CHELPG PMODEL
| 53>
| 54> %scf
| 55> MaxIter 1000
| 56> end
| 57>
| 58> * xyz 0 1
| 59>   C                    : 7.281428             -9.565872            -11.049260
| 60>   O                    : 8.512080             -9.111649            -11.628326
| 61>   H                    : 8.472386             -9.228865            -12.577842
| 62>   H                    : 7.334403             -9.507376            -9.927743
| 63>   H                    : 6.402606             -9.026132            -11.434370
| 64>   H                    : 7.190315             -10.599415           -11.368730
| 65>   C                      6.057053             -5.596897            -11.317847
| 66>   O                      7.020771             -6.495254            -10.889214
| 67>   H                      6.983095             -6.517294            -9.921539
| 68>   H                      6.226132             -4.551050            -11.184380
| 69>   H                      5.929378             -5.586242            -12.429916
| 70>   H                      5.089214             -5.836619            -10.945969
| 71> *
| 72>
| 73>                          ****END OF INPUT****
 Total Charge           Charge          ....    0
 Multiplicity           Mult            ....    1
 Number of Electrons    NEL             ....   36
Dispersion correction           -0.001874015
FINAL SINGLE POINT ENERGY      -231.463912461566
Dispersion correction           -0.000237638
FINAL SINGLE POINT ENERGY      -115.734281100673

CARTESIAN COORDINATES (ANGSTROEM)
---------------------------------
  C      7.281428   -9.565872  -11.049260
  O      8.512080   -9.111649  -11.628326
  H      8.472386   -9.228865  -12.577842
  H      7.334403   -9.507376   -9.927743
  H      6.402606   -9.026132  -11.434370
  H      7.190315  -10.599415  -11.368730
  C      6.057053   -5.596897  -11.317847
  O      7.020771   -6.495254  -10.889214
  H      6.983095   -6.517294   -9.921539
  H      6.226132   -4.551050  -11.184380
  H      5.929378   -5.586242  -12.429916
  H      5.089214   -5.836619  -10.945969

 Multiplicity           Mult            ....    1
 Number of Electrons    NEL             ....   18
 Basis Dimension        Dim             ....  172

ORBITAL ENERGIES
----------------

  NO   OCC          E(Eh)            E(eV)
   0   2.0000     -19.236402      -523.4491
   1   2.0000     -10.307192      -280.4729
   2   2.0000      -1.146447       -31.1964
   3   2.0000      -0.799665       -21.7600
   4   2.0000      -0.619432       -16.8556
   5   2.0000      -0.552019       -15.0212
   6   2.0000      -0.527036       -14.3414
   7   2.0000      -0.427310       -11.6277
   8   2.0000      -0.377301       -10.2669
   9   0.0000       0.093544         2.5455
  10   0.0000       0.129335         3.5194
  11   0.0000       0.147572         4.0157
  12   0.0000       0.176934         4.8146
  13   0.0000       0.202574         5.5123

MULLIKEN ATOMIC CHARGES
-----------------------
   0 C :    0.001019
   1 O :    0.000505
   2 H :   -0.000550
   3 H :   -0.001882
   4 H :   -0.007237
   5 H :   -0.000890
   6 C :   -0.167041
   7 O :   -0.459432
   8 H :    0.318939
   9 H :    0.103051
  10 H :    0.112562
  11 H :    0.100956
Sum of atomic charges:    0.0000000

LOEWDIN ATOMIC CHARGES
----------------------
   0 C :   -0.018400
   1 O :   -0.003128
   2 H :   -0.000585
   3 H :   -0.001418
   4 H :   -0.007487
   5 H :   -0.000258
   6 C :   -0.415047
   7 O :   -0.028635
   8 H :    0.181005
   9 H :    0.089934
  10 H :    0.115316
  11 H :    0.088702

  Mayer bond orders larger than 0.1
B(  6-C ,  7-O ) :   1.0028 B(  6-C ,  9-H ) :   0.9674 B(  6-C , 10-H ) :   0.9766
B(  6-C , 11-H ) :   0.9849 B(  7-O ,  8-H ) :   0.8938

Dispersion correction           -0.000243826
FINAL SINGLE POINT ENERGY      -115.731447943654

DIPOLE MOMENT
-------------
                                X             Y             Z
Electronic contribution:      1.40269      -1.24570       0.59367
Nuclear contribution   :     -1.79898       1.59174      -0.15280
                        -----------------------------------------
Total Dipole Moment    :     -0.39629       0.34604       0.44087
                        -----------------------------------------
Magnitude (a.u.)       :      0.68641
Magnitude (Debye)      :      1.74471

Rotational constants in cm-1:     4.567816     0.845279     0.814939
Rotational constants in MHz : 136939.677124 25340.834809 24431.264346

                             ****ORCA TERMINATED NORMALLY****
TOTAL RUN TIME: 0 days 0 hours 6 minutes 10 seconds 592 msec
