                         Program Version 4.1.2  - RELEASE  -
|  1> #Run DFT-D3 single point of the dimer
|  2> ! wB97X-D3 def2-TZVP TIGHTSCF CHELPG PMODEL PAL8
|  3>
|  4> %base "13-29_DFT_AB"
|  5>
|  6> %scf
|  7> MaxIter 1000
|  8> end
|  9>
| 10> * xyz 0 1
| 11>   C                      0.693580             10.738664            9.003647
| 12>   O                      -0.631449            10.218537            8.833525
| 13>   H                      -0.875626            10.477739            7.931465
| 14>   H                      0.926423             11.509323            8.158757
| 15>   H                      0.794173             11.306749            9.896924
| 16>   H                      1.519966             9.978133             8.991568
| 17>   C                      -2.561850            8.333009             5.793317
| 18>   O                      -3.098374            7.684261             4.668960
| 19>   H                      -2.260752            7.229011             4.369283
| 20>   H                      -1.504505            8.534680             5.701477
| 21>   H                      -3.050513            9.317847             5.958538
| 22>   H                      -2.651462            7.682936             6.685952
| 23> *
| 24>
| 25> #Run DFT-D3 single point of the molecule with dimer basis set
| 26> $new_job
| 27> %base "13-29_DFT_A"
| 28> ! wB97X-D3 def2-TZVP TIGHTSCF CHELPG PMODEL
| 29>
| 30> %scf
| 31> MaxIter 1000
| 32> end
| 33>
| 34> * xyz 0 1
| 35>   C                      0.693580             10.738664            9.003647
| 36>   O                      -0.631449            10.218537            8.833525
| 37>   H                      -0.875626            10.477739            7.931465
| 38>   H                      0.926423             11.509323            8.158757
| 39>   H                      0.794173             11.306749            9.896924
| 40>   H                      1.519966             9.978133             8.991568
| 41>   C                    : -2.561850            8.333009             5.793317
| 42>   O                    : -3.098374            7.684261             4.668960
| 43>   H                    : -2.260752            7.229011             4.369283
| 44>   H                    : -1.504505            8.534680             5.701477
| 45>   H                    : -3.050513            9.317847             5.958538
| 46>   H                    : -2.651462            7.682936             6.685952
| 47> *
| 48>
| 49> #Run DFT-D3 single point of the particle with dimer basis set
| 50> $new_job
| 51> %base "13-29_DFT_B"
| 52> ! wB97X-D3 def2-TZVP TIGHTSCF CHELPG PMODEL
| 53>
| 54> %scf
| 55> MaxIter 1000
| 56> end
| 57>
| 58> * xyz 0 1
| 59>   C                    : 0.693580             10.738664            9.003647
| 60>   O                    : -0.631449            10.218537            8.833525
| 61>   H                    : -0.875626            10.477739            7.931465
| 62>   H                    : 0.926423             11.509323            8.158757
| 63>   H                    : 0.794173             11.306749            9.896924
| 64>   H                    : 1.519966             9.978133             8.991568
| 65>   C                      -2.561850            8.333009             5.793317
| 66>   O                      -3.098374            7.684261             4.668960
| 67>   H                      -2.260752            7.229011             4.369283
| 68>   H                      -1.504505            8.534680             5.701477
| 69>   H                      -3.050513            9.317847             5.958538
| 70>   H                      -2.651462            7.682936             6.685952
| 71> *
| 72>
| 73>                          ****END OF INPUT****
 Total Charge           Charge          ....    0
 Multiplicity           Mult            ....    1
 Number of Electrons    NEL             ....   36
Dispersion correction           -0.001111290
FINAL SINGLE POINT ENERGY      -231.460530661302
Dispersion correction           -0.000268285
FINAL SINGLE POINT ENERGY      -115.730069717301

CARTESIAN COORDINATES (ANGSTROEM)
---------------------------------
  C      0.693580   10.738664    9.003647
  O     -0.631449   10.218537    8.833525
  H     -0.875626   10.477739    7.931465
  H      0.926423   11.509323    8.158757
  H      0.794173   11.306749    9.896924
  H      1.519966    9.978133    8.991568
  C     -2.561850    8.333009    5.793317
  O     -3.098374    7.684261    4.668960
  H     -2.260752    7.229011    4.369283
  H     -1.504505    8.534680    5.701477
  H     -3.050513    9.317847    5.958538
  H     -2.651462    7.682936    6.685952

 Multiplicity           Mult            ....    1
 Number of Electrons    NEL             ....   18
 Basis Dimension        Dim             ....  172

ORBITAL ENERGIES
----------------

  NO   OCC          E(Eh)            E(eV)
   0   2.0000     -19.237011      -523.4657
   1   2.0000     -10.313892      -280.6553
   2   2.0000      -1.140132       -31.0246
   3   2.0000      -0.786078       -21.3903
   4   2.0000      -0.611584       -16.6420
   5   2.0000      -0.543448       -14.7880
   6   2.0000      -0.521557       -14.1923
   7   2.0000      -0.442114       -12.0305
   8   2.0000      -0.372716       -10.1421
   9   0.0000       0.081731         2.2240
  10   0.0000       0.107768         2.9325
  11   0.0000       0.136824         3.7232
  12   0.0000       0.183674         4.9980
  13   0.0000       0.190517         5.1842

MULLIKEN ATOMIC CHARGES
-----------------------
   0 C :    0.000067
   1 O :    0.000112
   2 H :   -0.000680
   3 H :   -0.000009
   4 H :   -0.000004
   5 H :   -0.000005
   6 C :   -0.179076
   7 O :   -0.455380
   8 H :    0.318941
   9 H :    0.103067
  10 H :    0.113834
  11 H :    0.099133
Sum of atomic charges:    0.0000000

LOEWDIN ATOMIC CHARGES
----------------------
   0 C :   -0.000048
   1 O :   -0.000126
   2 H :   -0.000991
   3 H :   -0.000003
   4 H :   -0.000001
   5 H :   -0.000002
   6 C :   -0.409943
   7 O :   -0.084955
   8 H :    0.200190
   9 H :    0.090640
  10 H :    0.108180
  11 H :    0.097058

  Mayer bond orders larger than 0.1
B(  6-C ,  7-O ) :   1.0127 B(  6-C ,  9-H ) :   0.9842 B(  6-C , 10-H ) :   0.9729
B(  6-C , 11-H ) :   0.9723 B(  7-O ,  8-H ) :   0.8978

Dispersion correction           -0.000220814
FINAL SINGLE POINT ENERGY      -115.729971364258

DIPOLE MOMENT
-------------
                                X             Y             Z
Electronic contribution:     -0.91207      -0.76908      -1.50597
Nuclear contribution   :      1.64082       0.74560       1.72305
                        -----------------------------------------
Total Dipole Moment    :      0.72875      -0.02348       0.21708
                        -----------------------------------------
Magnitude (a.u.)       :      0.76076
Magnitude (Debye)      :      1.93370

Rotational constants in cm-1:     4.121404     0.849084     0.814251
Rotational constants in MHz : 123556.587754 25454.907777 24410.628921

                             ****ORCA TERMINATED NORMALLY****
TOTAL RUN TIME: 0 days 0 hours 1 minutes 10 seconds 823 msec
