                         Program Version 4.1.2  - RELEASE  -
|  1> #Run DFT-D3 single point of the dimer
|  2> ! wB97X-D3 def2-TZVP TIGHTSCF CHELPG PMODEL PAL8
|  3>
|  4> %base "6-58_DFT_AB"
|  5>
|  6> %scf
|  7> MaxIter 1000
|  8> end
|  9>
| 10> * xyz 0 1
| 11>   C                      -6.106169            -7.139025            5.478536
| 12>   O                      -7.250673            -6.358448            5.904261
| 13>   H                      -7.580413            -5.854131            5.158850
| 14>   H                      -5.225424            -6.537199            5.228452
| 15>   H                      -5.853161            -7.888103            6.266709
| 16>   H                      -6.381485            -7.683977            4.536477
| 17>   C                      -1.907930            -3.589616            7.002095
| 18>   O                      -2.154025            -4.559680            6.133148
| 19>   H                      -2.363920            -4.281243            5.232424
| 20>   H                      -1.061658            -2.953280            6.756528
| 21>   H                      -2.723835            -2.808970            6.938761
| 22>   H                      -1.777358            -3.891691            7.977162
| 23> *
| 24>
| 25> #Run DFT-D3 single point of the molecule with dimer basis set
| 26> $new_job
| 27> %base "6-58_DFT_A"
| 28> ! wB97X-D3 def2-TZVP TIGHTSCF CHELPG PMODEL
| 29>
| 30> %scf
| 31> MaxIter 1000
| 32> end
| 33>
| 34> * xyz 0 1
| 35>   C                      -6.106169            -7.139025            5.478536
| 36>   O                      -7.250673            -6.358448            5.904261
| 37>   H                      -7.580413            -5.854131            5.158850
| 38>   H                      -5.225424            -6.537199            5.228452
| 39>   H                      -5.853161            -7.888103            6.266709
| 40>   H                      -6.381485            -7.683977            4.536477
| 41>   C                    : -1.907930            -3.589616            7.002095
| 42>   O                    : -2.154025            -4.559680            6.133148
| 43>   H                    : -2.363920            -4.281243            5.232424
| 44>   H                    : -1.061658            -2.953280            6.756528
| 45>   H                    : -2.723835            -2.808970            6.938761
| 46>   H                    : -1.777358            -3.891691            7.977162
| 47> *
| 48>
| 49> #Run DFT-D3 single point of the particle with dimer basis set
| 50> $new_job
| 51> %base "6-58_DFT_B"
| 52> ! wB97X-D3 def2-TZVP TIGHTSCF CHELPG PMODEL
| 53>
| 54> %scf
| 55> MaxIter 1000
| 56> end
| 57>
| 58> * xyz 0 1
| 59>   C                    : -6.106169            -7.139025            5.478536
| 60>   O                    : -7.250673            -6.358448            5.904261
| 61>   H                    : -7.580413            -5.854131            5.158850
| 62>   H                    : -5.225424            -6.537199            5.228452
| 63>   H                    : -5.853161            -7.888103            6.266709
| 64>   H                    : -6.381485            -7.683977            4.536477
| 65>   C                      -1.907930            -3.589616            7.002095
| 66>   O                      -2.154025            -4.559680            6.133148
| 67>   H                      -2.363920            -4.281243            5.232424
| 68>   H                      -1.061658            -2.953280            6.756528
| 69>   H                      -2.723835            -2.808970            6.938761
| 70>   H                      -1.777358            -3.891691            7.977162
| 71> *
| 72>
| 73>                          ****END OF INPUT****
 Total Charge           Charge          ....    0
 Multiplicity           Mult            ....    1
 Number of Electrons    NEL             ....   36
Dispersion correction           -0.000747816
FINAL SINGLE POINT ENERGY      -231.459153524830
Dispersion correction           -0.000261243
FINAL SINGLE POINT ENERGY      -115.734686652971

CARTESIAN COORDINATES (ANGSTROEM)
---------------------------------
  C     -6.106169   -7.139025    5.478536
  O     -7.250673   -6.358448    5.904261
  H     -7.580413   -5.854131    5.158850
  H     -5.225424   -6.537199    5.228452
  H     -5.853161   -7.888103    6.266709
  H     -6.381485   -7.683977    4.536477
  C     -1.907930   -3.589616    7.002095
  O     -2.154025   -4.559680    6.133148
  H     -2.363920   -4.281243    5.232424
  H     -1.061658   -2.953280    6.756528
  H     -2.723835   -2.808970    6.938761
  H     -1.777358   -3.891691    7.977162

 Multiplicity           Mult            ....    1
 Number of Electrons    NEL             ....   18
 Basis Dimension        Dim             ....  172

ORBITAL ENERGIES
----------------

  NO   OCC          E(Eh)            E(eV)
   0   2.0000     -19.229464      -523.2603
   1   2.0000     -10.302606      -280.3482
   2   2.0000      -1.161314       -31.6010
   3   2.0000      -0.801466       -21.8090
   4   2.0000      -0.634136       -17.2557
   5   2.0000      -0.555731       -15.1222
   6   2.0000      -0.538559       -14.6549
   7   2.0000      -0.424815       -11.5598
   8   2.0000      -0.360475        -9.8090
   9   0.0000       0.089422         2.4333
  10   0.0000       0.114148         3.1061
  11   0.0000       0.156497         4.2585
  12   0.0000       0.169380         4.6091
  13   0.0000       0.201236         5.4759

MULLIKEN ATOMIC CHARGES
-----------------------
   0 C :    0.001507
   1 O :   -0.000003
   2 H :   -0.000008
   3 H :   -0.003670
   4 H :   -0.000018
   5 H :   -0.000098
   6 C :   -0.139728
   7 O :   -0.466129
   8 H :    0.327656
   9 H :    0.082978
  10 H :    0.075776
  11 H :    0.121735
Sum of atomic charges:    0.0000000

LOEWDIN ATOMIC CHARGES
----------------------
   0 C :   -0.000255
   1 O :   -0.000010
   2 H :   -0.000000
   3 H :   -0.001247
   4 H :   -0.000004
   5 H :   -0.000005
   6 C :   -0.448679
   7 O :   -0.008644
   8 H :    0.181509
   9 H :    0.088309
  10 H :    0.095454
  11 H :    0.093572

  Mayer bond orders larger than 0.1
B(  6-C ,  7-O ) :   1.0146 B(  6-C ,  9-H ) :   0.9757 B(  6-C , 10-H ) :   0.9908
B(  6-C , 11-H ) :   0.9701 B(  7-O ,  8-H ) :   0.8826

Dispersion correction           -0.000219235
FINAL SINGLE POINT ENERGY      -115.724268383222

DIPOLE MOMENT
-------------
                                X             Y             Z
Electronic contribution:     -0.24717      -1.64531      -0.99784
Nuclear contribution   :      0.21746       2.15744       0.71728
                        -----------------------------------------
Total Dipole Moment    :     -0.02970       0.51214      -0.28056
                        -----------------------------------------
Magnitude (a.u.)       :      0.58470
Magnitude (Debye)      :      1.48619

Rotational constants in cm-1:     4.584700     0.910380     0.869054
Rotational constants in MHz : 137445.835684 27292.492012 26053.574368

                             ****ORCA TERMINATED NORMALLY****
TOTAL RUN TIME: 0 days 0 hours 0 minutes 55 seconds 49 msec
