                         Program Version 4.1.2  - RELEASE  -
|  1> #Run DFT-D3 single point of the dimer
|  2> ! wB97X-D3 def2-TZVP TIGHTSCF CHELPG PMODEL PAL8
|  3>
|  4> %base "5-10_DFT_AB"
|  5>
|  6> %scf
|  7> MaxIter 1000
|  8> end
|  9>
| 10> * xyz 0 1
| 11>   C                      7.637502             -1.565497            0.430449
| 12>   O                      6.279459             -1.591730            0.075538
| 13>   H                      6.138315             -2.503580            0.236057
| 14>   H                      8.043561             -0.510717            0.303914
| 15>   H                      7.798157             -1.853950            1.427963
| 16>   H                      8.171181             -2.284390            -0.145285
| 17>   C                      6.349488             1.958305             -0.293641
| 18>   O                      6.402245             1.534939             -1.668295
| 19>   H                      5.500103             1.659178             -2.082639
| 20>   H                      7.230434             2.498772             -0.038362
| 21>   H                      5.513317             2.605014             -0.130240
| 22>   H                      6.275680             1.143591             0.346185
| 23> *
| 24>
| 25> #Run DFT-D3 single point of the molecule with dimer basis set
| 26> $new_job
| 27> %base "5-10_DFT_A"
| 28> ! wB97X-D3 def2-TZVP TIGHTSCF CHELPG PMODEL
| 29>
| 30> %scf
| 31> MaxIter 1000
| 32> end
| 33>
| 34> * xyz 0 1
| 35>   C                      7.637502             -1.565497            0.430449
| 36>   O                      6.279459             -1.591730            0.075538
| 37>   H                      6.138315             -2.503580            0.236057
| 38>   H                      8.043561             -0.510717            0.303914
| 39>   H                      7.798157             -1.853950            1.427963
| 40>   H                      8.171181             -2.284390            -0.145285
| 41>   C                    : 6.349488             1.958305             -0.293641
| 42>   O                    : 6.402245             1.534939             -1.668295
| 43>   H                    : 5.500103             1.659178             -2.082639
| 44>   H                    : 7.230434             2.498772             -0.038362
| 45>   H                    : 5.513317             2.605014             -0.130240
| 46>   H                    : 6.275680             1.143591             0.346185
| 47> *
| 48>
| 49> #Run DFT-D3 single point of the particle with dimer basis set
| 50> $new_job
| 51> %base "5-10_DFT_B"
| 52> ! wB97X-D3 def2-TZVP TIGHTSCF CHELPG PMODEL
| 53>
| 54> %scf
| 55> MaxIter 1000
| 56> end
| 57>
| 58> * xyz 0 1
| 59>   C                    : 7.637502             -1.565497            0.430449
| 60>   O                    : 6.279459             -1.591730            0.075538
| 61>   H                    : 6.138315             -2.503580            0.236057
| 62>   H                    : 8.043561             -0.510717            0.303914
| 63>   H                    : 7.798157             -1.853950            1.427963
| 64>   H                    : 8.171181             -2.284390            -0.145285
| 65>   C                      6.349488             1.958305             -0.293641
| 66>   O                      6.402245             1.534939             -1.668295
| 67>   H                      5.500103             1.659178             -2.082639
| 68>   H                      7.230434             2.498772             -0.038362
| 69>   H                      5.513317             2.605014             -0.130240
| 70>   H                      6.275680             1.143591             0.346185
| 71> *
| 72>
| 73>                          ****END OF INPUT****
 Total Charge           Charge          ....    0
 Multiplicity           Mult            ....    1
 Number of Electrons    NEL             ....   36
Dispersion correction           -0.001768896
FINAL SINGLE POINT ENERGY      -231.460607623995
Dispersion correction           -0.000194780
FINAL SINGLE POINT ENERGY      -115.728371347552

CARTESIAN COORDINATES (ANGSTROEM)
---------------------------------
  C      7.637502   -1.565497    0.430449
  O      6.279459   -1.591730    0.075538
  H      6.138315   -2.503580    0.236057
  H      8.043561   -0.510717    0.303914
  H      7.798157   -1.853950    1.427963
  H      8.171181   -2.284390   -0.145285
  C      6.349488    1.958305   -0.293641
  O      6.402245    1.534939   -1.668295
  H      5.500103    1.659178   -2.082639
  H      7.230434    2.498772   -0.038362
  H      5.513317    2.605014   -0.130240
  H      6.275680    1.143591    0.346185

 Multiplicity           Mult            ....    1
 Number of Electrons    NEL             ....   18
 Basis Dimension        Dim             ....  172

ORBITAL ENERGIES
----------------

  NO   OCC          E(Eh)            E(eV)
   0   2.0000     -19.230445      -523.2870
   1   2.0000     -10.302714      -280.3511
   2   2.0000      -1.118832       -30.4450
   3   2.0000      -0.802350       -21.8331
   4   2.0000      -0.602766       -16.4021
   5   2.0000      -0.545357       -14.8399
   6   2.0000      -0.528082       -14.3698
   7   2.0000      -0.432660       -11.7733
   8   2.0000      -0.373622       -10.1668
   9   0.0000       0.089720         2.4414
  10   0.0000       0.114389         3.1127
  11   0.0000       0.155048         4.2191
  12   0.0000       0.175004         4.7621
  13   0.0000       0.194680         5.2975

MULLIKEN ATOMIC CHARGES
-----------------------
   0 C :   -0.000995
   1 O :    0.000299
   2 H :    0.000015
   3 H :    0.002456
   4 H :   -0.000111
   5 H :    0.000162
   6 C :   -0.171264
   7 O :   -0.492332
   8 H :    0.318084
   9 H :    0.120348
  10 H :    0.114812
  11 H :    0.108525
Sum of atomic charges:   -0.0000000

LOEWDIN ATOMIC CHARGES
----------------------
   0 C :   -0.004665
   1 O :   -0.001843
   2 H :   -0.000055
   3 H :   -0.002514
   4 H :   -0.000057
   5 H :   -0.000032
   6 C :   -0.350511
   7 O :   -0.113289
   8 H :    0.189842
   9 H :    0.101169
  10 H :    0.094797
  11 H :    0.087157

  Mayer bond orders larger than 0.1
B(  6-C ,  7-O ) :   1.0041 B(  6-C ,  9-H ) :   0.9796 B(  6-C , 10-H ) :   0.9874
B(  6-C , 11-H ) :   0.9749 B(  7-O ,  8-H ) :   0.8948

Dispersion correction           -0.000244145
FINAL SINGLE POINT ENERGY      -115.731446002022

DIPOLE MOMENT
-------------
                                X             Y             Z
Electronic contribution:      0.22052      -0.58017      -1.64500
Nuclear contribution   :     -0.81846       0.85027       1.96686
                        -----------------------------------------
Total Dipole Moment    :     -0.59795       0.27010       0.32186
                        -----------------------------------------
Magnitude (a.u.)       :      0.73081
Magnitude (Debye)      :      1.85758

Rotational constants in cm-1:     4.462845     0.813205     0.780907
Rotational constants in MHz : 133792.723314 24379.281866 23411.006381

                             ****ORCA TERMINATED NORMALLY****
TOTAL RUN TIME: 0 days 0 hours 1 minutes 0 seconds 445 msec
