                         Program Version 4.1.2  - RELEASE  -
|  1> #Run DFT-D3 single point of the dimer
|  2> ! wB97X-D3 def2-TZVP TIGHTSCF CHELPG PMODEL PAL8
|  3>
|  4> %base "7-64_DFT_AB"
|  5>
|  6> %scf
|  7> MaxIter 1000
|  8> end
|  9>
| 10> * xyz 0 1
| 11>   C                      -1.585404            3.392058             7.212129
| 12>   O                      -2.120105            3.744945             8.520689
| 13>   H                      -1.462705            3.477092             9.167592
| 14>   H                      -2.311762            3.531126             6.455074
| 15>   H                      -0.759444            4.075805             6.822156
| 16>   H                      -1.228848            2.336794             7.215379
| 17>   C                      -2.506066            5.774475             4.374404
| 18>   O                      -1.795232            6.409334             3.349870
| 19>   H                      -1.717533            7.281400             3.695143
| 20>   H                      -1.797365            5.646557             5.250925
| 21>   H                      -3.437806            6.248494             4.651501
| 22>   H                      -2.836232            4.790620             4.104061
| 23> *
| 24>
| 25> #Run DFT-D3 single point of the molecule with dimer basis set
| 26> $new_job
| 27> %base "7-64_DFT_A"
| 28> ! wB97X-D3 def2-TZVP TIGHTSCF CHELPG PMODEL
| 29>
| 30> %scf
| 31> MaxIter 1000
| 32> end
| 33>
| 34> * xyz 0 1
| 35>   C                      -1.585404            3.392058             7.212129
| 36>   O                      -2.120105            3.744945             8.520689
| 37>   H                      -1.462705            3.477092             9.167592
| 38>   H                      -2.311762            3.531126             6.455074
| 39>   H                      -0.759444            4.075805             6.822156
| 40>   H                      -1.228848            2.336794             7.215379
| 41>   C                    : -2.506066            5.774475             4.374404
| 42>   O                    : -1.795232            6.409334             3.349870
| 43>   H                    : -1.717533            7.281400             3.695143
| 44>   H                    : -1.797365            5.646557             5.250925
| 45>   H                    : -3.437806            6.248494             4.651501
| 46>   H                    : -2.836232            4.790620             4.104061
| 47> *
| 48>
| 49> #Run DFT-D3 single point of the particle with dimer basis set
| 50> $new_job
| 51> %base "7-64_DFT_B"
| 52> ! wB97X-D3 def2-TZVP TIGHTSCF CHELPG PMODEL
| 53>
| 54> %scf
| 55> MaxIter 1000
| 56> end
| 57>
| 58> * xyz 0 1
| 59>   C                    : -1.585404            3.392058             7.212129
| 60>   O                    : -2.120105            3.744945             8.520689
| 61>   H                    : -1.462705            3.477092             9.167592
| 62>   H                    : -2.311762            3.531126             6.455074
| 63>   H                    : -0.759444            4.075805             6.822156
| 64>   H                    : -1.228848            2.336794             7.215379
| 65>   C                      -2.506066            5.774475             4.374404
| 66>   O                      -1.795232            6.409334             3.349870
| 67>   H                      -1.717533            7.281400             3.695143
| 68>   H                      -1.797365            5.646557             5.250925
| 69>   H                      -3.437806            6.248494             4.651501
| 70>   H                      -2.836232            4.790620             4.104061
| 71> *
| 72>
| 73>                          ****END OF INPUT****
 Total Charge           Charge          ....    0
 Multiplicity           Mult            ....    1
 Number of Electrons    NEL             ....   36
Dispersion correction           -0.001487021
FINAL SINGLE POINT ENERGY      -231.464019847382
Dispersion correction           -0.000275674
FINAL SINGLE POINT ENERGY      -115.731810102376

CARTESIAN COORDINATES (ANGSTROEM)
---------------------------------
  C     -1.585404    3.392058    7.212129
  O     -2.120105    3.744945    8.520689
  H     -1.462705    3.477092    9.167592
  H     -2.311762    3.531126    6.455074
  H     -0.759444    4.075805    6.822156
  H     -1.228848    2.336794    7.215379
  C     -2.506066    5.774475    4.374404
  O     -1.795232    6.409334    3.349870
  H     -1.717533    7.281400    3.695143
  H     -1.797365    5.646557    5.250925
  H     -3.437806    6.248494    4.651501
  H     -2.836232    4.790620    4.104061

 Multiplicity           Mult            ....    1
 Number of Electrons    NEL             ....   18
 Basis Dimension        Dim             ....  172

ORBITAL ENERGIES
----------------

  NO   OCC          E(Eh)            E(eV)
   0   2.0000     -19.231617      -523.3189
   1   2.0000     -10.312725      -280.6235
   2   2.0000      -1.150329       -31.3021
   3   2.0000      -0.794875       -21.6297
   4   2.0000      -0.612392       -16.6640
   5   2.0000      -0.549330       -14.9480
   6   2.0000      -0.530450       -14.4343
   7   2.0000      -0.436159       -11.8685
   8   2.0000      -0.375183       -10.2093
   9   0.0000       0.086721         2.3598
  10   0.0000       0.119242         3.2447
  11   0.0000       0.149007         4.0547
  12   0.0000       0.176824         4.8116
  13   0.0000       0.181611         4.9419

MULLIKEN ATOMIC CHARGES
-----------------------
   0 C :   -0.002607
   1 O :    0.000159
   2 H :    0.000011
   3 H :   -0.001241
   4 H :    0.001177
   5 H :   -0.000200
   6 C :   -0.168184
   7 O :   -0.455529
   8 H :    0.313966
   9 H :    0.097903
  10 H :    0.102586
  11 H :    0.111961
Sum of atomic charges:   -0.0000000

LOEWDIN ATOMIC CHARGES
----------------------
   0 C :   -0.007184
   1 O :   -0.000009
   2 H :   -0.000005
   3 H :   -0.003803
   4 H :   -0.003439
   5 H :   -0.000067
   6 C :   -0.399049
   7 O :   -0.053494
   8 H :    0.162792
   9 H :    0.108783
  10 H :    0.092526
  11 H :    0.102948

  Mayer bond orders larger than 0.1
B(  6-C ,  7-O ) :   1.0007 B(  6-C ,  9-H ) :   0.9841 B(  6-C , 10-H ) :   0.9695
B(  6-C , 11-H ) :   0.9737 B(  7-O ,  8-H ) :   0.9054

Dispersion correction           -0.000219790
FINAL SINGLE POINT ENERGY      -115.731636971989

DIPOLE MOMENT
-------------
                                X             Y             Z
Electronic contribution:      0.88961       0.76408      -1.50694
Nuclear contribution   :     -1.13379      -0.47246       2.07938
                        -----------------------------------------
Total Dipole Moment    :     -0.24418       0.29161       0.57244
                        -----------------------------------------
Magnitude (a.u.)       :      0.68728
Magnitude (Debye)      :      1.74693

Rotational constants in cm-1:     4.304827     0.843837     0.825249
Rotational constants in MHz : 129055.455152 25297.591081 24740.356275

                             ****ORCA TERMINATED NORMALLY****
TOTAL RUN TIME: 0 days 0 hours 1 minutes 5 seconds 905 msec
