                         Program Version 4.1.2  - RELEASE  -
|  1> #Run DFT-D3 single point of the dimer
|  2> ! wB97X-D3 def2-TZVP TIGHTSCF CHELPG PMODEL PAL8
|  3>
|  4> %base "16-46_DFT_AB"
|  5>
|  6> %scf
|  7> MaxIter 1000
|  8> end
|  9>
| 10> * xyz 0 1
| 11>   C                      3.918612             -5.045741            2.896027
| 12>   O                      4.275113             -3.748419            2.773380
| 13>   H                      5.177996             -3.619790            2.820687
| 14>   H                      3.911424             -5.560728            1.980114
| 15>   H                      4.669848             -5.508734            3.468600
| 16>   H                      2.869578             -5.280809            3.312576
| 17>   C                      1.713433             -5.196340            6.770740
| 18>   O                      1.791775             -5.028510            8.127956
| 19>   H                      1.810049             -5.951920            8.498394
| 20>   H                      1.500596             -4.238577            6.340873
| 21>   H                      2.666201             -5.539737            6.312505
| 22>   H                      0.880092             -5.841664            6.551515
| 23> *
| 24>
| 25> #Run DFT-D3 single point of the molecule with dimer basis set
| 26> $new_job
| 27> %base "16-46_DFT_A"
| 28> ! wB97X-D3 def2-TZVP TIGHTSCF CHELPG PMODEL
| 29>
| 30> %scf
| 31> MaxIter 1000
| 32> end
| 33>
| 34> * xyz 0 1
| 35>   C                      3.918612             -5.045741            2.896027
| 36>   O                      4.275113             -3.748419            2.773380
| 37>   H                      5.177996             -3.619790            2.820687
| 38>   H                      3.911424             -5.560728            1.980114
| 39>   H                      4.669848             -5.508734            3.468600
| 40>   H                      2.869578             -5.280809            3.312576
| 41>   C                    : 1.713433             -5.196340            6.770740
| 42>   O                    : 1.791775             -5.028510            8.127956
| 43>   H                    : 1.810049             -5.951920            8.498394
| 44>   H                    : 1.500596             -4.238577            6.340873
| 45>   H                    : 2.666201             -5.539737            6.312505
| 46>   H                    : 0.880092             -5.841664            6.551515
| 47> *
| 48>
| 49> #Run DFT-D3 single point of the particle with dimer basis set
| 50> $new_job
| 51> %base "16-46_DFT_B"
| 52> ! wB97X-D3 def2-TZVP TIGHTSCF CHELPG PMODEL
| 53>
| 54> %scf
| 55> MaxIter 1000
| 56> end
| 57>
| 58> * xyz 0 1
| 59>   C                    : 3.918612             -5.045741            2.896027
| 60>   O                    : 4.275113             -3.748419            2.773380
| 61>   H                    : 5.177996             -3.619790            2.820687
| 62>   H                    : 3.911424             -5.560728            1.980114
| 63>   H                    : 4.669848             -5.508734            3.468600
| 64>   H                    : 2.869578             -5.280809            3.312576
| 65>   C                      1.713433             -5.196340            6.770740
| 66>   O                      1.791775             -5.028510            8.127956
| 67>   H                      1.810049             -5.951920            8.498394
| 68>   H                      1.500596             -4.238577            6.340873
| 69>   H                      2.666201             -5.539737            6.312505
| 70>   H                      0.880092             -5.841664            6.551515
| 71> *
| 72>
| 73>                          ****END OF INPUT****
 Total Charge           Charge          ....    0
 Multiplicity           Mult            ....    1
 Number of Electrons    NEL             ....   36
Dispersion correction           -0.001030370
FINAL SINGLE POINT ENERGY      -231.455202849404
Dispersion correction           -0.000218031
FINAL SINGLE POINT ENERGY      -115.721958847293

CARTESIAN COORDINATES (ANGSTROEM)
---------------------------------
  C      3.918612   -5.045741    2.896027
  O      4.275113   -3.748419    2.773380
  H      5.177996   -3.619790    2.820687
  H      3.911424   -5.560728    1.980114
  H      4.669848   -5.508734    3.468600
  H      2.869578   -5.280809    3.312576
  C      1.713433   -5.196340    6.770740
  O      1.791775   -5.028510    8.127956
  H      1.810049   -5.951920    8.498394
  H      1.500596   -4.238577    6.340873
  H      2.666201   -5.539737    6.312505
  H      0.880092   -5.841664    6.551515

 Multiplicity           Mult            ....    1
 Number of Electrons    NEL             ....   18
 Basis Dimension        Dim             ....  172

ORBITAL ENERGIES
----------------

  NO   OCC          E(Eh)            E(eV)
   0   2.0000     -19.232004      -523.3294
   1   2.0000     -10.305273      -280.4207
   2   2.0000      -1.146417       -31.1956
   3   2.0000      -0.789653       -21.4876
   4   2.0000      -0.612551       -16.6684
   5   2.0000      -0.552330       -15.0297
   6   2.0000      -0.531821       -14.4716
   7   2.0000      -0.429972       -11.7001
   8   2.0000      -0.371055       -10.0969
   9   0.0000       0.084202         2.2912
  10   0.0000       0.111787         3.0419
  11   0.0000       0.147637         4.0174
  12   0.0000       0.171791         4.6747
  13   0.0000       0.180991         4.9250

MULLIKEN ATOMIC CHARGES
-----------------------
   0 C :   -0.000383
   1 O :    0.000032
   2 H :    0.000002
   3 H :   -0.000057
   4 H :   -0.000077
   5 H :    0.000012
   6 C :   -0.156872
   7 O :   -0.460460
   8 H :    0.316393
   9 H :    0.112276
  10 H :    0.089961
  11 H :    0.099173
Sum of atomic charges:    0.0000000

LOEWDIN ATOMIC CHARGES
----------------------
   0 C :   -0.001216
   1 O :   -0.000006
   2 H :   -0.000002
   3 H :   -0.000012
   4 H :   -0.000232
   5 H :   -0.000751
   6 C :   -0.423595
   7 O :   -0.058400
   8 H :    0.193836
   9 H :    0.103628
  10 H :    0.095305
  11 H :    0.091443

  Mayer bond orders larger than 0.1
B(  6-C ,  7-O ) :   1.0099 B(  6-C ,  9-H ) :   0.9741 B(  6-C , 10-H ) :   0.9726
B(  6-C , 11-H ) :   0.9854 B(  7-O ,  8-H ) :   0.8952

Dispersion correction           -0.000210349
FINAL SINGLE POINT ENERGY      -115.732676300884

DIPOLE MOMENT
-------------
                                X             Y             Z
Electronic contribution:      0.10229       0.35034       1.76269
Nuclear contribution   :     -0.14359      -0.95792      -2.02461
                        -----------------------------------------
Total Dipole Moment    :     -0.04130      -0.60759      -0.26192
                        -----------------------------------------
Magnitude (a.u.)       :      0.66293
Magnitude (Debye)      :      1.68502

Rotational constants in cm-1:     4.215163     0.881551     0.852549
Rotational constants in MHz : 126367.400535 26428.236546 25558.776931

                             ****ORCA TERMINATED NORMALLY****
TOTAL RUN TIME: 0 days 0 hours 1 minutes 5 seconds 545 msec
