                         Program Version 4.1.2  - RELEASE  -
|  1> #Run DFT-D3 single point of the dimer
|  2> ! wB97X-D3 def2-TZVP TIGHTSCF  CHELPG PAL8
|  3>
|  4> %base "37_charges"
|  5>
|  6> %scf
|  7> MaxIter 1000
|  8> end
|  9> %output
| 10>   Print[ P_Mayer ] 1
| 11>   Print[ P_NatPop ] 1
| 12>   Print[ P_Hirshfeld ] 1
| 13>   Print[ P_Mulliken ] 1
| 14>   Print [ P_Loewdin ] 1
| 15> end
| 16>
| 17> * xyz 0 1
| 18>   C                      -7.681073            -1.581794            -3.711268
| 19>   O                      -8.542083            -2.339338            -2.935673
| 20>   H                      -8.978950            -1.796220            -2.291009
| 21>   H                      -7.335353            -2.162353            -4.571457
| 22>   H                      -8.147789            -0.709696            -4.135254
| 23>   H                      -6.698819            -1.359656            -3.235639
| 24> *
| 25>
| 26>                          ****END OF INPUT****

CARTESIAN COORDINATES (ANGSTROEM)
---------------------------------
  C     -7.681073   -1.581794   -3.711268
  O     -8.542083   -2.339338   -2.935673
  H     -8.978950   -1.796220   -2.291009
  H     -7.335353   -2.162353   -4.571457
  H     -8.147789   -0.709696   -4.135254
  H     -6.698819   -1.359656   -3.235639

 Total Charge           Charge          ....    0
 Multiplicity           Mult            ....    1
 Number of Electrons    NEL             ....   18
 Basis Dimension        Dim             ....   86

ORBITAL ENERGIES
----------------

  NO   OCC          E(Eh)            E(eV)
   0   2.0000     -19.230560      -523.2901
   1   2.0000     -10.309468      -280.5349
   2   2.0000      -1.146460       -31.1968
   3   2.0000      -0.798482       -21.7278
   4   2.0000      -0.617655       -16.8072
   5   2.0000      -0.549044       -14.9402
   6   2.0000      -0.528738       -14.3877
   7   2.0000      -0.424735       -11.5576
   8   2.0000      -0.374706       -10.1963
   9   0.0000       0.119288         3.2460
  10   0.0000       0.153899         4.1878
  11   0.0000       0.204914         5.5760
  12   0.0000       0.207869         5.6564
  13   0.0000       0.227560         6.1922

MULLIKEN ATOMIC CHARGES
-----------------------
   0 C :   -0.154880
   1 O :   -0.465501
   2 H :    0.315777
   3 H :    0.113222
   4 H :    0.099809
   5 H :    0.091573
Sum of atomic charges:   -0.0000000

LOEWDIN ATOMIC CHARGES
----------------------
   0 C :   -0.413334
   1 O :   -0.047463
   2 H :    0.164376
   3 H :    0.109047
   4 H :    0.090861
   5 H :    0.096513

  Mayer bond orders larger than 0.1
B(  0-C ,  1-O ) :   1.0142 B(  0-C ,  3-H ) :   0.9739 B(  0-C ,  4-H ) :   0.9793
B(  0-C ,  5-H ) :   0.9739 B(  1-O ,  2-H ) :   0.8981

Dispersion correction           -0.000248779
FINAL SINGLE POINT ENERGY      -115.734091344086

DIPOLE MOMENT
-------------
                                X             Y             Z
Electronic contribution:     -1.21193      -1.02906       1.04052
Nuclear contribution   :      1.24909       1.65914      -0.94615
                        -----------------------------------------
Total Dipole Moment    :      0.03716       0.63009       0.09436
                        -----------------------------------------
Magnitude (a.u.)       :      0.63819
Magnitude (Debye)      :      1.62216

Rotational constants in cm-1:     4.455757     0.844981     0.823115
Rotational constants in MHz : 133580.244911 25331.886836 24676.379149

                             ****ORCA TERMINATED NORMALLY****
TOTAL RUN TIME: 0 days 0 hours 0 minutes 41 seconds 450 msec
