                         Program Version 4.1.2  - RELEASE  -
|  1> #Run DFT-D3 single point of the dimer
|  2> ! wB97X-D3 def2-TZVP TIGHTSCF CHELPG PMODEL PAL8
|  3>
|  4> %base "18-5_DFT_AB"
|  5>
|  6> %scf
|  7> MaxIter 1000
|  8> end
|  9>
| 10> * xyz 0 1
| 11>   C                      0.886549             0.822237             10.406532
| 12>   O                      -0.359793            0.971877             9.692236
| 13>   H                      -0.550626            0.048280             9.716713
| 14>   H                      1.518922             1.710716             10.116938
| 15>   H                      0.664286             0.723875             11.450918
| 16>   H                      1.397309             -0.146132            10.165140
| 17>   C                      -2.842685            3.477370             9.832134
| 18>   O                      -2.659729            4.454011             8.772866
| 19>   H                      -3.537312            4.885008             8.687711
| 20>   H                      -3.533470            2.727091             9.585934
| 21>   H                      -1.929909            3.003346             10.104780
| 22>   H                      -3.244043            4.038388             10.664281
| 23> *
| 24>
| 25> #Run DFT-D3 single point of the molecule with dimer basis set
| 26> $new_job
| 27> %base "18-5_DFT_A"
| 28> ! wB97X-D3 def2-TZVP TIGHTSCF CHELPG PMODEL
| 29>
| 30> %scf
| 31> MaxIter 1000
| 32> end
| 33>
| 34> * xyz 0 1
| 35>   C                      0.886549             0.822237             10.406532
| 36>   O                      -0.359793            0.971877             9.692236
| 37>   H                      -0.550626            0.048280             9.716713
| 38>   H                      1.518922             1.710716             10.116938
| 39>   H                      0.664286             0.723875             11.450918
| 40>   H                      1.397309             -0.146132            10.165140
| 41>   C                    : -2.842685            3.477370             9.832134
| 42>   O                    : -2.659729            4.454011             8.772866
| 43>   H                    : -3.537312            4.885008             8.687711
| 44>   H                    : -3.533470            2.727091             9.585934
| 45>   H                    : -1.929909            3.003346             10.104780
| 46>   H                    : -3.244043            4.038388             10.664281
| 47> *
| 48>
| 49> #Run DFT-D3 single point of the particle with dimer basis set
| 50> $new_job
| 51> %base "18-5_DFT_B"
| 52> ! wB97X-D3 def2-TZVP TIGHTSCF CHELPG PMODEL
| 53>
| 54> %scf
| 55> MaxIter 1000
| 56> end
| 57>
| 58> * xyz 0 1
| 59>   C                    : 0.886549             0.822237             10.406532
| 60>   O                    : -0.359793            0.971877             9.692236
| 61>   H                    : -0.550626            0.048280             9.716713
| 62>   H                    : 1.518922             1.710716             10.116938
| 63>   H                    : 0.664286             0.723875             11.450918
| 64>   H                    : 1.397309             -0.146132            10.165140
| 65>   C                      -2.842685            3.477370             9.832134
| 66>   O                      -2.659729            4.454011             8.772866
| 67>   H                      -3.537312            4.885008             8.687711
| 68>   H                      -3.533470            2.727091             9.585934
| 69>   H                      -1.929909            3.003346             10.104780
| 70>   H                      -3.244043            4.038388             10.664281
| 71> *
| 72>
| 73>                          ****END OF INPUT****
 Total Charge           Charge          ....    0
 Multiplicity           Mult            ....    1
 Number of Electrons    NEL             ....   36
Dispersion correction           -0.001248768
FINAL SINGLE POINT ENERGY      -231.459131962248
Dispersion correction           -0.000209488
FINAL SINGLE POINT ENERGY      -115.726091871609

CARTESIAN COORDINATES (ANGSTROEM)
---------------------------------
  C      0.886549    0.822237   10.406532
  O     -0.359793    0.971877    9.692236
  H     -0.550626    0.048280    9.716713
  H      1.518922    1.710716   10.116938
  H      0.664286    0.723875   11.450918
  H      1.397309   -0.146132   10.165140
  C     -2.842685    3.477370    9.832134
  O     -2.659729    4.454011    8.772866
  H     -3.537312    4.885008    8.687711
  H     -3.533470    2.727091    9.585934
  H     -1.929909    3.003346   10.104780
  H     -3.244043    4.038388   10.664281

 Multiplicity           Mult            ....    1
 Number of Electrons    NEL             ....   18
 Basis Dimension        Dim             ....  172

ORBITAL ENERGIES
----------------

  NO   OCC          E(Eh)            E(eV)
   0   2.0000     -19.229694      -523.2666
   1   2.0000     -10.306290      -280.4484
   2   2.0000      -1.121465       -30.5166
   3   2.0000      -0.800557       -21.7843
   4   2.0000      -0.600414       -16.3381
   5   2.0000      -0.544295       -14.8110
   6   2.0000      -0.527611       -14.3570
   7   2.0000      -0.439463       -11.9584
   8   2.0000      -0.372551       -10.1376
   9   0.0000       0.083948         2.2843
  10   0.0000       0.113432         3.0866
  11   0.0000       0.153794         4.1849
  12   0.0000       0.173178         4.7124
  13   0.0000       0.185919         5.0591

MULLIKEN ATOMIC CHARGES
-----------------------
   0 C :    0.000088
   1 O :    0.000238
   2 H :   -0.000040
   3 H :   -0.000040
   4 H :   -0.000085
   5 H :   -0.000006
   6 C :   -0.174818
   7 O :   -0.478236
   8 H :    0.313084
   9 H :    0.110085
  10 H :    0.122799
  11 H :    0.106930
Sum of atomic charges:   -0.0000000

LOEWDIN ATOMIC CHARGES
----------------------
   0 C :   -0.000877
   1 O :   -0.003573
   2 H :   -0.000254
   3 H :   -0.000052
   4 H :   -0.000055
   5 H :   -0.000015
   6 C :   -0.346690
   7 O :   -0.115106
   8 H :    0.179035
   9 H :    0.087324
  10 H :    0.103372
  11 H :    0.096889

  Mayer bond orders larger than 0.1
B(  6-C ,  7-O ) :   0.9966 B(  6-C ,  9-H ) :   0.9726 B(  6-C , 10-H ) :   0.9731
B(  6-C , 11-H ) :   0.9896 B(  7-O ,  8-H ) :   0.9007

Dispersion correction           -0.000223979
FINAL SINGLE POINT ENERGY      -115.731796162922

DIPOLE MOMENT
-------------
                                X             Y             Z
Electronic contribution:      0.44146       1.05624      -1.34477
Nuclear contribution   :     -1.05784      -1.21266       1.74271
                        -----------------------------------------
Total Dipole Moment    :     -0.61638      -0.15642       0.39794
                        -----------------------------------------
Magnitude (a.u.)       :      0.75016
Magnitude (Debye)      :      1.90676

Rotational constants in cm-1:     4.383934     0.808914     0.775662
Rotational constants in MHz : 131427.026508 24250.632865 23253.762047

                             ****ORCA TERMINATED NORMALLY****
TOTAL RUN TIME: 0 days 0 hours 0 minutes 58 seconds 486 msec
