                         Program Version 4.1.2  - RELEASE  -
|  1> #Run DFT-D3 single point of the dimer
|  2> ! wB97X-D3 def2-TZVP TIGHTSCF CHELPG PMODEL PAL8
|  3>
|  4> %base "10-18_DFT_AB"
|  5>
|  6> %scf
|  7> MaxIter 1000
|  8> end
|  9>
| 10> * xyz 0 1
| 11>   C                      9.584878             9.486159             -2.318972
| 12>   O                      8.406559             10.126476            -2.024404
| 13>   H                      7.795485             9.747395             -2.700372
| 14>   H                      9.401391             8.478447             -2.650509
| 15>   H                      10.200250            10.016750            -3.046298
| 16>   H                      10.196088            9.389947             -1.386170
| 17>   C                      3.771709             8.520026             -2.309033
| 18>   O                      4.367163             8.443631             -3.620214
| 19>   H                      5.116592             9.031496             -3.647781
| 20>   H                      3.720613             9.562944             -1.984320
| 21>   H                      2.808419             8.065377             -2.246526
| 22>   H                      4.336444             7.999039             -1.611922
| 23> *
| 24>
| 25> #Run DFT-D3 single point of the molecule with dimer basis set
| 26> $new_job
| 27> %base "10-18_DFT_A"
| 28> ! wB97X-D3 def2-TZVP TIGHTSCF CHELPG PMODEL
| 29>
| 30> %scf
| 31> MaxIter 1000
| 32> end
| 33>
| 34> * xyz 0 1
| 35>   C                      9.584878             9.486159             -2.318972
| 36>   O                      8.406559             10.126476            -2.024404
| 37>   H                      7.795485             9.747395             -2.700372
| 38>   H                      9.401391             8.478447             -2.650509
| 39>   H                      10.200250            10.016750            -3.046298
| 40>   H                      10.196088            9.389947             -1.386170
| 41>   C                    : 3.771709             8.520026             -2.309033
| 42>   O                    : 4.367163             8.443631             -3.620214
| 43>   H                    : 5.116592             9.031496             -3.647781
| 44>   H                    : 3.720613             9.562944             -1.984320
| 45>   H                    : 2.808419             8.065377             -2.246526
| 46>   H                    : 4.336444             7.999039             -1.611922
| 47> *
| 48>
| 49> #Run DFT-D3 single point of the particle with dimer basis set
| 50> $new_job
| 51> %base "10-18_DFT_B"
| 52> ! wB97X-D3 def2-TZVP TIGHTSCF CHELPG PMODEL
| 53>
| 54> %scf
| 55> MaxIter 1000
| 56> end
| 57>
| 58> * xyz 0 1
| 59>   C                    : 9.584878             9.486159             -2.318972
| 60>   O                    : 8.406559             10.126476            -2.024404
| 61>   H                    : 7.795485             9.747395             -2.700372
| 62>   H                    : 9.401391             8.478447             -2.650509
| 63>   H                    : 10.200250            10.016750            -3.046298
| 64>   H                    : 10.196088            9.389947             -1.386170
| 65>   C                      3.771709             8.520026             -2.309033
| 66>   O                      4.367163             8.443631             -3.620214
| 67>   H                      5.116592             9.031496             -3.647781
| 68>   H                      3.720613             9.562944             -1.984320
| 69>   H                      2.808419             8.065377             -2.246526
| 70>   H                      4.336444             7.999039             -1.611922
| 71> *
| 72>
| 73>                          ****END OF INPUT****
 Total Charge           Charge          ....    0
 Multiplicity           Mult            ....    1
 Number of Electrons    NEL             ....   36
Dispersion correction           -0.000878976
FINAL SINGLE POINT ENERGY      -231.463944756957
Dispersion correction           -0.000216259
FINAL SINGLE POINT ENERGY      -115.732253210142

CARTESIAN COORDINATES (ANGSTROEM)
---------------------------------
  C      9.584878    9.486159   -2.318972
  O      8.406559   10.126476   -2.024404
  H      7.795485    9.747395   -2.700372
  H      9.401391    8.478447   -2.650509
  H     10.200250   10.016750   -3.046298
  H     10.196088    9.389947   -1.386170
  C      3.771709    8.520026   -2.309033
  O      4.367163    8.443631   -3.620214
  H      5.116592    9.031496   -3.647781
  H      3.720613    9.562944   -1.984320
  H      2.808419    8.065377   -2.246526
  H      4.336444    7.999039   -1.611922

 Multiplicity           Mult            ....    1
 Number of Electrons    NEL             ....   18
 Basis Dimension        Dim             ....  172

ORBITAL ENERGIES
----------------

  NO   OCC          E(Eh)            E(eV)
   0   2.0000     -19.227481      -523.2064
   1   2.0000     -10.306523      -280.4547
   2   2.0000      -1.127524       -30.6815
   3   2.0000      -0.805263       -21.9123
   4   2.0000      -0.606422       -16.5016
   5   2.0000      -0.543261       -14.7829
   6   2.0000      -0.531148       -14.4533
   7   2.0000      -0.434834       -11.8324
   8   2.0000      -0.374082       -10.1793
   9   0.0000       0.077126         2.0987
  10   0.0000       0.114503         3.1158
  11   0.0000       0.153579         4.1791
  12   0.0000       0.180651         4.9158
  13   0.0000       0.195464         5.3188

MULLIKEN ATOMIC CHARGES
-----------------------
   0 C :    0.000332
   1 O :    0.000174
   2 H :   -0.001883
   3 H :   -0.000074
   4 H :   -0.000019
   5 H :   -0.000000
   6 C :   -0.160665
   7 O :   -0.484718
   8 H :    0.313974
   9 H :    0.103338
  10 H :    0.121993
  11 H :    0.107550
Sum of atomic charges:   -0.0000000

LOEWDIN ATOMIC CHARGES
----------------------
   0 C :   -0.000020
   1 O :   -0.000032
   2 H :   -0.001396
   3 H :   -0.000007
   4 H :   -0.000001
   5 H :   -0.000001
   6 C :   -0.351562
   7 O :   -0.094233
   8 H :    0.161346
   9 H :    0.098359
  10 H :    0.103978
  11 H :    0.083569

  Mayer bond orders larger than 0.1
B(  6-C ,  7-O ) :   0.9918 B(  6-C ,  9-H ) :   0.9850 B(  6-C , 10-H ) :   0.9747
B(  6-C , 11-H ) :   0.9759 B(  7-O ,  8-H ) :   0.9031

Dispersion correction           -0.000238944
FINAL SINGLE POINT ENERGY      -115.732175023798

DIPOLE MOMENT
-------------
                                X             Y             Z
Electronic contribution:      0.60047      -0.22396      -1.68341
Nuclear contribution   :     -0.37756       0.61696       2.23862
                        -----------------------------------------
Total Dipole Moment    :      0.22292       0.39299       0.55521
                        -----------------------------------------
Magnitude (a.u.)       :      0.71582
Magnitude (Debye)      :      1.81947

Rotational constants in cm-1:     4.537939     0.809300     0.776737
Rotational constants in MHz : 136043.979105 24262.216413 23285.990622

                             ****ORCA TERMINATED NORMALLY****
TOTAL RUN TIME: 0 days 0 hours 1 minutes 0 seconds 723 msec
