                         Program Version 4.1.2  - RELEASE  -
|  1> #Run DFT geometry optimization
|  2> ! wB97X-D3 def2-TZVP TIGHTSCF Grid5 FinalGrid6 Opt CHELPG PAL4
|  3>
|  4> %base "9_geo_opt"
|  5> %geom MaxIter 500
|  6> end
|  7>
|  8> %geom
|  9>   Constraints
| 10>     { A 2 1 0 C }
| 11>   end
| 12> end
| 13>
| 14>
| 15> * xyz 0 1
| 16>   C                    3.011728             -1.176889            0.595657
| 17>   O                    4.394673             -1.128050            0.874308
| 18>   H                    4.769182             -0.378271            0.411259
| 19>   H                    2.806434             -1.318965            -0.469350
| 20>   H                    2.611632             -2.040265            1.135898
| 21>   H                    2.484757             -0.284491            0.945659
| 22> *
| 23>
| 24>                          ****END OF INPUT****
 Total Charge           Charge          ....    0
 Multiplicity           Mult            ....    1
 Number of Electrons    NEL             ....   18
Dispersion correction           -0.000238679
FINAL SINGLE POINT ENERGY      -115.738021083708
Dispersion correction            ... done
Dispersion correction           -0.000238657
FINAL SINGLE POINT ENERGY      -115.738045141279
Dispersion correction            ... done
Dispersion correction           -0.000238443
FINAL SINGLE POINT ENERGY      -115.738047165017
Dispersion correction            ... done
                    ***********************HURRAY********************

CARTESIAN COORDINATES (ANGSTROEM)
---------------------------------
  C      3.011755   -1.180330    0.598174
  O      4.395475   -1.128011    0.874439
  H      4.767399   -0.377489    0.410310
  H      2.807516   -1.318221   -0.469827
  H      2.610457   -2.039302    1.134936
  H      2.485804   -0.283577    0.945399

 Multiplicity           Mult            ....    1
 Number of Electrons    NEL             ....   18
 Basis Dimension        Dim             ....   86

ORBITAL ENERGIES
----------------

  NO   OCC          E(Eh)            E(eV)
   0   2.0000     -19.228261      -523.2276
   1   2.0000     -10.315129      -280.6889
   2   2.0000      -1.136944       -30.9378
   3   2.0000      -0.795175       -21.6378
   4   2.0000      -0.611442       -16.6382
   5   2.0000      -0.541852       -14.7445
   6   2.0000      -0.526210       -14.3189
   7   2.0000      -0.434266       -11.8170
   8   2.0000      -0.373687       -10.1686
   9   0.0000       0.116549         3.1715
  10   0.0000       0.156714         4.2644
  11   0.0000       0.202552         5.5117
  12   0.0000       0.205028         5.5791
  13   0.0000       0.226252         6.1566

MULLIKEN ATOMIC CHARGES
-----------------------
   0 C :   -0.151802
   1 O :   -0.476847
   2 H :    0.312908
   3 H :    0.098773
   4 H :    0.118192
   5 H :    0.098776
Sum of atomic charges:   -0.0000000

LOEWDIN ATOMIC CHARGES
----------------------
   0 C :   -0.385153
   1 O :   -0.076317
   2 H :    0.166008
   3 H :    0.093428
   4 H :    0.108608
   5 H :    0.093427

  Mayer bond orders larger than 0.1
B(  0-C ,  1-O ) :   0.9988 B(  0-C ,  3-H ) :   0.9755 B(  0-C ,  4-H ) :   0.9750
B(  0-C ,  5-H ) :   0.9755 B(  1-O ,  2-H ) :   0.9005

Dispersion correction           -0.000238350
FINAL SINGLE POINT ENERGY      -115.738047367986

DIPOLE MOMENT
-------------
                                X             Y             Z
Electronic contribution:      1.75767      -0.03053       0.42184
Nuclear contribution   :     -2.07094       0.47835      -0.82043
                        -----------------------------------------
Total Dipole Moment    :     -0.31327       0.44783      -0.39858
                        -----------------------------------------
Magnitude (a.u.)       :      0.67643
Magnitude (Debye)      :      1.71935

Rotational constants in cm-1:     4.288473     0.833863     0.804854
Rotational constants in MHz : 128565.199241 24998.589979 24128.911703

                             ****ORCA TERMINATED NORMALLY****
TOTAL RUN TIME: 0 days 0 hours 0 minutes 50 seconds 771 msec
