                         Program Version 4.1.2  - RELEASE  -
|  1> #Run DFT-D3 single point of the dimer
|  2> ! wB97X-D3 def2-TZVP TIGHTSCF CHELPG PMODEL PAL8
|  3>
|  4> %base "20-79_DFT_AB"
|  5>
|  6> %scf
|  7> MaxIter 1000
|  8> end
|  9>
| 10> * xyz 0 1
| 11>   C                      -2.839955            -3.953407            -0.078150
| 12>   O                      -2.008247            -2.946951            0.371114
| 13>   H                      -2.187683            -2.219467            -0.178250
| 14>   H                      -3.058394            -3.772306            -1.120352
| 15>   H                      -2.431864            -4.948480            0.016022
| 16>   H                      -3.792097            -3.920621            0.402216
| 17>   C                      -1.246376            -6.785112            3.235569
| 18>   O                      -1.731775            -5.723574            2.361640
| 19>   H                      -2.029969            -6.162378            1.487465
| 20>   H                      -1.333332            -7.757998            2.824304
| 21>   H                      -0.201581            -6.541920            3.488338
| 22>   H                      -1.815348            -6.841643            4.134731
| 23> *
| 24>
| 25> #Run DFT-D3 single point of the molecule with dimer basis set
| 26> $new_job
| 27> %base "20-79_DFT_A"
| 28> ! wB97X-D3 def2-TZVP TIGHTSCF CHELPG PMODEL
| 29>
| 30> %scf
| 31> MaxIter 1000
| 32> end
| 33>
| 34> * xyz 0 1
| 35>   C                      -2.839955            -3.953407            -0.078150
| 36>   O                      -2.008247            -2.946951            0.371114
| 37>   H                      -2.187683            -2.219467            -0.178250
| 38>   H                      -3.058394            -3.772306            -1.120352
| 39>   H                      -2.431864            -4.948480            0.016022
| 40>   H                      -3.792097            -3.920621            0.402216
| 41>   C                    : -1.246376            -6.785112            3.235569
| 42>   O                    : -1.731775            -5.723574            2.361640
| 43>   H                    : -2.029969            -6.162378            1.487465
| 44>   H                    : -1.333332            -7.757998            2.824304
| 45>   H                    : -0.201581            -6.541920            3.488338
| 46>   H                    : -1.815348            -6.841643            4.134731
| 47> *
| 48>
| 49> #Run DFT-D3 single point of the particle with dimer basis set
| 50> $new_job
| 51> %base "20-79_DFT_B"
| 52> ! wB97X-D3 def2-TZVP TIGHTSCF CHELPG PMODEL
| 53>
| 54> %scf
| 55> MaxIter 1000
| 56> end
| 57>
| 58> * xyz 0 1
| 59>   C                    : -2.839955            -3.953407            -0.078150
| 60>   O                    : -2.008247            -2.946951            0.371114
| 61>   H                    : -2.187683            -2.219467            -0.178250
| 62>   H                    : -3.058394            -3.772306            -1.120352
| 63>   H                    : -2.431864            -4.948480            0.016022
| 64>   H                    : -3.792097            -3.920621            0.402216
| 65>   C                      -1.246376            -6.785112            3.235569
| 66>   O                      -1.731775            -5.723574            2.361640
| 67>   H                      -2.029969            -6.162378            1.487465
| 68>   H                      -1.333332            -7.757998            2.824304
| 69>   H                      -0.201581            -6.541920            3.488338
| 70>   H                      -1.815348            -6.841643            4.134731
| 71> *
| 72>
| 73>                          ****END OF INPUT****
 Total Charge           Charge          ....    0
 Multiplicity           Mult            ....    1
 Number of Electrons    NEL             ....   36
Dispersion correction           -0.001494676
FINAL SINGLE POINT ENERGY      -231.457977885470
Dispersion correction           -0.000207890
FINAL SINGLE POINT ENERGY      -115.731771265350

CARTESIAN COORDINATES (ANGSTROEM)
---------------------------------
  C     -2.839955   -3.953407   -0.078150
  O     -2.008247   -2.946951    0.371114
  H     -2.187683   -2.219467   -0.178250
  H     -3.058394   -3.772306   -1.120352
  H     -2.431864   -4.948480    0.016022
  H     -3.792097   -3.920621    0.402216
  C     -1.246376   -6.785112    3.235569
  O     -1.731775   -5.723574    2.361640
  H     -2.029969   -6.162378    1.487465
  H     -1.333332   -7.757998    2.824304
  H     -0.201581   -6.541920    3.488338
  H     -1.815348   -6.841643    4.134731

 Multiplicity           Mult            ....    1
 Number of Electrons    NEL             ....   18
 Basis Dimension        Dim             ....  172

ORBITAL ENERGIES
----------------

  NO   OCC          E(Eh)            E(eV)
   0   2.0000     -19.235117      -523.4141
   1   2.0000     -10.310278      -280.5569
   2   2.0000      -1.111797       -30.2535
   3   2.0000      -0.797492       -21.7009
   4   2.0000      -0.600506       -16.3406
   5   2.0000      -0.536700       -14.6043
   6   2.0000      -0.518937       -14.1210
   7   2.0000      -0.438949       -11.9444
   8   2.0000      -0.372852       -10.1458
   9   0.0000       0.085584         2.3289
  10   0.0000       0.120571         3.2809
  11   0.0000       0.150952         4.1076
  12   0.0000       0.181062         4.9269
  13   0.0000       0.193510         5.2657

MULLIKEN ATOMIC CHARGES
-----------------------
   0 C :   -0.001517
   1 O :    0.000302
   2 H :    0.000045
   3 H :   -0.000102
   4 H :   -0.004617
   5 H :   -0.000542
   6 C :   -0.177023
   7 O :   -0.477792
   8 H :    0.318769
   9 H :    0.114054
  10 H :    0.113837
  11 H :    0.114585
Sum of atomic charges:   -0.0000000

LOEWDIN ATOMIC CHARGES
----------------------
   0 C :   -0.011491
   1 O :   -0.000953
   2 H :   -0.000038
   3 H :   -0.000091
   4 H :   -0.008777
   5 H :   -0.000735
   6 C :   -0.351660
   7 O :   -0.125185
   8 H :    0.207269
   9 H :    0.090803
  10 H :    0.105434
  11 H :    0.095424

  Mayer bond orders larger than 0.1
B(  6-C ,  7-O ) :   1.0035 B(  6-C ,  9-H ) :   0.9793 B(  6-C , 10-H ) :   0.9793
B(  6-C , 11-H ) :   0.9743 B(  7-O ,  8-H ) :   0.8920

Dispersion correction           -0.000264318
FINAL SINGLE POINT ENERGY      -115.729297049575

DIPOLE MOMENT
-------------
                                X             Y             Z
Electronic contribution:     -0.57594       1.36835      -0.97102
Nuclear contribution   :      0.58240      -2.11523       0.80532
                        -----------------------------------------
Total Dipole Moment    :      0.00646      -0.74688      -0.16569
                        -----------------------------------------
Magnitude (a.u.)       :      0.76506
Magnitude (Debye)      :      1.94464

Rotational constants in cm-1:     4.288800     0.791516     0.761643
Rotational constants in MHz : 128574.996837 23729.066839 22833.468504

                             ****ORCA TERMINATED NORMALLY****
TOTAL RUN TIME: 0 days 0 hours 0 minutes 59 seconds 85 msec
