                         Program Version 4.1.2  - RELEASE  -
|  1> #Run DFT-D3 single point of the dimer
|  2> ! wB97X-D3 def2-TZVP TIGHTSCF CHELPG PMODEL PAL8
|  3>
|  4> %base "15-14_DFT_AB"
|  5>
|  6> %scf
|  7> MaxIter 1000
|  8> end
|  9>
| 10> * xyz 0 1
| 11>   C                      -9.116109            5.828608             -3.149760
| 12>   O                      -8.666366            7.180685             -3.469790
| 13>   H                      -8.814491            7.394887             -4.363041
| 14>   H                      -9.459913            5.864401             -2.148955
| 15>   H                      -9.944737            5.470337             -3.807818
| 16>   H                      -8.309017            5.140862             -3.188582
| 17>   C                      -10.712358           9.250618             -5.767427
| 18>   O                      -9.897446            10.368111            -5.606062
| 19>   H                      -9.531624            10.441435            -4.709248
| 20>   H                      -10.129557           8.401606             -5.946729
| 21>   H                      -11.345808           8.915934             -4.832271
| 22>   H                      -11.364078           9.504002             -6.655800
| 23> *
| 24>
| 25> #Run DFT-D3 single point of the molecule with dimer basis set
| 26> $new_job
| 27> %base "15-14_DFT_A"
| 28> ! wB97X-D3 def2-TZVP TIGHTSCF CHELPG PMODEL
| 29>
| 30> %scf
| 31> MaxIter 1000
| 32> end
| 33>
| 34> * xyz 0 1
| 35>   C                      -9.116109            5.828608             -3.149760
| 36>   O                      -8.666366            7.180685             -3.469790
| 37>   H                      -8.814491            7.394887             -4.363041
| 38>   H                      -9.459913            5.864401             -2.148955
| 39>   H                      -9.944737            5.470337             -3.807818
| 40>   H                      -8.309017            5.140862             -3.188582
| 41>   C                    : -10.712358           9.250618             -5.767427
| 42>   O                    : -9.897446            10.368111            -5.606062
| 43>   H                    : -9.531624            10.441435            -4.709248
| 44>   H                    : -10.129557           8.401606             -5.946729
| 45>   H                    : -11.345808           8.915934             -4.832271
| 46>   H                    : -11.364078           9.504002             -6.655800
| 47> *
| 48>
| 49> #Run DFT-D3 single point of the particle with dimer basis set
| 50> $new_job
| 51> %base "15-14_DFT_B"
| 52> ! wB97X-D3 def2-TZVP TIGHTSCF CHELPG PMODEL
| 53>
| 54> %scf
| 55> MaxIter 1000
| 56> end
| 57>
| 58> * xyz 0 1
| 59>   C                    : -9.116109            5.828608             -3.149760
| 60>   O                    : -8.666366            7.180685             -3.469790
| 61>   H                    : -8.814491            7.394887             -4.363041
| 62>   H                    : -9.459913            5.864401             -2.148955
| 63>   H                    : -9.944737            5.470337             -3.807818
| 64>   H                    : -8.309017            5.140862             -3.188582
| 65>   C                      -10.712358           9.250618             -5.767427
| 66>   O                      -9.897446            10.368111            -5.606062
| 67>   H                      -9.531624            10.441435            -4.709248
| 68>   H                      -10.129557           8.401606             -5.946729
| 69>   H                      -11.345808           8.915934             -4.832271
| 70>   H                      -11.364078           9.504002             -6.655800
| 71> *
| 72>
| 73>                          ****END OF INPUT****
 Total Charge           Charge          ....    0
 Multiplicity           Mult            ....    1
 Number of Electrons    NEL             ....   36
Dispersion correction           -0.001637067
FINAL SINGLE POINT ENERGY      -231.462700403396
Dispersion correction           -0.000266839
FINAL SINGLE POINT ENERGY      -115.733103867197

CARTESIAN COORDINATES (ANGSTROEM)
---------------------------------
  C     -9.116109    5.828608   -3.149760
  O     -8.666366    7.180685   -3.469790
  H     -8.814491    7.394887   -4.363041
  H     -9.459913    5.864401   -2.148955
  H     -9.944737    5.470337   -3.807818
  H     -8.309017    5.140862   -3.188582
  C    -10.712358    9.250618   -5.767427
  O     -9.897446   10.368111   -5.606062
  H     -9.531624   10.441435   -4.709248
  H    -10.129557    8.401606   -5.946729
  H    -11.345808    8.915934   -4.832271
  H    -11.364078    9.504002   -6.655800

 Multiplicity           Mult            ....    1
 Number of Electrons    NEL             ....   18
 Basis Dimension        Dim             ....  172

ORBITAL ENERGIES
----------------

  NO   OCC          E(Eh)            E(eV)
   0   2.0000     -19.230488      -523.2882
   1   2.0000     -10.318035      -280.7680
   2   2.0000      -1.138879       -30.9905
   3   2.0000      -0.791672       -21.5425
   4   2.0000      -0.617005       -16.7896
   5   2.0000      -0.539100       -14.6696
   6   2.0000      -0.521810       -14.1992
   7   2.0000      -0.428758       -11.6671
   8   2.0000      -0.370035       -10.0692
   9   0.0000       0.079103         2.1525
  10   0.0000       0.115711         3.1487
  11   0.0000       0.151180         4.1138
  12   0.0000       0.172026         4.6811
  13   0.0000       0.187425         5.1001

MULLIKEN ATOMIC CHARGES
-----------------------
   0 C :   -0.000521
   1 O :   -0.000195
   2 H :    0.001800
   3 H :   -0.000026
   4 H :   -0.000057
   5 H :    0.000000
   6 C :   -0.168217
   7 O :   -0.478933
   8 H :    0.318140
   9 H :    0.110121
  10 H :    0.091809
  11 H :    0.126080
Sum of atomic charges:    0.0000000

LOEWDIN ATOMIC CHARGES
----------------------
   0 C :   -0.000362
   1 O :   -0.000496
   2 H :   -0.004478
   3 H :   -0.000006
   4 H :   -0.000103
   5 H :   -0.000004
   6 C :   -0.407069
   7 O :   -0.067474
   8 H :    0.174506
   9 H :    0.082034
  10 H :    0.105456
  11 H :    0.117995

  Mayer bond orders larger than 0.1
B(  6-C ,  7-O ) :   0.9989 B(  6-C ,  9-H ) :   0.9713 B(  6-C , 10-H ) :   0.9717
B(  6-C , 11-H ) :   0.9755 B(  7-O ,  8-H ) :   0.8927

Dispersion correction           -0.000259944
FINAL SINGLE POINT ENERGY      -115.728013873316

DIPOLE MOMENT
-------------
                                X             Y             Z
Electronic contribution:      1.08608       1.48638       0.05147
Nuclear contribution   :     -1.12883      -1.87213       0.45756
                        -----------------------------------------
Total Dipole Moment    :     -0.04275      -0.38575       0.50902
                        -----------------------------------------
Magnitude (a.u.)       :      0.64011
Magnitude (Debye)      :      1.62702

Rotational constants in cm-1:     4.170238     0.850209     0.804566
Rotational constants in MHz : 125020.576493 25488.611736 24120.287611

                             ****ORCA TERMINATED NORMALLY****
TOTAL RUN TIME: 0 days 0 hours 0 minutes 57 seconds 183 msec
