                         Program Version 4.1.2  - RELEASE  -
|  1> #Run DFT-D3 single point of the dimer
|  2> ! wB97X-D3 def2-TZVP TIGHTSCF CHELPG PMODEL PAL8
|  3>
|  4> %base "6-126_DFT_AB"
|  5>
|  6> %scf
|  7> MaxIter 1000
|  8> end
|  9>
| 10> * xyz 0 1
| 11>   C                      -1.936839            -7.101095            -2.876770
| 12>   O                      -3.061484            -6.946725            -2.043370
| 13>   H                      -3.335684            -6.055807            -2.122500
| 14>   H                      -1.004453            -6.991422            -2.356135
| 15>   H                      -1.884352            -8.095574            -3.432958
| 16>   H                      -1.945391            -6.367581            -3.715468
| 17>   C                      -3.724706            -3.539969            -0.684343
| 18>   O                      -4.811907            -3.867002            -1.552285
| 19>   H                      -5.140295            -3.032049            -1.928228
| 20>   H                      -3.151461            -4.402956            -0.364138
| 21>   H                      -3.067801            -2.758398            -1.100880
| 22>   H                      -4.061478            -3.141803            0.297262
| 23> *
| 24>
| 25> #Run DFT-D3 single point of the molecule with dimer basis set
| 26> $new_job
| 27> %base "6-126_DFT_A"
| 28> ! wB97X-D3 def2-TZVP TIGHTSCF CHELPG PMODEL
| 29>
| 30> %scf
| 31> MaxIter 1000
| 32> end
| 33>
| 34> * xyz 0 1
| 35>   C                      -1.936839            -7.101095            -2.876770
| 36>   O                      -3.061484            -6.946725            -2.043370
| 37>   H                      -3.335684            -6.055807            -2.122500
| 38>   H                      -1.004453            -6.991422            -2.356135
| 39>   H                      -1.884352            -8.095574            -3.432958
| 40>   H                      -1.945391            -6.367581            -3.715468
| 41>   C                    : -3.724706            -3.539969            -0.684343
| 42>   O                    : -4.811907            -3.867002            -1.552285
| 43>   H                    : -5.140295            -3.032049            -1.928228
| 44>   H                    : -3.151461            -4.402956            -0.364138
| 45>   H                    : -3.067801            -2.758398            -1.100880
| 46>   H                    : -4.061478            -3.141803            0.297262
| 47> *
| 48>
| 49> #Run DFT-D3 single point of the particle with dimer basis set
| 50> $new_job
| 51> %base "6-126_DFT_B"
| 52> ! wB97X-D3 def2-TZVP TIGHTSCF CHELPG PMODEL
| 53>
| 54> %scf
| 55> MaxIter 1000
| 56> end
| 57>
| 58> * xyz 0 1
| 59>   C                    : -1.936839            -7.101095            -2.876770
| 60>   O                    : -3.061484            -6.946725            -2.043370
| 61>   H                    : -3.335684            -6.055807            -2.122500
| 62>   H                    : -1.004453            -6.991422            -2.356135
| 63>   H                    : -1.884352            -8.095574            -3.432958
| 64>   H                    : -1.945391            -6.367581            -3.715468
| 65>   C                      -3.724706            -3.539969            -0.684343
| 66>   O                      -4.811907            -3.867002            -1.552285
| 67>   H                      -5.140295            -3.032049            -1.928228
| 68>   H                      -3.151461            -4.402956            -0.364138
| 69>   H                      -3.067801            -2.758398            -1.100880
| 70>   H                      -4.061478            -3.141803            0.297262
| 71> *
| 72>
| 73>                          ****END OF INPUT****
 Total Charge           Charge          ....    0
 Multiplicity           Mult            ....    1
 Number of Electrons    NEL             ....   36
Dispersion correction           -0.001582364
FINAL SINGLE POINT ENERGY      -231.470222176489
Dispersion correction           -0.000252825
FINAL SINGLE POINT ENERGY      -115.732711742617

CARTESIAN COORDINATES (ANGSTROEM)
---------------------------------
  C     -1.936839   -7.101095   -2.876770
  O     -3.061484   -6.946725   -2.043370
  H     -3.335684   -6.055807   -2.122500
  H     -1.004453   -6.991422   -2.356135
  H     -1.884352   -8.095574   -3.432958
  H     -1.945391   -6.367581   -3.715468
  C     -3.724706   -3.539969   -0.684343
  O     -4.811907   -3.867002   -1.552285
  H     -5.140295   -3.032049   -1.928228
  H     -3.151461   -4.402956   -0.364138
  H     -3.067801   -2.758398   -1.100880
  H     -4.061478   -3.141803    0.297262

 Multiplicity           Mult            ....    1
 Number of Electrons    NEL             ....   18
 Basis Dimension        Dim             ....  172

ORBITAL ENERGIES
----------------

  NO   OCC          E(Eh)            E(eV)
   0   2.0000     -19.234629      -523.4009
   1   2.0000     -10.316730      -280.7325
   2   2.0000      -1.130993       -30.7759
   3   2.0000      -0.795628       -21.6501
   4   2.0000      -0.608495       -16.5580
   5   2.0000      -0.537768       -14.6334
   6   2.0000      -0.524392       -14.2694
   7   2.0000      -0.438327       -11.9275
   8   2.0000      -0.372460       -10.1351
   9   0.0000       0.092686         2.5221
  10   0.0000       0.116635         3.1738
  11   0.0000       0.149917         4.0795
  12   0.0000       0.179610         4.8874
  13   0.0000       0.199029         5.4158

MULLIKEN ATOMIC CHARGES
-----------------------
   0 C :   -0.000402
   1 O :   -0.000516
   2 H :    0.000197
   3 H :   -0.000029
   4 H :   -0.000005
   5 H :   -0.000211
   6 C :   -0.181528
   7 O :   -0.469057
   8 H :    0.315866
   9 H :    0.126588
  10 H :    0.109613
  11 H :    0.099486
Sum of atomic charges:   -0.0000000

LOEWDIN ATOMIC CHARGES
----------------------
   0 C :   -0.000338
   1 O :   -0.000799
   2 H :   -0.006871
   3 H :   -0.000036
   4 H :   -0.000004
   5 H :   -0.000041
   6 C :   -0.382394
   7 O :   -0.087296
   8 H :    0.177124
   9 H :    0.106935
  10 H :    0.097468
  11 H :    0.096253

  Mayer bond orders larger than 0.1
B(  6-C ,  7-O ) :   0.9974 B(  6-C ,  9-H ) :   0.9754 B(  6-C , 10-H ) :   0.9774
B(  6-C , 11-H ) :   0.9733 B(  7-O ,  8-H ) :   0.8958

Dispersion correction           -0.000259091
FINAL SINGLE POINT ENERGY      -115.734022456485

DIPOLE MOMENT
-------------
                                X             Y             Z
Electronic contribution:     -1.37180      -0.63823      -1.20796
Nuclear contribution   :      1.60109       1.28631       1.32596
                        -----------------------------------------
Total Dipole Moment    :      0.22929       0.64808       0.11800
                        -----------------------------------------
Magnitude (a.u.)       :      0.69750
Magnitude (Debye)      :      1.77290

Rotational constants in cm-1:     4.336251     0.810221     0.776064
Rotational constants in MHz : 129997.531286 24289.812512 23265.820702

                             ****ORCA TERMINATED NORMALLY****
TOTAL RUN TIME: 0 days 0 hours 1 minutes 5 seconds 820 msec
