                         Program Version 4.1.2  - RELEASE  -
|  1> #Run DFT-D3 single point of the dimer
|  2> ! wB97X-D3 def2-TZVP TIGHTSCF CHELPG PMODEL PAL8
|  3>
|  4> %base "13-40_DFT_AB"
|  5>
|  6> %scf
|  7> MaxIter 1000
|  8> end
|  9>
| 10> * xyz 0 1
| 11>   C                      2.238468             -1.442492            -1.376394
| 12>   O                      1.121689             -1.733540            -0.514272
| 13>   H                      1.431541             -2.499082            -0.058163
| 14>   H                      3.190386             -1.760322            -0.835746
| 15>   H                      2.025457             -1.974779            -2.354060
| 16>   H                      2.293692             -0.377440            -1.575006
| 17>   C                      0.922069             2.397543             -2.403654
| 18>   O                      1.090850             1.893788             -3.723139
| 19>   H                      2.030726             1.818473             -3.731177
| 20>   H                      -0.032940            3.018168             -2.168044
| 21>   H                      1.074150             1.541091             -1.683846
| 22>   H                      1.780223             3.123276             -2.281301
| 23> *
| 24>
| 25> #Run DFT-D3 single point of the molecule with dimer basis set
| 26> $new_job
| 27> %base "13-40_DFT_A"
| 28> ! wB97X-D3 def2-TZVP TIGHTSCF CHELPG PMODEL
| 29>
| 30> %scf
| 31> MaxIter 1000
| 32> end
| 33>
| 34> * xyz 0 1
| 35>   C                      2.238468             -1.442492            -1.376394
| 36>   O                      1.121689             -1.733540            -0.514272
| 37>   H                      1.431541             -2.499082            -0.058163
| 38>   H                      3.190386             -1.760322            -0.835746
| 39>   H                      2.025457             -1.974779            -2.354060
| 40>   H                      2.293692             -0.377440            -1.575006
| 41>   C                    : 0.922069             2.397543             -2.403654
| 42>   O                    : 1.090850             1.893788             -3.723139
| 43>   H                    : 2.030726             1.818473             -3.731177
| 44>   H                    : -0.032940            3.018168             -2.168044
| 45>   H                    : 1.074150             1.541091             -1.683846
| 46>   H                    : 1.780223             3.123276             -2.281301
| 47> *
| 48>
| 49> #Run DFT-D3 single point of the particle with dimer basis set
| 50> $new_job
| 51> %base "13-40_DFT_B"
| 52> ! wB97X-D3 def2-TZVP TIGHTSCF CHELPG PMODEL
| 53>
| 54> %scf
| 55> MaxIter 1000
| 56> end
| 57>
| 58> * xyz 0 1
| 59>   C                    : 2.238468             -1.442492            -1.376394
| 60>   O                    : 1.121689             -1.733540            -0.514272
| 61>   H                    : 1.431541             -2.499082            -0.058163
| 62>   H                    : 3.190386             -1.760322            -0.835746
| 63>   H                    : 2.025457             -1.974779            -2.354060
| 64>   H                    : 2.293692             -0.377440            -1.575006
| 65>   C                      0.922069             2.397543             -2.403654
| 66>   O                      1.090850             1.893788             -3.723139
| 67>   H                      2.030726             1.818473             -3.731177
| 68>   H                      -0.032940            3.018168             -2.168044
| 69>   H                      1.074150             1.541091             -1.683846
| 70>   H                      1.780223             3.123276             -2.281301
| 71> *
| 72>
| 73>                          ****END OF INPUT****
 Total Charge           Charge          ....    0
 Multiplicity           Mult            ....    1
 Number of Electrons    NEL             ....   36
Dispersion correction           -0.001412781
FINAL SINGLE POINT ENERGY      -231.455037827716
Dispersion correction           -0.000233270
FINAL SINGLE POINT ENERGY      -115.730691423025

CARTESIAN COORDINATES (ANGSTROEM)
---------------------------------
  C      2.238468   -1.442492   -1.376394
  O      1.121689   -1.733540   -0.514272
  H      1.431541   -2.499082   -0.058163
  H      3.190386   -1.760322   -0.835746
  H      2.025457   -1.974779   -2.354060
  H      2.293692   -0.377440   -1.575006
  C      0.922069    2.397543   -2.403654
  O      1.090850    1.893788   -3.723139
  H      2.030726    1.818473   -3.731177
  H     -0.032940    3.018168   -2.168044
  H      1.074150    1.541091   -1.683846
  H      1.780223    3.123276   -2.281301

 Multiplicity           Mult            ....    1
 Number of Electrons    NEL             ....   18
 Basis Dimension        Dim             ....  172

ORBITAL ENERGIES
----------------

  NO   OCC          E(Eh)            E(eV)
   0   2.0000     -19.231279      -523.3097
   1   2.0000     -10.330775      -281.1147
   2   2.0000      -1.145761       -31.1777
   3   2.0000      -0.781233       -21.2584
   4   2.0000      -0.607634       -16.5346
   5   2.0000      -0.543412       -14.7870
   6   2.0000      -0.526091       -14.3157
   7   2.0000      -0.433331       -11.7915
   8   2.0000      -0.373248       -10.1566
   9   0.0000       0.082642         2.2488
  10   0.0000       0.117462         3.1963
  11   0.0000       0.149386         4.0650
  12   0.0000       0.171414         4.6644
  13   0.0000       0.181245         4.9319

MULLIKEN ATOMIC CHARGES
-----------------------
   0 C :   -0.001046
   1 O :   -0.000176
   2 H :   -0.000014
   3 H :    0.000235
   4 H :   -0.000167
   5 H :    0.002312
   6 C :   -0.198202
   7 O :   -0.451819
   8 H :    0.313614
   9 H :    0.131210
  10 H :    0.102267
  11 H :    0.101785
Sum of atomic charges:   -0.0000000

LOEWDIN ATOMIC CHARGES
----------------------
   0 C :   -0.002669
   1 O :   -0.000148
   2 H :   -0.000005
   3 H :   -0.000010
   4 H :   -0.000085
   5 H :   -0.004282
   6 C :   -0.399311
   7 O :   -0.078509
   8 H :    0.162857
   9 H :    0.119657
  10 H :    0.101599
  11 H :    0.100907

  Mayer bond orders larger than 0.1
B(  6-C ,  7-O ) :   0.9935 B(  6-C ,  9-H ) :   0.9660 B(  6-C , 10-H ) :   0.9684
B(  6-C , 11-H ) :   0.9941 B(  7-O ,  8-H ) :   0.9054

Dispersion correction           -0.000228027
FINAL SINGLE POINT ENERGY      -115.723961911644

DIPOLE MOMENT
-------------
                                X             Y             Z
Electronic contribution:     -0.11574      -0.70213      -1.77528
Nuclear contribution   :      0.63898       0.86711       2.25794
                        -----------------------------------------
Total Dipole Moment    :      0.52324       0.16498       0.48266
                        -----------------------------------------
Magnitude (a.u.)       :      0.73072
Magnitude (Debye)      :      1.85735

Rotational constants in cm-1:     3.989532     0.826052     0.798075
Rotational constants in MHz : 119603.169848 24764.420173 23925.679005

                             ****ORCA TERMINATED NORMALLY****
TOTAL RUN TIME: 0 days 0 hours 1 minutes 2 seconds 474 msec
