                         Program Version 4.1.2  - RELEASE  -
|  1> #Run DFT-D3 single point of the dimer
|  2> ! wB97X-D3 def2-TZVP TIGHTSCF CHELPG PMODEL PAL8
|  3>
|  4> %base "21-184_DFT_AB"
|  5>
|  6> %scf
|  7> MaxIter 1000
|  8> end
|  9>
| 10> * xyz 0 1
| 11>   C                      -0.209073            7.246687             3.659188
| 12>   O                      -1.346885            8.025318             3.141750
| 13>   H                      -1.003598            8.635182             2.472548
| 14>   H                      0.609450             7.974867             3.989157
| 15>   H                      -0.527729            6.725133             4.575650
| 16>   H                      0.160751             6.566100             2.895262
| 17>   C                      -3.782479            10.984595            1.131627
| 18>   O                      -3.045239            9.851544             1.407875
| 19>   H                      -3.630610            9.098994             1.411033
| 20>   H                      -3.985685            11.000061            0.096423
| 21>   H                      -4.727212            10.948304            1.629706
| 22>   H                      -3.228870            11.945001            1.318328
| 23> *
| 24>
| 25> #Run DFT-D3 single point of the molecule with dimer basis set
| 26> $new_job
| 27> %base "21-184_DFT_A"
| 28> ! wB97X-D3 def2-TZVP TIGHTSCF CHELPG PMODEL
| 29>
| 30> %scf
| 31> MaxIter 1000
| 32> end
| 33>
| 34> * xyz 0 1
| 35>   C                      -0.209073            7.246687             3.659188
| 36>   O                      -1.346885            8.025318             3.141750
| 37>   H                      -1.003598            8.635182             2.472548
| 38>   H                      0.609450             7.974867             3.989157
| 39>   H                      -0.527729            6.725133             4.575650
| 40>   H                      0.160751             6.566100             2.895262
| 41>   C                    : -3.782479            10.984595            1.131627
| 42>   O                    : -3.045239            9.851544             1.407875
| 43>   H                    : -3.630610            9.098994             1.411033
| 44>   H                    : -3.985685            11.000061            0.096423
| 45>   H                    : -4.727212            10.948304            1.629706
| 46>   H                    : -3.228870            11.945001            1.318328
| 47> *
| 48>
| 49> #Run DFT-D3 single point of the particle with dimer basis set
| 50> $new_job
| 51> %base "21-184_DFT_B"
| 52> ! wB97X-D3 def2-TZVP TIGHTSCF CHELPG PMODEL
| 53>
| 54> %scf
| 55> MaxIter 1000
| 56> end
| 57>
| 58> * xyz 0 1
| 59>   C                    : -0.209073            7.246687             3.659188
| 60>   O                    : -1.346885            8.025318             3.141750
| 61>   H                    : -1.003598            8.635182             2.472548
| 62>   H                    : 0.609450             7.974867             3.989157
| 63>   H                    : -0.527729            6.725133             4.575650
| 64>   H                    : 0.160751             6.566100             2.895262
| 65>   C                      -3.782479            10.984595            1.131627
| 66>   O                      -3.045239            9.851544             1.407875
| 67>   H                      -3.630610            9.098994             1.411033
| 68>   H                      -3.985685            11.000061            0.096423
| 69>   H                      -4.727212            10.948304            1.629706
| 70>   H                      -3.228870            11.945001            1.318328
| 71> *
| 72>
| 73>                          ****END OF INPUT****
 Total Charge           Charge          ....    0
 Multiplicity           Mult            ....    1
 Number of Electrons    NEL             ....   36
Dispersion correction           -0.001227660
FINAL SINGLE POINT ENERGY      -231.468127669638
Dispersion correction           -0.000262623
FINAL SINGLE POINT ENERGY      -115.733382782274

CARTESIAN COORDINATES (ANGSTROEM)
---------------------------------
  C     -0.209073    7.246687    3.659188
  O     -1.346885    8.025318    3.141750
  H     -1.003598    8.635182    2.472548
  H      0.609450    7.974867    3.989157
  H     -0.527729    6.725133    4.575650
  H      0.160751    6.566100    2.895262
  C     -3.782479   10.984595    1.131627
  O     -3.045239    9.851544    1.407875
  H     -3.630610    9.098994    1.411033
  H     -3.985685   11.000061    0.096423
  H     -4.727212   10.948304    1.629706
  H     -3.228870   11.945001    1.318328

 Multiplicity           Mult            ....    1
 Number of Electrons    NEL             ....   18
 Basis Dimension        Dim             ....  172

ORBITAL ENERGIES
----------------

  NO   OCC          E(Eh)            E(eV)
   0   2.0000     -19.227159      -523.1976
   1   2.0000     -10.305913      -280.4382
   2   2.0000      -1.147785       -31.2328
   3   2.0000      -0.797070       -21.6894
   4   2.0000      -0.620372       -16.8812
   5   2.0000      -0.549369       -14.9491
   6   2.0000      -0.532887       -14.5006
   7   2.0000      -0.431541       -11.7428
   8   2.0000      -0.368672       -10.0321
   9   0.0000       0.095596         2.6013
  10   0.0000       0.117507         3.1975
  11   0.0000       0.155927         4.2430
  12   0.0000       0.190178         5.1750
  13   0.0000       0.204614         5.5678

MULLIKEN ATOMIC CHARGES
-----------------------
   0 C :    0.000273
   1 O :   -0.000293
   2 H :   -0.007161
   3 H :   -0.000004
   4 H :    0.000023
   5 H :   -0.000026
   6 C :   -0.152271
   7 O :   -0.466268
   8 H :    0.315325
   9 H :    0.098140
  10 H :    0.098096
  11 H :    0.114163
Sum of atomic charges:    0.0000000

LOEWDIN ATOMIC CHARGES
----------------------
   0 C :   -0.000195
   1 O :   -0.005308
   2 H :   -0.010322
   3 H :   -0.000004
   4 H :   -0.000006
   5 H :   -0.000004
   6 C :   -0.404536
   7 O :   -0.040784
   8 H :    0.169556
   9 H :    0.086390
  10 H :    0.089996
  11 H :    0.115217

  Mayer bond orders larger than 0.1
B(  6-C ,  7-O ) :   0.9913 B(  6-C ,  9-H ) :   0.9808 B(  6-C , 10-H ) :   0.9836
B(  6-C , 11-H ) :   0.9719 B(  7-O ,  8-H ) :   0.8960

Dispersion correction           -0.000211236
FINAL SINGLE POINT ENERGY      -115.731413126653

DIPOLE MOMENT
-------------
                                X             Y             Z
Electronic contribution:      1.05550      -1.38225       0.45122
Nuclear contribution   :     -1.73863       1.33928      -0.57379
                        -----------------------------------------
Total Dipole Moment    :     -0.68313      -0.04297      -0.12258
                        -----------------------------------------
Magnitude (a.u.)       :      0.69537
Magnitude (Debye)      :      1.76750

Rotational constants in cm-1:     4.414004     0.872888     0.830385
Rotational constants in MHz : 132328.499208 26168.538539 24894.312396

                             ****ORCA TERMINATED NORMALLY****
TOTAL RUN TIME: 0 days 0 hours 1 minutes 2 seconds 38 msec
