                         Program Version 4.1.2  - RELEASE  -
|  1> #Run DFT-D3 single point of the dimer
|  2> ! wB97X-D3 def2-TZVP TIGHTSCF CHELPG PMODEL PAL8
|  3>
|  4> %base "10-181_DFT_AB"
|  5>
|  6> %scf
|  7> MaxIter 1000
|  8> end
|  9>
| 10> * xyz 0 1
| 11>   C                      -6.296042            3.685509             -9.057899
| 12>   O                      -7.440830            4.406077             -8.986240
| 13>   H                      -7.568783            4.531748             -8.051707
| 14>   H                      -6.051473            3.540845             -10.135476
| 15>   H                      -5.388269            4.237046             -8.688131
| 16>   H                      -6.353363            2.778138             -8.580741
| 17>   C                      -8.784021            7.520660             -11.008428
| 18>   O                      -9.350307            6.412483             -10.240128
| 19>   H                      -8.593916            5.959749             -9.859660
| 20>   H                      -7.781626            7.848967             -10.651591
| 21>   H                      -8.702736            7.282360             -12.057973
| 22>   H                      -9.426981            8.419327             -10.970429
| 23> *
| 24>
| 25> #Run DFT-D3 single point of the molecule with dimer basis set
| 26> $new_job
| 27> %base "10-181_DFT_A"
| 28> ! wB97X-D3 def2-TZVP TIGHTSCF CHELPG PMODEL
| 29>
| 30> %scf
| 31> MaxIter 1000
| 32> end
| 33>
| 34> * xyz 0 1
| 35>   C                      -6.296042            3.685509             -9.057899
| 36>   O                      -7.440830            4.406077             -8.986240
| 37>   H                      -7.568783            4.531748             -8.051707
| 38>   H                      -6.051473            3.540845             -10.135476
| 39>   H                      -5.388269            4.237046             -8.688131
| 40>   H                      -6.353363            2.778138             -8.580741
| 41>   C                    : -8.784021            7.520660             -11.008428
| 42>   O                    : -9.350307            6.412483             -10.240128
| 43>   H                    : -8.593916            5.959749             -9.859660
| 44>   H                    : -7.781626            7.848967             -10.651591
| 45>   H                    : -8.702736            7.282360             -12.057973
| 46>   H                    : -9.426981            8.419327             -10.970429
| 47> *
| 48>
| 49> #Run DFT-D3 single point of the particle with dimer basis set
| 50> $new_job
| 51> %base "10-181_DFT_B"
| 52> ! wB97X-D3 def2-TZVP TIGHTSCF CHELPG PMODEL
| 53>
| 54> %scf
| 55> MaxIter 1000
| 56> end
| 57>
| 58> * xyz 0 1
| 59>   C                    : -6.296042            3.685509             -9.057899
| 60>   O                    : -7.440830            4.406077             -8.986240
| 61>   H                    : -7.568783            4.531748             -8.051707
| 62>   H                    : -6.051473            3.540845             -10.135476
| 63>   H                    : -5.388269            4.237046             -8.688131
| 64>   H                    : -6.353363            2.778138             -8.580741
| 65>   C                      -8.784021            7.520660             -11.008428
| 66>   O                      -9.350307            6.412483             -10.240128
| 67>   H                      -8.593916            5.959749             -9.859660
| 68>   H                      -7.781626            7.848967             -10.651591
| 69>   H                      -8.702736            7.282360             -12.057973
| 70>   H                      -9.426981            8.419327             -10.970429
| 71> *
| 72>
| 73>                          ****END OF INPUT****
 Total Charge           Charge          ....    0
 Multiplicity           Mult            ....    1
 Number of Electrons    NEL             ....   36
Dispersion correction           -0.001366039
FINAL SINGLE POINT ENERGY      -231.469632650393
Dispersion correction           -0.000205041
FINAL SINGLE POINT ENERGY      -115.729847834646

CARTESIAN COORDINATES (ANGSTROEM)
---------------------------------
  C     -6.296042    3.685509   -9.057899
  O     -7.440830    4.406077   -8.986240
  H     -7.568783    4.531748   -8.051707
  H     -6.051473    3.540845  -10.135476
  H     -5.388269    4.237046   -8.688131
  H     -6.353363    2.778138   -8.580741
  C     -8.784021    7.520660  -11.008428
  O     -9.350307    6.412483  -10.240128
  H     -8.593916    5.959749   -9.859660
  H     -7.781626    7.848967  -10.651591
  H     -8.702736    7.282360  -12.057973
  H     -9.426981    8.419327  -10.970429

 Multiplicity           Mult            ....    1
 Number of Electrons    NEL             ....   18
 Basis Dimension        Dim             ....  172

ORBITAL ENERGIES
----------------

  NO   OCC          E(Eh)            E(eV)
   0   2.0000     -19.233488      -523.3698
   1   2.0000     -10.319671      -280.8125
   2   2.0000      -1.124724       -30.6053
   3   2.0000      -0.796865       -21.6838
   4   2.0000      -0.602347       -16.3907
   5   2.0000      -0.534900       -14.5554
   6   2.0000      -0.521523       -14.1914
   7   2.0000      -0.440176       -11.9778
   8   2.0000      -0.377153       -10.2629
   9   0.0000       0.071299         1.9401
  10   0.0000       0.126214         3.4344
  11   0.0000       0.144688         3.9372
  12   0.0000       0.172992         4.7073
  13   0.0000       0.191665         5.2155

MULLIKEN ATOMIC CHARGES
-----------------------
   0 C :   -0.000632
   1 O :   -0.000842
   2 H :   -0.000440
   3 H :   -0.000013
   4 H :    0.000043
   5 H :   -0.000007
   6 C :   -0.176844
   7 O :   -0.468957
   8 H :    0.309862
   9 H :    0.103404
  10 H :    0.114639
  11 H :    0.119786
Sum of atomic charges:   -0.0000000

LOEWDIN ATOMIC CHARGES
----------------------
   0 C :   -0.001258
   1 O :   -0.012447
   2 H :   -0.001474
   3 H :   -0.000093
   4 H :   -0.000020
   5 H :   -0.000041
   6 C :   -0.356729
   7 O :   -0.101704
   8 H :    0.171807
   9 H :    0.100383
  10 H :    0.094063
  11 H :    0.107513

  Mayer bond orders larger than 0.1
B(  6-C ,  7-O ) :   1.0000 B(  6-C ,  9-H ) :   0.9789 B(  6-C , 10-H ) :   0.9735
B(  6-C , 11-H ) :   0.9753 B(  7-O ,  8-H ) :   0.9080

Dispersion correction           -0.000273885
FINAL SINGLE POINT ENERGY      -115.733613846650

DIPOLE MOMENT
-------------
                                X             Y             Z
Electronic contribution:     -0.86115      -1.41361       0.94751
Nuclear contribution   :      1.57396       1.59923      -1.02897
                        -----------------------------------------
Total Dipole Moment    :      0.71281       0.18562      -0.08146
                        -----------------------------------------
Magnitude (a.u.)       :      0.74107
Magnitude (Debye)      :      1.88365

Rotational constants in cm-1:     4.310111     0.782661     0.752783
Rotational constants in MHz : 129213.863031 23463.597217 22567.861403

                             ****ORCA TERMINATED NORMALLY****
TOTAL RUN TIME: 0 days 0 hours 1 minutes 5 seconds 174 msec
