                         Program Version 4.1.2  - RELEASE  -
|  1> #Run DFT-D3 single point of the dimer
|  2> ! wB97X-D3 def2-TZVP TIGHTSCF CHELPG PMODEL PAL8
|  3>
|  4> %base "5-162_DFT_AB"
|  5>
|  6> %scf
|  7> MaxIter 1000
|  8> end
|  9>
| 10> * xyz 0 1
| 11>   C                      7.166154             11.280670            5.286611
| 12>   O                      8.375598             10.687281            4.811101
| 13>   H                      8.327499             10.761921            3.852238
| 14>   H                      6.538571             10.544897            5.912698
| 15>   H                      7.411956             12.162899            5.774472
| 16>   H                      6.515775             11.474074            4.435100
| 17>   C                      8.939562             9.765854             8.669209
| 18>   O                      9.934909             10.294041            7.794602
| 19>   H                      9.713646             9.939190             6.879218
| 20>   H                      9.392743             8.919814             9.233452
| 21>   H                      8.796015             10.433326            9.480259
| 22>   H                      7.908909             9.606891             8.272929
| 23> *
| 24>
| 25> #Run DFT-D3 single point of the molecule with dimer basis set
| 26> $new_job
| 27> %base "5-162_DFT_A"
| 28> ! wB97X-D3 def2-TZVP TIGHTSCF CHELPG PMODEL
| 29>
| 30> %scf
| 31> MaxIter 1000
| 32> end
| 33>
| 34> * xyz 0 1
| 35>   C                      7.166154             11.280670            5.286611
| 36>   O                      8.375598             10.687281            4.811101
| 37>   H                      8.327499             10.761921            3.852238
| 38>   H                      6.538571             10.544897            5.912698
| 39>   H                      7.411956             12.162899            5.774472
| 40>   H                      6.515775             11.474074            4.435100
| 41>   C                    : 8.939562             9.765854             8.669209
| 42>   O                    : 9.934909             10.294041            7.794602
| 43>   H                    : 9.713646             9.939190             6.879218
| 44>   H                    : 9.392743             8.919814             9.233452
| 45>   H                    : 8.796015             10.433326            9.480259
| 46>   H                    : 7.908909             9.606891             8.272929
| 47> *
| 48>
| 49> #Run DFT-D3 single point of the particle with dimer basis set
| 50> $new_job
| 51> %base "5-162_DFT_B"
| 52> ! wB97X-D3 def2-TZVP TIGHTSCF CHELPG PMODEL
| 53>
| 54> %scf
| 55> MaxIter 1000
| 56> end
| 57>
| 58> * xyz 0 1
| 59>   C                    : 7.166154             11.280670            5.286611
| 60>   O                    : 8.375598             10.687281            4.811101
| 61>   H                    : 8.327499             10.761921            3.852238
| 62>   H                    : 6.538571             10.544897            5.912698
| 63>   H                    : 7.411956             12.162899            5.774472
| 64>   H                    : 6.515775             11.474074            4.435100
| 65>   C                      8.939562             9.765854             8.669209
| 66>   O                      9.934909             10.294041            7.794602
| 67>   H                      9.713646             9.939190             6.879218
| 68>   H                      9.392743             8.919814             9.233452
| 69>   H                      8.796015             10.433326            9.480259
| 70>   H                      7.908909             9.606891             8.272929
| 71> *
| 72>
| 73>                          ****END OF INPUT****
 Total Charge           Charge          ....    0
 Multiplicity           Mult            ....    1
 Number of Electrons    NEL             ....   36
Dispersion correction           -0.001817513
FINAL SINGLE POINT ENERGY      -231.462307389709
Dispersion correction           -0.000237104
FINAL SINGLE POINT ENERGY      -115.729599941831

CARTESIAN COORDINATES (ANGSTROEM)
---------------------------------
  C      7.166154   11.280670    5.286611
  O      8.375598   10.687281    4.811101
  H      8.327499   10.761921    3.852238
  H      6.538571   10.544897    5.912698
  H      7.411956   12.162899    5.774472
  H      6.515775   11.474074    4.435100
  C      8.939562    9.765854    8.669209
  O      9.934909   10.294041    7.794602
  H      9.713646    9.939190    6.879218
  H      9.392743    8.919814    9.233452
  H      8.796015   10.433326    9.480259
  H      7.908909    9.606891    8.272929

 Multiplicity           Mult            ....    1
 Number of Electrons    NEL             ....   18
 Basis Dimension        Dim             ....  172

ORBITAL ENERGIES
----------------

  NO   OCC          E(Eh)            E(eV)
   0   2.0000     -19.237458      -523.4778
   1   2.0000     -10.313304      -280.6393
   2   2.0000      -1.126313       -30.6485
   3   2.0000      -0.794366       -21.6158
   4   2.0000      -0.601809       -16.3760
   5   2.0000      -0.536779       -14.6065
   6   2.0000      -0.525386       -14.2965
   7   2.0000      -0.437206       -11.8970
   8   2.0000      -0.370941       -10.0938
   9   0.0000       0.072777         1.9804
  10   0.0000       0.129241         3.5168
  11   0.0000       0.139731         3.8023
  12   0.0000       0.171467         4.6658
  13   0.0000       0.181736         4.9453

MULLIKEN ATOMIC CHARGES
-----------------------
   0 C :   -0.005375
   1 O :   -0.000192
   2 H :   -0.000045
   3 H :    0.000317
   4 H :    0.000143
   5 H :   -0.000111
   6 C :   -0.183095
   7 O :   -0.470390
   8 H :    0.319122
   9 H :    0.108985
  10 H :    0.118753
  11 H :    0.111889
Sum of atomic charges:   -0.0000000

LOEWDIN ATOMIC CHARGES
----------------------
   0 C :   -0.003769
   1 O :   -0.004248
   2 H :   -0.000193
   3 H :   -0.000861
   4 H :   -0.000564
   5 H :   -0.000085
   6 C :   -0.393345
   7 O :   -0.098691
   8 H :    0.196377
   9 H :    0.103752
  10 H :    0.098396
  11 H :    0.103230

  Mayer bond orders larger than 0.1
B(  6-C ,  7-O ) :   1.0034 B(  6-C ,  9-H ) :   0.9850 B(  6-C , 10-H ) :   0.9753
B(  6-C , 11-H ) :   0.9680 B(  7-O ,  8-H ) :   0.8957

Dispersion correction           -0.000269742
FINAL SINGLE POINT ENERGY      -115.727701977337

DIPOLE MOMENT
-------------
                                X             Y             Z
Electronic contribution:      1.28430       0.73096      -1.15289
Nuclear contribution   :     -1.81419      -1.12038       0.96762
                        -----------------------------------------
Total Dipole Moment    :     -0.52989      -0.38941      -0.18527
                        -----------------------------------------
Magnitude (a.u.)       :      0.68319
Magnitude (Debye)      :      1.73654

Rotational constants in cm-1:     4.255048     0.816373     0.781025
Rotational constants in MHz : 127563.115334 24474.253019 23414.539420

                             ****ORCA TERMINATED NORMALLY****
TOTAL RUN TIME: 0 days 0 hours 0 minutes 56 seconds 24 msec
