                         Program Version 4.1.2  - RELEASE  -
|  1> #Run DFT-D3 single point of the dimer
|  2> ! wB97X-D3 def2-TZVP TIGHTSCF CHELPG PMODEL PAL8
|  3>
|  4> %base "10-137_DFT_AB"
|  5>
|  6> %scf
|  7> MaxIter 1000
|  8> end
|  9>
| 10> * xyz 0 1
| 11>   C                      3.771709             8.520026             -2.309033
| 12>   O                      4.367163             8.443631             -3.620214
| 13>   H                      5.116592             9.031496             -3.647781
| 14>   H                      3.720613             9.562944             -1.984320
| 15>   H                      2.808419             8.065377             -2.246526
| 16>   H                      4.336444             7.999039             -1.611922
| 17>   C                      5.659546             11.230194            -4.392080
| 18>   O                      6.737436             10.250714            -4.419518
| 19>   H                      7.273776             10.297701            -5.275005
| 20>   H                      4.710570             10.953789            -4.917331
| 21>   H                      5.374451             11.441516            -3.366620
| 22>   H                      5.938988             12.174493            -4.886099
| 23> *
| 24>
| 25> #Run DFT-D3 single point of the molecule with dimer basis set
| 26> $new_job
| 27> %base "10-137_DFT_A"
| 28> ! wB97X-D3 def2-TZVP TIGHTSCF CHELPG PMODEL
| 29>
| 30> %scf
| 31> MaxIter 1000
| 32> end
| 33>
| 34> * xyz 0 1
| 35>   C                      3.771709             8.520026             -2.309033
| 36>   O                      4.367163             8.443631             -3.620214
| 37>   H                      5.116592             9.031496             -3.647781
| 38>   H                      3.720613             9.562944             -1.984320
| 39>   H                      2.808419             8.065377             -2.246526
| 40>   H                      4.336444             7.999039             -1.611922
| 41>   C                    : 5.659546             11.230194            -4.392080
| 42>   O                    : 6.737436             10.250714            -4.419518
| 43>   H                    : 7.273776             10.297701            -5.275005
| 44>   H                    : 4.710570             10.953789            -4.917331
| 45>   H                    : 5.374451             11.441516            -3.366620
| 46>   H                    : 5.938988             12.174493            -4.886099
| 47> *
| 48>
| 49> #Run DFT-D3 single point of the particle with dimer basis set
| 50> $new_job
| 51> %base "10-137_DFT_B"
| 52> ! wB97X-D3 def2-TZVP TIGHTSCF CHELPG PMODEL
| 53>
| 54> %scf
| 55> MaxIter 1000
| 56> end
| 57>
| 58> * xyz 0 1
| 59>   C                    : 3.771709             8.520026             -2.309033
| 60>   O                    : 4.367163             8.443631             -3.620214
| 61>   H                    : 5.116592             9.031496             -3.647781
| 62>   H                    : 3.720613             9.562944             -1.984320
| 63>   H                    : 2.808419             8.065377             -2.246526
| 64>   H                    : 4.336444             7.999039             -1.611922
| 65>   C                      5.659546             11.230194            -4.392080
| 66>   O                      6.737436             10.250714            -4.419518
| 67>   H                      7.273776             10.297701            -5.275005
| 68>   H                      4.710570             10.953789            -4.917331
| 69>   H                      5.374451             11.441516            -3.366620
| 70>   H                      5.938988             12.174493            -4.886099
| 71> *
| 72>
| 73>                          ****END OF INPUT****
 Total Charge           Charge          ....    0
 Multiplicity           Mult            ....    1
 Number of Electrons    NEL             ....   36
Dispersion correction           -0.002027071
FINAL SINGLE POINT ENERGY      -231.468135980351
Dispersion correction           -0.000238944
FINAL SINGLE POINT ENERGY      -115.732824034861

CARTESIAN COORDINATES (ANGSTROEM)
---------------------------------
  C      3.771709    8.520026   -2.309033
  O      4.367163    8.443631   -3.620214
  H      5.116592    9.031496   -3.647781
  H      3.720613    9.562944   -1.984320
  H      2.808419    8.065377   -2.246526
  H      4.336444    7.999039   -1.611922
  C      5.659546   11.230194   -4.392080
  O      6.737436   10.250714   -4.419518
  H      7.273776   10.297701   -5.275005
  H      4.710570   10.953789   -4.917331
  H      5.374451   11.441516   -3.366620
  H      5.938988   12.174493   -4.886099

 Multiplicity           Mult            ....    1
 Number of Electrons    NEL             ....   18
 Basis Dimension        Dim             ....  172

ORBITAL ENERGIES
----------------

  NO   OCC          E(Eh)            E(eV)
   0   2.0000     -19.236562      -523.4535
   1   2.0000     -10.319742      -280.8145
   2   2.0000      -1.113091       -30.2887
   3   2.0000      -0.794929       -21.6311
   4   2.0000      -0.602113       -16.3843
   5   2.0000      -0.526028       -14.3139
   6   2.0000      -0.523090       -14.2340
   7   2.0000      -0.433498       -11.7961
   8   2.0000      -0.373247       -10.1566
   9   0.0000       0.093646         2.5482
  10   0.0000       0.114361         3.1119
  11   0.0000       0.147106         4.0030
  12   0.0000       0.183573         4.9953
  13   0.0000       0.190313         5.1787

MULLIKEN ATOMIC CHARGES
-----------------------
   0 C :   -0.000835
   1 O :   -0.002112
   2 H :    0.003456
   3 H :   -0.000205
   4 H :   -0.000046
   5 H :   -0.000015
   6 C :   -0.175475
   7 O :   -0.489617
   8 H :    0.318987
   9 H :    0.104440
  10 H :    0.125220
  11 H :    0.116201
Sum of atomic charges:   -0.0000000

LOEWDIN ATOMIC CHARGES
----------------------
   0 C :   -0.001479
   1 O :   -0.003933
   2 H :   -0.024046
   3 H :   -0.000946
   4 H :   -0.000008
   5 H :   -0.000012
   6 C :   -0.358764
   7 O :   -0.112150
   8 H :    0.193647
   9 H :    0.101684
  10 H :    0.107738
  11 H :    0.098270

  Mayer bond orders larger than 0.1
B(  6-C ,  7-O ) :   0.9933 B(  6-C ,  9-H ) :   0.9700 B(  6-C , 10-H ) :   0.9771
B(  6-C , 11-H ) :   0.9733 B(  7-O ,  8-H ) :   0.8883

Dispersion correction           -0.000294766
FINAL SINGLE POINT ENERGY      -115.730424011791

DIPOLE MOMENT
-------------
                                X             Y             Z
Electronic contribution:      1.36714      -1.32048       0.14735
Nuclear contribution   :     -1.47110       1.78440      -0.66741
                        -----------------------------------------
Total Dipole Moment    :     -0.10396       0.46393      -0.52006
                        -----------------------------------------
Magnitude (a.u.)       :      0.70463
Magnitude (Debye)      :      1.79102

Rotational constants in cm-1:     4.321599     0.775835     0.744922
Rotational constants in MHz : 129558.289121 23258.943986 22332.200547

                             ****ORCA TERMINATED NORMALLY****
TOTAL RUN TIME: 0 days 0 hours 1 minutes 5 seconds 961 msec
