                         Program Version 4.1.2  - RELEASE  -
|  1> #Run DFT-D3 single point of the dimer
|  2> ! wB97X-D3 def2-TZVP TIGHTSCF CHELPG PMODEL PAL8
|  3>
|  4> %base "6-52_DFT_AB"
|  5>
|  6> %scf
|  7> MaxIter 1000
|  8> end
|  9>
| 10> * xyz 0 1
| 11>   C                      0.196325             -0.976893            10.050342
| 12>   O                      1.433650             -0.253384            9.974844
| 13>   H                      1.432420             0.446621             10.619602
| 14>   H                      -0.611933            -0.325739            10.403889
| 15>   H                      -0.103297            -1.288178            8.974143
| 16>   H                      0.344229             -1.799503            10.711079
| 17>   C                      0.892630             -5.754002            8.930831
| 18>   O                      1.989240             -6.047675            9.820133
| 19>   H                      2.706191             -6.317987            9.216835
| 20>   H                      0.002592             -5.585212            9.458005
| 21>   H                      1.037571             -4.958756            8.131305
| 22>   H                      0.613173             -6.634551            8.369301
| 23> *
| 24>
| 25> #Run DFT-D3 single point of the molecule with dimer basis set
| 26> $new_job
| 27> %base "6-52_DFT_A"
| 28> ! wB97X-D3 def2-TZVP TIGHTSCF CHELPG PMODEL
| 29>
| 30> %scf
| 31> MaxIter 1000
| 32> end
| 33>
| 34> * xyz 0 1
| 35>   C                      0.196325             -0.976893            10.050342
| 36>   O                      1.433650             -0.253384            9.974844
| 37>   H                      1.432420             0.446621             10.619602
| 38>   H                      -0.611933            -0.325739            10.403889
| 39>   H                      -0.103297            -1.288178            8.974143
| 40>   H                      0.344229             -1.799503            10.711079
| 41>   C                    : 0.892630             -5.754002            8.930831
| 42>   O                    : 1.989240             -6.047675            9.820133
| 43>   H                    : 2.706191             -6.317987            9.216835
| 44>   H                    : 0.002592             -5.585212            9.458005
| 45>   H                    : 1.037571             -4.958756            8.131305
| 46>   H                    : 0.613173             -6.634551            8.369301
| 47> *
| 48>
| 49> #Run DFT-D3 single point of the particle with dimer basis set
| 50> $new_job
| 51> %base "6-52_DFT_B"
| 52> ! wB97X-D3 def2-TZVP TIGHTSCF CHELPG PMODEL
| 53>
| 54> %scf
| 55> MaxIter 1000
| 56> end
| 57>
| 58> * xyz 0 1
| 59>   C                    : 0.196325             -0.976893            10.050342
| 60>   O                    : 1.433650             -0.253384            9.974844
| 61>   H                    : 1.432420             0.446621             10.619602
| 62>   H                    : -0.611933            -0.325739            10.403889
| 63>   H                    : -0.103297            -1.288178            8.974143
| 64>   H                    : 0.344229             -1.799503            10.711079
| 65>   C                      0.892630             -5.754002            8.930831
| 66>   O                      1.989240             -6.047675            9.820133
| 67>   H                      2.706191             -6.317987            9.216835
| 68>   H                      0.002592             -5.585212            9.458005
| 69>   H                      1.037571             -4.958756            8.131305
| 70>   H                      0.613173             -6.634551            8.369301
| 71> *
| 72>
| 73>                          ****END OF INPUT****
 Total Charge           Charge          ....    0
 Multiplicity           Mult            ....    1
 Number of Electrons    NEL             ....   36
Dispersion correction           -0.000817871
FINAL SINGLE POINT ENERGY      -231.462136665935
Dispersion correction           -0.000246669
FINAL SINGLE POINT ENERGY      -115.732182504743

CARTESIAN COORDINATES (ANGSTROEM)
---------------------------------
  C      0.196325   -0.976893   10.050342
  O      1.433650   -0.253384    9.974844
  H      1.432420    0.446621   10.619602
  H     -0.611933   -0.325739   10.403889
  H     -0.103297   -1.288178    8.974143
  H      0.344229   -1.799503   10.711079
  C      0.892630   -5.754002    8.930831
  O      1.989240   -6.047675    9.820133
  H      2.706191   -6.317987    9.216835
  H      0.002592   -5.585212    9.458005
  H      1.037571   -4.958756    8.131305
  H      0.613173   -6.634551    8.369301

 Multiplicity           Mult            ....    1
 Number of Electrons    NEL             ....   18
 Basis Dimension        Dim             ....  172

ORBITAL ENERGIES
----------------

  NO   OCC          E(Eh)            E(eV)
   0   2.0000     -19.237092      -523.4679
   1   2.0000     -10.313388      -280.6416
   2   2.0000      -1.129367       -30.7316
   3   2.0000      -0.799321       -21.7506
   4   2.0000      -0.605593       -16.4790
   5   2.0000      -0.534414       -14.5421
   6   2.0000      -0.524595       -14.2749
   7   2.0000      -0.443666       -12.0728
   8   2.0000      -0.375465       -10.2169
   9   0.0000       0.087444         2.3795
  10   0.0000       0.114628         3.1192
  11   0.0000       0.143026         3.8919
  12   0.0000       0.172489         4.6937
  13   0.0000       0.185746         5.0544

MULLIKEN ATOMIC CHARGES
-----------------------
   0 C :    0.000040
   1 O :   -0.000010
   2 H :   -0.000000
   3 H :    0.000016
   4 H :   -0.000160
   5 H :    0.000099
   6 C :   -0.185043
   7 O :   -0.467559
   8 H :    0.315495
   9 H :    0.127534
  10 H :    0.101292
  11 H :    0.108296
Sum of atomic charges:    0.0000000

LOEWDIN ATOMIC CHARGES
----------------------
   0 C :   -0.000089
   1 O :   -0.000003
   2 H :   -0.000000
   3 H :   -0.000000
   4 H :   -0.000103
   5 H :   -0.000033
   6 C :   -0.376700
   7 O :   -0.097273
   8 H :    0.179029
   9 H :    0.098416
  10 H :    0.102836
  11 H :    0.093920

  Mayer bond orders larger than 0.1
B(  6-C ,  7-O ) :   1.0037 B(  6-C ,  9-H ) :   0.9750 B(  6-C , 10-H ) :   0.9673
B(  6-C , 11-H ) :   0.9786 B(  7-O ,  8-H ) :   0.9004

Dispersion correction           -0.000261004
FINAL SINGLE POINT ENERGY      -115.729600219661

DIPOLE MOMENT
-------------
                                X             Y             Z
Electronic contribution:      1.37692      -0.24115       1.39087
Nuclear contribution   :     -1.39997       0.15426      -2.10884
                        -----------------------------------------
Total Dipole Moment    :     -0.02305      -0.08689      -0.71797
                        -----------------------------------------
Magnitude (a.u.)       :      0.72357
Magnitude (Debye)      :      1.83917

Rotational constants in cm-1:     4.397376     0.799568     0.769875
Rotational constants in MHz : 131830.025657 23970.434566 23080.278652

                             ****ORCA TERMINATED NORMALLY****
TOTAL RUN TIME: 0 days 0 hours 0 minutes 52 seconds 519 msec
