                         Program Version 4.1.2  - RELEASE  -
|  1> #Run DFT-D3 single point of the dimer
|  2> ! wB97X-D3 def2-TZVP TIGHTSCF CHELPG PMODEL PAL8
|  3>
|  4> %base "4-166_DFT_AB"
|  5>
|  6> %scf
|  7> MaxIter 1000
|  8> end
|  9>
| 10> * xyz 0 1
| 11>   C                      -8.175799            0.173329             -0.703508
| 12>   O                      -7.712172            0.355606             0.610750
| 13>   H                      -8.296216            -0.066847            1.230191
| 14>   H                      -8.674358            1.059910             -1.034051
| 15>   H                      -7.405601            -0.116866            -1.395031
| 16>   H                      -8.910950            -0.641238            -0.730880
| 17>   C                      -5.470393            -1.876097            1.136380
| 18>   O                      -5.868612            -2.423977            2.388435
| 19>   H                      -6.835133            -2.315790            2.387192
| 20>   H                      -4.375722            -2.094982            0.894261
| 21>   H                      -6.064162            -2.282764            0.341504
| 22>   H                      -5.615935            -0.781423            1.121355
| 23> *
| 24>
| 25> #Run DFT-D3 single point of the molecule with dimer basis set
| 26> $new_job
| 27> %base "4-166_DFT_A"
| 28> ! wB97X-D3 def2-TZVP TIGHTSCF CHELPG PMODEL
| 29>
| 30> %scf
| 31> MaxIter 1000
| 32> end
| 33>
| 34> * xyz 0 1
| 35>   C                      -8.175799            0.173329             -0.703508
| 36>   O                      -7.712172            0.355606             0.610750
| 37>   H                      -8.296216            -0.066847            1.230191
| 38>   H                      -8.674358            1.059910             -1.034051
| 39>   H                      -7.405601            -0.116866            -1.395031
| 40>   H                      -8.910950            -0.641238            -0.730880
| 41>   C                    : -5.470393            -1.876097            1.136380
| 42>   O                    : -5.868612            -2.423977            2.388435
| 43>   H                    : -6.835133            -2.315790            2.387192
| 44>   H                    : -4.375722            -2.094982            0.894261
| 45>   H                    : -6.064162            -2.282764            0.341504
| 46>   H                    : -5.615935            -0.781423            1.121355
| 47> *
| 48>
| 49> #Run DFT-D3 single point of the particle with dimer basis set
| 50> $new_job
| 51> %base "4-166_DFT_B"
| 52> ! wB97X-D3 def2-TZVP TIGHTSCF CHELPG PMODEL
| 53>
| 54> %scf
| 55> MaxIter 1000
| 56> end
| 57>
| 58> * xyz 0 1
| 59>   C                    : -8.175799            0.173329             -0.703508
| 60>   O                    : -7.712172            0.355606             0.610750
| 61>   H                    : -8.296216            -0.066847            1.230191
| 62>   H                    : -8.674358            1.059910             -1.034051
| 63>   H                    : -7.405601            -0.116866            -1.395031
| 64>   H                    : -8.910950            -0.641238            -0.730880
| 65>   C                      -5.470393            -1.876097            1.136380
| 66>   O                      -5.868612            -2.423977            2.388435
| 67>   H                      -6.835133            -2.315790            2.387192
| 68>   H                      -4.375722            -2.094982            0.894261
| 69>   H                      -6.064162            -2.282764            0.341504
| 70>   H                      -5.615935            -0.781423            1.121355
| 71> *
| 72>
| 73>                          ****END OF INPUT****
 Total Charge           Charge          ....    0
 Multiplicity           Mult            ....    1
 Number of Electrons    NEL             ....   36
Dispersion correction           -0.002085581
FINAL SINGLE POINT ENERGY      -231.468960625407
Dispersion correction           -0.000236293
FINAL SINGLE POINT ENERGY      -115.734870480542

CARTESIAN COORDINATES (ANGSTROEM)
---------------------------------
  C     -8.175799    0.173329   -0.703508
  O     -7.712172    0.355606    0.610750
  H     -8.296216   -0.066847    1.230191
  H     -8.674358    1.059910   -1.034051
  H     -7.405601   -0.116866   -1.395031
  H     -8.910950   -0.641238   -0.730880
  C     -5.470393   -1.876097    1.136380
  O     -5.868612   -2.423977    2.388435
  H     -6.835133   -2.315790    2.387192
  H     -4.375722   -2.094982    0.894261
  H     -6.064162   -2.282764    0.341504
  H     -5.615935   -0.781423    1.121355

 Multiplicity           Mult            ....    1
 Number of Electrons    NEL             ....   18
 Basis Dimension        Dim             ....  172

ORBITAL ENERGIES
----------------

  NO   OCC          E(Eh)            E(eV)
   0   2.0000     -19.233181      -523.3615
   1   2.0000     -10.317499      -280.7534
   2   2.0000      -1.134461       -30.8702
   3   2.0000      -0.789871       -21.4935
   4   2.0000      -0.608175       -16.5493
   5   2.0000      -0.540816       -14.7163
   6   2.0000      -0.522791       -14.2259
   7   2.0000      -0.437416       -11.9027
   8   2.0000      -0.373750       -10.1702
   9   0.0000       0.073079         1.9886
  10   0.0000       0.118402         3.2219
  11   0.0000       0.152644         4.1537
  12   0.0000       0.164951         4.4885
  13   0.0000       0.188929         5.1410

MULLIKEN ATOMIC CHARGES
-----------------------
   0 C :   -0.002037
   1 O :    0.000863
   2 H :   -0.000208
   3 H :   -0.000056
   4 H :   -0.000461
   5 H :    0.000136
   6 C :   -0.176982
   7 O :   -0.464428
   8 H :    0.314018
   9 H :    0.119872
  10 H :    0.106333
  11 H :    0.102950
Sum of atomic charges:    0.0000000

LOEWDIN ATOMIC CHARGES
----------------------
   0 C :   -0.004003
   1 O :   -0.007829
   2 H :   -0.001505
   3 H :   -0.000044
   4 H :   -0.000842
   5 H :   -0.000135
   6 C :   -0.383639
   7 O :   -0.087692
   8 H :    0.177751
   9 H :    0.117298
  10 H :    0.090954
  11 H :    0.099684

  Mayer bond orders larger than 0.1
B(  6-C ,  7-O ) :   1.0005 B(  6-C ,  9-H ) :   0.9678 B(  6-C , 10-H ) :   0.9798
B(  6-C , 11-H ) :   0.9757 B(  7-O ,  8-H ) :   0.9005

Dispersion correction           -0.000234322
FINAL SINGLE POINT ENERGY      -115.733838563802

DIPOLE MOMENT
-------------
                                X             Y             Z
Electronic contribution:     -0.36727      -0.77985       1.67137
Nuclear contribution   :     -0.08412       1.04667      -2.17386
                        -----------------------------------------
Total Dipole Moment    :     -0.45139       0.26682      -0.50249
                        -----------------------------------------
Magnitude (a.u.)       :      0.72625
Magnitude (Debye)      :      1.84599

Rotational constants in cm-1:     4.181351     0.824829     0.789345
Rotational constants in MHz : 125353.744699 24727.765825 23663.971151

                             ****ORCA TERMINATED NORMALLY****
TOTAL RUN TIME: 0 days 0 hours 1 minutes 25 seconds 998 msec
