                         Program Version 4.1.2  - RELEASE  -
|  1> #Run DFT-D3 single point of the dimer
|  2> ! wB97X-D3 def2-TZVP TIGHTSCF CHELPG PMODEL PAL8
|  3>
|  4> %base "19-224_DFT_AB"
|  5>
|  6> %scf
|  7> MaxIter 1000
|  8> end
|  9>
| 10> * xyz 0 1
| 11>   C                      -7.917867            -3.962105            -2.446839
| 12>   O                      -6.972519            -4.255860            -3.480585
| 13>   H                      -7.341025            -4.091266            -4.371067
| 14>   H                      -8.721103            -4.688471            -2.484096
| 15>   H                      -7.429704            -3.941546            -1.461747
| 16>   H                      -8.336201            -2.925327            -2.625887
| 17>   C                      -10.780089           -3.736451            -5.484572
| 18>   O                      -9.434585            -3.378231            -5.305909
| 19>   H                      -9.305679            -2.730971            -6.020294
| 20>   H                      -11.006055           -4.182106            -6.440590
| 21>   H                      -11.175239           -4.449505            -4.766262
| 22>   H                      -11.485986           -2.854427            -5.329985
| 23> *
| 24>
| 25> #Run DFT-D3 single point of the molecule with dimer basis set
| 26> $new_job
| 27> %base "19-224_DFT_A"
| 28> ! wB97X-D3 def2-TZVP TIGHTSCF CHELPG PMODEL
| 29>
| 30> %scf
| 31> MaxIter 1000
| 32> end
| 33>
| 34> * xyz 0 1
| 35>   C                      -7.917867            -3.962105            -2.446839
| 36>   O                      -6.972519            -4.255860            -3.480585
| 37>   H                      -7.341025            -4.091266            -4.371067
| 38>   H                      -8.721103            -4.688471            -2.484096
| 39>   H                      -7.429704            -3.941546            -1.461747
| 40>   H                      -8.336201            -2.925327            -2.625887
| 41>   C                    : -10.780089           -3.736451            -5.484572
| 42>   O                    : -9.434585            -3.378231            -5.305909
| 43>   H                    : -9.305679            -2.730971            -6.020294
| 44>   H                    : -11.006055           -4.182106            -6.440590
| 45>   H                    : -11.175239           -4.449505            -4.766262
| 46>   H                    : -11.485986           -2.854427            -5.329985
| 47> *
| 48>
| 49> #Run DFT-D3 single point of the particle with dimer basis set
| 50> $new_job
| 51> %base "19-224_DFT_B"
| 52> ! wB97X-D3 def2-TZVP TIGHTSCF CHELPG PMODEL
| 53>
| 54> %scf
| 55> MaxIter 1000
| 56> end
| 57>
| 58> * xyz 0 1
| 59>   C                    : -7.917867            -3.962105            -2.446839
| 60>   O                    : -6.972519            -4.255860            -3.480585
| 61>   H                    : -7.341025            -4.091266            -4.371067
| 62>   H                    : -8.721103            -4.688471            -2.484096
| 63>   H                    : -7.429704            -3.941546            -1.461747
| 64>   H                    : -8.336201            -2.925327            -2.625887
| 65>   C                      -10.780089           -3.736451            -5.484572
| 66>   O                      -9.434585            -3.378231            -5.305909
| 67>   H                      -9.305679            -2.730971            -6.020294
| 68>   H                      -11.006055           -4.182106            -6.440590
| 69>   H                      -11.175239           -4.449505            -4.766262
| 70>   H                      -11.485986           -2.854427            -5.329985
| 71> *
| 72>
| 73>                          ****END OF INPUT****
 Total Charge           Charge          ....    0
 Multiplicity           Mult            ....    1
 Number of Electrons    NEL             ....   36
Dispersion correction           -0.001887924
FINAL SINGLE POINT ENERGY      -231.472217072684
Dispersion correction           -0.000249516
FINAL SINGLE POINT ENERGY      -115.734379709275

CARTESIAN COORDINATES (ANGSTROEM)
---------------------------------
  C     -7.917867   -3.962105   -2.446839
  O     -6.972519   -4.255860   -3.480585
  H     -7.341025   -4.091266   -4.371067
  H     -8.721103   -4.688471   -2.484096
  H     -7.429704   -3.941546   -1.461747
  H     -8.336201   -2.925327   -2.625887
  C    -10.780089   -3.736451   -5.484572
  O     -9.434585   -3.378231   -5.305909
  H     -9.305679   -2.730971   -6.020294
  H    -11.006055   -4.182106   -6.440590
  H    -11.175239   -4.449505   -4.766262
  H    -11.485986   -2.854427   -5.329985

 Multiplicity           Mult            ....    1
 Number of Electrons    NEL             ....   18
 Basis Dimension        Dim             ....  172

ORBITAL ENERGIES
----------------

  NO   OCC          E(Eh)            E(eV)
   0   2.0000     -19.238784      -523.5139
   1   2.0000     -10.315101      -280.6882
   2   2.0000      -1.144132       -31.1334
   3   2.0000      -0.793405       -21.5896
   4   2.0000      -0.611227       -16.6323
   5   2.0000      -0.541956       -14.7474
   6   2.0000      -0.532253       -14.4833
   7   2.0000      -0.435497       -11.8505
   8   2.0000      -0.376365       -10.2414
   9   0.0000       0.099003         2.6940
  10   0.0000       0.126965         3.4549
  11   0.0000       0.148082         4.0295
  12   0.0000       0.190131         5.1737
  13   0.0000       0.191778         5.2185

MULLIKEN ATOMIC CHARGES
-----------------------
   0 C :    0.008839
   1 O :    0.000236
   2 H :   -0.008275
   3 H :   -0.002284
   4 H :   -0.000309
   5 H :   -0.007562
   6 C :   -0.183728
   7 O :   -0.447151
   8 H :    0.317200
   9 H :    0.106183
  10 H :    0.122533
  11 H :    0.094317
Sum of atomic charges:   -0.0000000

LOEWDIN ATOMIC CHARGES
----------------------
   0 C :   -0.008461
   1 O :   -0.001652
   2 H :   -0.015009
   3 H :   -0.000696
   4 H :   -0.000080
   5 H :   -0.004243
   6 C :   -0.408083
   7 O :   -0.045083
   8 H :    0.184134
   9 H :    0.091036
  10 H :    0.106579
  11 H :    0.101557

  Mayer bond orders larger than 0.1
B(  6-C ,  7-O ) :   1.0029 B(  6-C ,  9-H ) :   0.9706 B(  6-C , 10-H ) :   0.9745
B(  6-C , 11-H ) :   0.9752 B(  7-O ,  8-H ) :   0.8959

Dispersion correction           -0.000239528
FINAL SINGLE POINT ENERGY      -115.732362239266

DIPOLE MOMENT
-------------
                                X             Y             Z
Electronic contribution:      1.95403       0.30790       0.33347
Nuclear contribution   :     -2.39040      -0.07121      -0.84069
                        -----------------------------------------
Total Dipole Moment    :     -0.43636       0.23669      -0.50721
                        -----------------------------------------
Magnitude (a.u.)       :      0.70972
Magnitude (Debye)      :      1.80397

Rotational constants in cm-1:     4.330962     0.829834     0.804694
Rotational constants in MHz : 129838.983010 24877.797485 24124.109082

                             ****ORCA TERMINATED NORMALLY****
TOTAL RUN TIME: 0 days 0 hours 0 minutes 50 seconds 479 msec
