                         Program Version 4.1.2  - RELEASE  -
|  1> #Run DFT-D3 single point of the dimer
|  2> ! wB97X-D3 def2-TZVP TIGHTSCF CHELPG PMODEL PAL8
|  3>
|  4> %base "10-59_DFT_AB"
|  5>
|  6> %scf
|  7> MaxIter 1000
|  8> end
|  9>
| 10> * xyz 0 1
| 11>   C                      -11.310636           -6.749428            -0.716338
| 12>   O                      -10.161018           -6.596171            0.174576
| 13>   H                      -10.318668           -6.843313            1.117006
| 14>   H                      -11.063202           -6.918290            -1.771602
| 15>   H                      -11.690728           -7.749996            -0.577357
| 16>   H                      -12.139721           -6.115864            -0.581882
| 17>   C                      -9.543987            -2.864024            -0.483499
| 18>   O                      -9.572609            -4.140452            -1.070107
| 19>   H                      -9.604277            -4.847970            -0.341031
| 20>   H                      -9.792078            -2.886355            0.578464
| 21>   H                      -8.511814            -2.464252            -0.351393
| 22>   H                      -10.229205           -2.148158            -0.994160
| 23> *
| 24>
| 25> #Run DFT-D3 single point of the molecule with dimer basis set
| 26> $new_job
| 27> %base "10-59_DFT_A"
| 28> ! wB97X-D3 def2-TZVP TIGHTSCF CHELPG PMODEL
| 29>
| 30> %scf
| 31> MaxIter 1000
| 32> end
| 33>
| 34> * xyz 0 1
| 35>   C                      -11.310636           -6.749428            -0.716338
| 36>   O                      -10.161018           -6.596171            0.174576
| 37>   H                      -10.318668           -6.843313            1.117006
| 38>   H                      -11.063202           -6.918290            -1.771602
| 39>   H                      -11.690728           -7.749996            -0.577357
| 40>   H                      -12.139721           -6.115864            -0.581882
| 41>   C                    : -9.543987            -2.864024            -0.483499
| 42>   O                    : -9.572609            -4.140452            -1.070107
| 43>   H                    : -9.604277            -4.847970            -0.341031
| 44>   H                    : -9.792078            -2.886355            0.578464
| 45>   H                    : -8.511814            -2.464252            -0.351393
| 46>   H                    : -10.229205           -2.148158            -0.994160
| 47> *
| 48>
| 49> #Run DFT-D3 single point of the particle with dimer basis set
| 50> $new_job
| 51> %base "10-59_DFT_B"
| 52> ! wB97X-D3 def2-TZVP TIGHTSCF CHELPG PMODEL
| 53>
| 54> %scf
| 55> MaxIter 1000
| 56> end
| 57>
| 58> * xyz 0 1
| 59>   C                    : -11.310636           -6.749428            -0.716338
| 60>   O                    : -10.161018           -6.596171            0.174576
| 61>   H                    : -10.318668           -6.843313            1.117006
| 62>   H                    : -11.063202           -6.918290            -1.771602
| 63>   H                    : -11.690728           -7.749996            -0.577357
| 64>   H                    : -12.139721           -6.115864            -0.581882
| 65>   C                      -9.543987            -2.864024            -0.483499
| 66>   O                      -9.572609            -4.140452            -1.070107
| 67>   H                      -9.604277            -4.847970            -0.341031
| 68>   H                      -9.792078            -2.886355            0.578464
| 69>   H                      -8.511814            -2.464252            -0.351393
| 70>   H                      -10.229205           -2.148158            -0.994160
| 71> *
| 72>
| 73>                          ****END OF INPUT****
 Total Charge           Charge          ....    0
 Multiplicity           Mult            ....    1
 Number of Electrons    NEL             ....   36
Dispersion correction           -0.001813370
FINAL SINGLE POINT ENERGY      -231.459315067213
Dispersion correction           -0.000286331
FINAL SINGLE POINT ENERGY      -115.721431181147

CARTESIAN COORDINATES (ANGSTROEM)
---------------------------------
  C    -11.310636   -6.749428   -0.716338
  O    -10.161018   -6.596171    0.174576
  H    -10.318668   -6.843313    1.117006
  H    -11.063202   -6.918290   -1.771602
  H    -11.690728   -7.749996   -0.577357
  H    -12.139721   -6.115864   -0.581882
  C     -9.543987   -2.864024   -0.483499
  O     -9.572609   -4.140452   -1.070107
  H     -9.604277   -4.847970   -0.341031
  H     -9.792078   -2.886355    0.578464
  H     -8.511814   -2.464252   -0.351393
  H    -10.229205   -2.148158   -0.994160

 Multiplicity           Mult            ....    1
 Number of Electrons    NEL             ....   18
 Basis Dimension        Dim             ....  172

ORBITAL ENERGIES
----------------

  NO   OCC          E(Eh)            E(eV)
   0   2.0000     -19.237714      -523.4848
   1   2.0000     -10.316658      -280.7305
   2   2.0000      -1.130047       -30.7501
   3   2.0000      -0.789803       -21.4916
   4   2.0000      -0.613650       -16.6983
   5   2.0000      -0.539440       -14.6789
   6   2.0000      -0.520313       -14.1584
   7   2.0000      -0.429650       -11.6914
   8   2.0000      -0.371403       -10.1064
   9   0.0000       0.071485         1.9452
  10   0.0000       0.127826         3.4783
  11   0.0000       0.148781         4.0485
  12   0.0000       0.168693         4.5904
  13   0.0000       0.199213         5.4209

MULLIKEN ATOMIC CHARGES
-----------------------
   0 C :   -0.006954
   1 O :   -0.001013
   2 H :   -0.000024
   3 H :   -0.000291
   4 H :   -0.000776
   5 H :   -0.001013
   6 C :   -0.168568
   7 O :   -0.460838
   8 H :    0.317505
   9 H :    0.103427
  10 H :    0.099329
  11 H :    0.119214
Sum of atomic charges:   -0.0000000

LOEWDIN ATOMIC CHARGES
----------------------
   0 C :   -0.017053
   1 O :   -0.020954
   2 H :   -0.001223
   3 H :   -0.001125
   4 H :   -0.000307
   5 H :   -0.001650
   6 C :   -0.406263
   7 O :   -0.074027
   8 H :    0.218963
   9 H :    0.094813
  10 H :    0.099838
  11 H :    0.108988

  Mayer bond orders larger than 0.1
B(  6-C ,  7-O ) :   1.0045 B(  6-C ,  9-H ) :   0.9833 B(  6-C , 10-H ) :   0.9701
B(  6-C , 11-H ) :   0.9715 B(  7-O ,  8-H ) :   0.8915

Dispersion correction           -0.000260001
FINAL SINGLE POINT ENERGY      -115.728579957823

DIPOLE MOMENT
-------------
                                X             Y             Z
Electronic contribution:     -0.10014      -1.59984      -1.04861
Nuclear contribution   :      0.08504       1.65227       1.77176
                        -----------------------------------------
Total Dipole Moment    :     -0.01510       0.05243       0.72315
                        -----------------------------------------
Magnitude (a.u.)       :      0.72521
Magnitude (Debye)      :      1.84333

Rotational constants in cm-1:     4.216372     0.827859     0.793106
Rotational constants in MHz : 126403.651703 24818.598630 23776.719476

                             ****ORCA TERMINATED NORMALLY****
TOTAL RUN TIME: 0 days 0 hours 1 minutes 8 seconds 296 msec
