                         Program Version 4.1.2  - RELEASE  -
|  1> #Run DFT-D3 single point of the dimer
|  2> ! wB97X-D3 def2-TZVP TIGHTSCF CHELPG PMODEL PAL8
|  3>
|  4> %base "9-39_DFT_AB"
|  5>
|  6> %scf
|  7> MaxIter 1000
|  8> end
|  9>
| 10> * xyz 0 1
| 11>   C                      9.668153             -8.802298            3.443174
| 12>   O                      9.283030             -9.279826            2.182614
| 13>   H                      8.535800             -9.932465            2.235001
| 14>   H                      10.301862            -9.574787            3.917111
| 15>   H                      10.289359            -7.879110            3.349851
| 16>   H                      8.819729             -8.629750            4.115209
| 17>   C                      5.206334             -9.057863            6.597827
| 18>   O                      5.847438             -8.835371            5.336983
| 19>   H                      5.164536             -8.989231            4.744363
| 20>   H                      5.910274             -9.233634            7.412780
| 21>   H                      4.588259             -8.188817            6.926912
| 22>   H                      4.477473             -9.918150            6.582761
| 23> *
| 24>
| 25> #Run DFT-D3 single point of the molecule with dimer basis set
| 26> $new_job
| 27> %base "9-39_DFT_A"
| 28> ! wB97X-D3 def2-TZVP TIGHTSCF CHELPG PMODEL
| 29>
| 30> %scf
| 31> MaxIter 1000
| 32> end
| 33>
| 34> * xyz 0 1
| 35>   C                      9.668153             -8.802298            3.443174
| 36>   O                      9.283030             -9.279826            2.182614
| 37>   H                      8.535800             -9.932465            2.235001
| 38>   H                      10.301862            -9.574787            3.917111
| 39>   H                      10.289359            -7.879110            3.349851
| 40>   H                      8.819729             -8.629750            4.115209
| 41>   C                    : 5.206334             -9.057863            6.597827
| 42>   O                    : 5.847438             -8.835371            5.336983
| 43>   H                    : 5.164536             -8.989231            4.744363
| 44>   H                    : 5.910274             -9.233634            7.412780
| 45>   H                    : 4.588259             -8.188817            6.926912
| 46>   H                    : 4.477473             -9.918150            6.582761
| 47> *
| 48>
| 49> #Run DFT-D3 single point of the particle with dimer basis set
| 50> $new_job
| 51> %base "9-39_DFT_B"
| 52> ! wB97X-D3 def2-TZVP TIGHTSCF CHELPG PMODEL
| 53>
| 54> %scf
| 55> MaxIter 1000
| 56> end
| 57>
| 58> * xyz 0 1
| 59>   C                    : 9.668153             -8.802298            3.443174
| 60>   O                    : 9.283030             -9.279826            2.182614
| 61>   H                    : 8.535800             -9.932465            2.235001
| 62>   H                    : 10.301862            -9.574787            3.917111
| 63>   H                    : 10.289359            -7.879110            3.349851
| 64>   H                    : 8.819729             -8.629750            4.115209
| 65>   C                      5.206334             -9.057863            6.597827
| 66>   O                      5.847438             -8.835371            5.336983
| 67>   H                      5.164536             -8.989231            4.744363
| 68>   H                      5.910274             -9.233634            7.412780
| 69>   H                      4.588259             -8.188817            6.926912
| 70>   H                      4.477473             -9.918150            6.582761
| 71> *
| 72>
| 73>                          ****END OF INPUT****
 Total Charge           Charge          ....    0
 Multiplicity           Mult            ....    1
 Number of Electrons    NEL             ....   36
Dispersion correction           -0.000931879
FINAL SINGLE POINT ENERGY      -231.467137750485
Dispersion correction           -0.000248151
FINAL SINGLE POINT ENERGY      -115.733750285444

CARTESIAN COORDINATES (ANGSTROEM)
---------------------------------
  C      9.668153   -8.802298    3.443174
  O      9.283030   -9.279826    2.182614
  H      8.535800   -9.932465    2.235001
  H     10.301862   -9.574787    3.917111
  H     10.289359   -7.879110    3.349851
  H      8.819729   -8.629750    4.115209
  C      5.206334   -9.057863    6.597827
  O      5.847438   -8.835371    5.336983
  H      5.164536   -8.989231    4.744363
  H      5.910274   -9.233634    7.412780
  H      4.588259   -8.188817    6.926912
  H      4.477473   -9.918150    6.582761

 Multiplicity           Mult            ....    1
 Number of Electrons    NEL             ....   18
 Basis Dimension        Dim             ....  172

ORBITAL ENERGIES
----------------

  NO   OCC          E(Eh)            E(eV)
   0   2.0000     -19.232492      -523.3427
   1   2.0000     -10.321836      -280.8714
   2   2.0000      -1.146533       -31.1987
   3   2.0000      -0.795561       -21.6483
   4   2.0000      -0.613773       -16.7016
   5   2.0000      -0.532002       -14.4765
   6   2.0000      -0.529821       -14.4172
   7   2.0000      -0.445655       -12.1269
   8   2.0000      -0.376475       -10.2444
   9   0.0000       0.097063         2.6412
  10   0.0000       0.119305         3.2464
  11   0.0000       0.150985         4.1085
  12   0.0000       0.173485         4.7208
  13   0.0000       0.194160         5.2833

MULLIKEN ATOMIC CHARGES
-----------------------
   0 C :    0.001721
   1 O :    0.000019
   2 H :   -0.000247
   3 H :   -0.000026
   4 H :   -0.000067
   5 H :   -0.005309
   6 C :   -0.187042
   7 O :   -0.444880
   8 H :    0.304916
   9 H :    0.124126
  10 H :    0.103965
  11 H :    0.102823
Sum of atomic charges:    0.0000000

LOEWDIN ATOMIC CHARGES
----------------------
   0 C :   -0.000731
   1 O :   -0.000011
   2 H :   -0.000114
   3 H :   -0.000004
   4 H :   -0.000005
   5 H :   -0.002767
   6 C :   -0.381857
   7 O :   -0.061258
   8 H :    0.142555
   9 H :    0.105848
  10 H :    0.097890
  11 H :    0.100453

  Mayer bond orders larger than 0.1
B(  6-C ,  7-O ) :   0.9986 B(  6-C ,  9-H ) :   0.9750 B(  6-C , 10-H ) :   0.9698
B(  6-C , 11-H ) :   0.9764 B(  7-O ,  8-H ) :   0.9121

Dispersion correction           -0.000250537
FINAL SINGLE POINT ENERGY      -115.731932839966

DIPOLE MOMENT
-------------
                                X             Y             Z
Electronic contribution:      1.07223       0.30538      -1.63172
Nuclear contribution   :     -1.75783      -0.49589       1.75937
                        -----------------------------------------
Total Dipole Moment    :     -0.68560      -0.19051       0.12765
                        -----------------------------------------
Magnitude (a.u.)       :      0.72294
Magnitude (Debye)      :      1.83756

Rotational constants in cm-1:     4.309226     0.811222     0.780701
Rotational constants in MHz : 129187.341375 24319.823191 23404.832474

                             ****ORCA TERMINATED NORMALLY****
TOTAL RUN TIME: 0 days 0 hours 0 minutes 39 seconds 926 msec
