                         Program Version 4.1.2  - RELEASE  -
|  1> #Run DFT-D3 single point of the dimer
|  2> ! wB97X-D3 def2-TZVP TIGHTSCF CHELPG PMODEL PAL8
|  3>
|  4> %base "16-121_DFT_AB"
|  5>
|  6> %scf
|  7> MaxIter 1000
|  8> end
|  9>
| 10> * xyz 0 1
| 11>   C                      9.332024             -7.825781            -3.804788
| 12>   O                      8.953421             -7.722838            -5.139420
| 13>   H                      8.371526             -8.481379            -5.322820
| 14>   H                      10.157458            -8.605935            -3.657025
| 15>   H                      9.700460             -6.873416            -3.434979
| 16>   H                      8.503247             -8.036935            -3.181149
| 17>   C                      4.456608             -5.758991            -6.873054
| 18>   O                      5.760010             -5.413687            -6.980068
| 19>   H                      6.153159             -5.988479            -7.622950
| 20>   H                      3.953173             -5.299988            -7.743366
| 21>   H                      4.340412             -6.843411            -6.864687
| 22>   H                      4.166670             -5.363471            -5.862831
| 23> *
| 24>
| 25> #Run DFT-D3 single point of the molecule with dimer basis set
| 26> $new_job
| 27> %base "16-121_DFT_A"
| 28> ! wB97X-D3 def2-TZVP TIGHTSCF CHELPG PMODEL
| 29>
| 30> %scf
| 31> MaxIter 1000
| 32> end
| 33>
| 34> * xyz 0 1
| 35>   C                      9.332024             -7.825781            -3.804788
| 36>   O                      8.953421             -7.722838            -5.139420
| 37>   H                      8.371526             -8.481379            -5.322820
| 38>   H                      10.157458            -8.605935            -3.657025
| 39>   H                      9.700460             -6.873416            -3.434979
| 40>   H                      8.503247             -8.036935            -3.181149
| 41>   C                    : 4.456608             -5.758991            -6.873054
| 42>   O                    : 5.760010             -5.413687            -6.980068
| 43>   H                    : 6.153159             -5.988479            -7.622950
| 44>   H                    : 3.953173             -5.299988            -7.743366
| 45>   H                    : 4.340412             -6.843411            -6.864687
| 46>   H                    : 4.166670             -5.363471            -5.862831
| 47> *
| 48>
| 49> #Run DFT-D3 single point of the particle with dimer basis set
| 50> $new_job
| 51> %base "16-121_DFT_B"
| 52> ! wB97X-D3 def2-TZVP TIGHTSCF CHELPG PMODEL
| 53>
| 54> %scf
| 55> MaxIter 1000
| 56> end
| 57>
| 58> * xyz 0 1
| 59>   C                    : 9.332024             -7.825781            -3.804788
| 60>   O                    : 8.953421             -7.722838            -5.139420
| 61>   H                    : 8.371526             -8.481379            -5.322820
| 62>   H                    : 10.157458            -8.605935            -3.657025
| 63>   H                    : 9.700460             -6.873416            -3.434979
| 64>   H                    : 8.503247             -8.036935            -3.181149
| 65>   C                      4.456608             -5.758991            -6.873054
| 66>   O                      5.760010             -5.413687            -6.980068
| 67>   H                      6.153159             -5.988479            -7.622950
| 68>   H                      3.953173             -5.299988            -7.743366
| 69>   H                      4.340412             -6.843411            -6.864687
| 70>   H                      4.166670             -5.363471            -5.862831
| 71> *
| 72>
| 73>                          ****END OF INPUT****
 Total Charge           Charge          ....    0
 Multiplicity           Mult            ....    1
 Number of Electrons    NEL             ....   36
Dispersion correction           -0.000678705
FINAL SINGLE POINT ENERGY      -231.462373972901
Dispersion correction           -0.000232792
FINAL SINGLE POINT ENERGY      -115.733877849960

CARTESIAN COORDINATES (ANGSTROEM)
---------------------------------
  C      9.332024   -7.825781   -3.804788
  O      8.953421   -7.722838   -5.139420
  H      8.371526   -8.481379   -5.322820
  H     10.157458   -8.605935   -3.657025
  H      9.700460   -6.873416   -3.434979
  H      8.503247   -8.036935   -3.181149
  C      4.456608   -5.758991   -6.873054
  O      5.760010   -5.413687   -6.980068
  H      6.153159   -5.988479   -7.622950
  H      3.953173   -5.299988   -7.743366
  H      4.340412   -6.843411   -6.864687
  H      4.166670   -5.363471   -5.862831

 Multiplicity           Mult            ....    1
 Number of Electrons    NEL             ....   18
 Basis Dimension        Dim             ....  172

ORBITAL ENERGIES
----------------

  NO   OCC          E(Eh)            E(eV)
   0   2.0000     -19.223615      -523.1012
   1   2.0000     -10.310788      -280.5708
   2   2.0000      -1.158933       -31.5362
   3   2.0000      -0.788108       -21.4455
   4   2.0000      -0.621902       -16.9228
   5   2.0000      -0.558301       -15.1921
   6   2.0000      -0.524992       -14.2858
   7   2.0000      -0.427533       -11.6338
   8   2.0000      -0.367552       -10.0016
   9   0.0000       0.087483         2.3805
  10   0.0000       0.113675         3.0933
  11   0.0000       0.160904         4.3784
  12   0.0000       0.174869         4.7584
  13   0.0000       0.194756         5.2996

MULLIKEN ATOMIC CHARGES
-----------------------
   0 C :   -0.000194
   1 O :   -0.000096
   2 H :   -0.000253
   3 H :   -0.000002
   4 H :    0.000034
   5 H :    0.000017
   6 C :   -0.142119
   7 O :   -0.460092
   8 H :    0.310463
   9 H :    0.092608
  10 H :    0.092267
  11 H :    0.107366
Sum of atomic charges:    0.0000000

LOEWDIN ATOMIC CHARGES
----------------------
   0 C :   -0.000064
   1 O :   -0.000186
   2 H :   -0.000204
   3 H :   -0.000003
   4 H :   -0.000000
   5 H :   -0.000001
   6 C :   -0.432083
   7 O :   -0.032734
   8 H :    0.163712
   9 H :    0.096122
  10 H :    0.090354
  11 H :    0.115087

  Mayer bond orders larger than 0.1
B(  6-C ,  7-O ) :   0.9980 B(  6-C ,  9-H ) :   0.9804 B(  6-C , 10-H ) :   0.9816
B(  6-C , 11-H ) :   0.9737 B(  7-O ,  8-H ) :   0.9026

Dispersion correction           -0.000193831
FINAL SINGLE POINT ENERGY      -115.728924986526

DIPOLE MOMENT
-------------
                                X             Y             Z
Electronic contribution:      1.59751       0.51111      -0.07179
Nuclear contribution   :     -1.78758      -1.02100      -0.29339
                        -----------------------------------------
Total Dipole Moment    :     -0.19007      -0.50990      -0.36518
                        -----------------------------------------
Magnitude (a.u.)       :      0.65535
Magnitude (Debye)      :      1.66576

Rotational constants in cm-1:     4.064718     0.912298     0.878912
Rotational constants in MHz : 121857.192578 27350.011544 26349.107388

                             ****ORCA TERMINATED NORMALLY****
TOTAL RUN TIME: 0 days 0 hours 0 minutes 49 seconds 499 msec
