                         Program Version 4.1.2  - RELEASE  -
|  1> #Run DFT-D3 single point of the dimer
|  2> ! wB97X-D3 def2-TZVP TIGHTSCF CHELPG PMODEL PAL8
|  3>
|  4> %base "19-15_DFT_AB"
|  5>
|  6> %scf
|  7> MaxIter 1000
|  8> end
|  9>
| 10> * xyz 0 1
| 11>   C                      -9.485652            9.146111             -9.677231
| 12>   O                      -9.391521            8.246951             -10.803226
| 13>   H                      -8.826788            8.615643             -11.448044
| 14>   H                      -10.273621           8.718987             -9.129059
| 15>   H                      -8.578479            9.239186             -9.109685
| 16>   H                      -9.732555            10.232964            -9.990699
| 17>   C                      -7.953406            5.982523             -7.280825
| 18>   O                      -7.359437            5.843078             -5.989491
| 19>   H                      -6.422112            5.970046             -6.083202
| 20>   H                      -7.363661            5.353396             -8.045738
| 21>   H                      -8.952876            5.610469             -7.321396
| 22>   H                      -8.057900            7.016053             -7.638671
| 23> *
| 24>
| 25> #Run DFT-D3 single point of the molecule with dimer basis set
| 26> $new_job
| 27> %base "19-15_DFT_A"
| 28> ! wB97X-D3 def2-TZVP TIGHTSCF CHELPG PMODEL
| 29>
| 30> %scf
| 31> MaxIter 1000
| 32> end
| 33>
| 34> * xyz 0 1
| 35>   C                      -9.485652            9.146111             -9.677231
| 36>   O                      -9.391521            8.246951             -10.803226
| 37>   H                      -8.826788            8.615643             -11.448044
| 38>   H                      -10.273621           8.718987             -9.129059
| 39>   H                      -8.578479            9.239186             -9.109685
| 40>   H                      -9.732555            10.232964            -9.990699
| 41>   C                    : -7.953406            5.982523             -7.280825
| 42>   O                    : -7.359437            5.843078             -5.989491
| 43>   H                    : -6.422112            5.970046             -6.083202
| 44>   H                    : -7.363661            5.353396             -8.045738
| 45>   H                    : -8.952876            5.610469             -7.321396
| 46>   H                    : -8.057900            7.016053             -7.638671
| 47> *
| 48>
| 49> #Run DFT-D3 single point of the particle with dimer basis set
| 50> $new_job
| 51> %base "19-15_DFT_B"
| 52> ! wB97X-D3 def2-TZVP TIGHTSCF CHELPG PMODEL
| 53>
| 54> %scf
| 55> MaxIter 1000
| 56> end
| 57>
| 58> * xyz 0 1
| 59>   C                    : -9.485652            9.146111             -9.677231
| 60>   O                    : -9.391521            8.246951             -10.803226
| 61>   H                    : -8.826788            8.615643             -11.448044
| 62>   H                    : -10.273621           8.718987             -9.129059
| 63>   H                    : -8.578479            9.239186             -9.109685
| 64>   H                    : -9.732555            10.232964            -9.990699
| 65>   C                      -7.953406            5.982523             -7.280825
| 66>   O                      -7.359437            5.843078             -5.989491
| 67>   H                      -6.422112            5.970046             -6.083202
| 68>   H                      -7.363661            5.353396             -8.045738
| 69>   H                      -8.952876            5.610469             -7.321396
| 70>   H                      -8.057900            7.016053             -7.638671
| 71> *
| 72>
| 73>                          ****END OF INPUT****
 Total Charge           Charge          ....    0
 Multiplicity           Mult            ....    1
 Number of Electrons    NEL             ....   36
Dispersion correction           -0.001278851
FINAL SINGLE POINT ENERGY      -231.465328591048
Dispersion correction           -0.000258399
FINAL SINGLE POINT ENERGY      -115.731455726987

CARTESIAN COORDINATES (ANGSTROEM)
---------------------------------
  C     -9.485652    9.146111   -9.677231
  O     -9.391521    8.246951  -10.803226
  H     -8.826788    8.615643  -11.448044
  H    -10.273621    8.718987   -9.129059
  H     -8.578479    9.239186   -9.109685
  H     -9.732555   10.232964   -9.990699
  C     -7.953406    5.982523   -7.280825
  O     -7.359437    5.843078   -5.989491
  H     -6.422112    5.970046   -6.083202
  H     -7.363661    5.353396   -8.045738
  H     -8.952876    5.610469   -7.321396
  H     -8.057900    7.016053   -7.638671

 Multiplicity           Mult            ....    1
 Number of Electrons    NEL             ....   18
 Basis Dimension        Dim             ....  172

ORBITAL ENERGIES
----------------

  NO   OCC          E(Eh)            E(eV)
   0   2.0000     -19.231546      -523.3170
   1   2.0000     -10.318840      -280.7899
   2   2.0000      -1.134634       -30.8750
   3   2.0000      -0.796689       -21.6790
   4   2.0000      -0.606727       -16.5099
   5   2.0000      -0.538164       -14.6442
   6   2.0000      -0.530242       -14.4286
   7   2.0000      -0.430952       -11.7268
   8   2.0000      -0.375955       -10.2303
   9   0.0000       0.082119         2.2346
  10   0.0000       0.116937         3.1820
  11   0.0000       0.149534         4.0690
  12   0.0000       0.163985         4.4623
  13   0.0000       0.186257         5.0683

MULLIKEN ATOMIC CHARGES
-----------------------
   0 C :   -0.000848
   1 O :    0.000140
   2 H :    0.000008
   3 H :   -0.000206
   4 H :   -0.000097
   5 H :   -0.000054
   6 C :   -0.170883
   7 O :   -0.472158
   8 H :    0.315969
   9 H :    0.097931
  10 H :    0.124257
  11 H :    0.105941
Sum of atomic charges:   -0.0000000

LOEWDIN ATOMIC CHARGES
----------------------
   0 C :   -0.003230
   1 O :   -0.000027
   2 H :   -0.000009
   3 H :   -0.000343
   4 H :   -0.001907
   5 H :   -0.000031
   6 C :   -0.380482
   7 O :   -0.080878
   8 H :    0.162714
   9 H :    0.105550
  10 H :    0.101720
  11 H :    0.096924

  Mayer bond orders larger than 0.1
B(  6-C ,  7-O ) :   0.9977 B(  6-C ,  9-H ) :   0.9832 B(  6-C , 10-H ) :   0.9707
B(  6-C , 11-H ) :   0.9692 B(  7-O ,  8-H ) :   0.9011

Dispersion correction           -0.000262245
FINAL SINGLE POINT ENERGY      -115.732907138854

DIPOLE MOMENT
-------------
                                X             Y             Z
Electronic contribution:      0.60449      -0.14640       1.81651
Nuclear contribution   :     -0.27492       0.27654      -2.38200
                        -----------------------------------------
Total Dipole Moment    :      0.32957       0.13015      -0.56549
                        -----------------------------------------
Magnitude (a.u.)       :      0.66734
Magnitude (Debye)      :      1.69624

Rotational constants in cm-1:     4.313031     0.806482     0.782974
Rotational constants in MHz : 129301.427001 24177.714584 23472.979380

                             ****ORCA TERMINATED NORMALLY****
TOTAL RUN TIME: 0 days 0 hours 1 minutes 37 seconds 607 msec
