                         Program Version 4.1.2  - RELEASE  -
|  1> #Run DFT-D3 single point of the dimer
|  2> ! wB97X-D3 def2-TZVP TIGHTSCF CHELPG PMODEL PAL8
|  3>
|  4> %base "2-144_DFT_AB"
|  5>
|  6> %scf
|  7> MaxIter 1000
|  8> end
|  9>
| 10> * xyz 0 1
| 11>   C                      -6.241690            4.378514             -3.436788
| 12>   O                      -6.258239            3.052279             -3.939157
| 13>   H                      -6.689070            3.093621             -4.793892
| 14>   H                      -5.895818            4.476986             -2.412412
| 15>   H                      -5.605059            5.008731             -4.041317
| 16>   H                      -7.226849            4.775725             -3.558636
| 17>   C                      -3.647202            1.400535             -4.744171
| 18>   O                      -3.561103            1.011767             -6.071241
| 19>   H                      -4.257948            1.401585             -6.564534
| 20>   H                      -2.627047            1.345191             -4.311513
| 21>   H                      -4.008193            2.395758             -4.440256
| 22>   H                      -4.149570            0.626464             -4.100258
| 23> *
| 24>
| 25> #Run DFT-D3 single point of the molecule with dimer basis set
| 26> $new_job
| 27> %base "2-144_DFT_A"
| 28> ! wB97X-D3 def2-TZVP TIGHTSCF CHELPG PMODEL
| 29>
| 30> %scf
| 31> MaxIter 1000
| 32> end
| 33>
| 34> * xyz 0 1
| 35>   C                      -6.241690            4.378514             -3.436788
| 36>   O                      -6.258239            3.052279             -3.939157
| 37>   H                      -6.689070            3.093621             -4.793892
| 38>   H                      -5.895818            4.476986             -2.412412
| 39>   H                      -5.605059            5.008731             -4.041317
| 40>   H                      -7.226849            4.775725             -3.558636
| 41>   C                    : -3.647202            1.400535             -4.744171
| 42>   O                    : -3.561103            1.011767             -6.071241
| 43>   H                    : -4.257948            1.401585             -6.564534
| 44>   H                    : -2.627047            1.345191             -4.311513
| 45>   H                    : -4.008193            2.395758             -4.440256
| 46>   H                    : -4.149570            0.626464             -4.100258
| 47> *
| 48>
| 49> #Run DFT-D3 single point of the particle with dimer basis set
| 50> $new_job
| 51> %base "2-144_DFT_B"
| 52> ! wB97X-D3 def2-TZVP TIGHTSCF CHELPG PMODEL
| 53>
| 54> %scf
| 55> MaxIter 1000
| 56> end
| 57>
| 58> * xyz 0 1
| 59>   C                    : -6.241690            4.378514             -3.436788
| 60>   O                    : -6.258239            3.052279             -3.939157
| 61>   H                    : -6.689070            3.093621             -4.793892
| 62>   H                    : -5.895818            4.476986             -2.412412
| 63>   H                    : -5.605059            5.008731             -4.041317
| 64>   H                    : -7.226849            4.775725             -3.558636
| 65>   C                      -3.647202            1.400535             -4.744171
| 66>   O                      -3.561103            1.011767             -6.071241
| 67>   H                      -4.257948            1.401585             -6.564534
| 68>   H                      -2.627047            1.345191             -4.311513
| 69>   H                      -4.008193            2.395758             -4.440256
| 70>   H                      -4.149570            0.626464             -4.100258
| 71> *
| 72>
| 73>                          ****END OF INPUT****
 Total Charge           Charge          ....    0
 Multiplicity           Mult            ....    1
 Number of Electrons    NEL             ....   36
Dispersion correction           -0.001728407
FINAL SINGLE POINT ENERGY      -231.464472898005
Dispersion correction           -0.000219293
FINAL SINGLE POINT ENERGY      -115.734022994538

CARTESIAN COORDINATES (ANGSTROEM)
---------------------------------
  C     -6.241690    4.378514   -3.436788
  O     -6.258239    3.052279   -3.939157
  H     -6.689070    3.093621   -4.793892
  H     -5.895818    4.476986   -2.412412
  H     -5.605059    5.008731   -4.041317
  H     -7.226849    4.775725   -3.558636
  C     -3.647202    1.400535   -4.744171
  O     -3.561103    1.011767   -6.071241
  H     -4.257948    1.401585   -6.564534
  H     -2.627047    1.345191   -4.311513
  H     -4.008193    2.395758   -4.440256
  H     -4.149570    0.626464   -4.100258

 Multiplicity           Mult            ....    1
 Number of Electrons    NEL             ....   18
 Basis Dimension        Dim             ....  172

ORBITAL ENERGIES
----------------

  NO   OCC          E(Eh)            E(eV)
   0   2.0000     -19.234074      -523.3858
   1   2.0000     -10.315926      -280.7106
   2   2.0000      -1.151291       -31.3282
   3   2.0000      -0.797229       -21.6937
   4   2.0000      -0.623433       -16.9645
   5   2.0000      -0.536306       -14.5936
   6   2.0000      -0.527803       -14.3623
   7   2.0000      -0.433892       -11.8068
   8   2.0000      -0.371609       -10.1120
   9   0.0000       0.076248         2.0748
  10   0.0000       0.120618         3.2822
  11   0.0000       0.150817         4.1039
  12   0.0000       0.170679         4.6444
  13   0.0000       0.188391         5.1264

MULLIKEN ATOMIC CHARGES
-----------------------
   0 C :   -0.000250
   1 O :    0.000280
   2 H :    0.000054
   3 H :   -0.000205
   4 H :   -0.000128
   5 H :    0.000010
   6 C :   -0.165660
   7 O :   -0.456706
   8 H :    0.314188
   9 H :    0.112075
  10 H :    0.102728
  11 H :    0.093614
Sum of atomic charges:    0.0000000

LOEWDIN ATOMIC CHARGES
----------------------
   0 C :   -0.003671
   1 O :   -0.008559
   2 H :   -0.001121
   3 H :   -0.000136
   4 H :   -0.000462
   5 H :   -0.000069
   6 C :   -0.419084
   7 O :   -0.037141
   8 H :    0.158155
   9 H :    0.110234
  10 H :    0.101653
  11 H :    0.100201

  Mayer bond orders larger than 0.1
B(  6-C ,  7-O ) :   1.0206 B(  6-C ,  9-H ) :   0.9762 B(  6-C , 10-H ) :   0.9692
B(  6-C , 11-H ) :   0.9784 B(  7-O ,  8-H ) :   0.9019

Dispersion correction           -0.000273119
FINAL SINGLE POINT ENERGY      -115.730594353255

DIPOLE MOMENT
-------------
                                X             Y             Z
Electronic contribution:      0.07092      -0.44709      -1.95521
Nuclear contribution   :     -0.53278       0.86235       2.11626
                        -----------------------------------------
Total Dipole Moment    :     -0.46185       0.41526       0.16105
                        -----------------------------------------
Magnitude (a.u.)       :      0.64163
Magnitude (Debye)      :      1.63089

Rotational constants in cm-1:     4.445262     0.839441     0.810461
Rotational constants in MHz : 133265.596068 25165.811178 24297.005077

                             ****ORCA TERMINATED NORMALLY****
TOTAL RUN TIME: 0 days 0 hours 6 minutes 24 seconds 107 msec
