                         Program Version 4.1.2  - RELEASE  -
|  1> #Run DFT-D3 single point of the dimer
|  2> ! wB97X-D3 def2-TZVP TIGHTSCF CHELPG PMODEL PAL8
|  3>
|  4> %base "15-127_DFT_AB"
|  5>
|  6> %scf
|  7> MaxIter 1000
|  8> end
|  9>
| 10> * xyz 0 1
| 11>   C                      -9.214157            -0.697725            -0.310024
| 12>   O                      -8.796968            -0.094356            0.899646
| 13>   H                      -8.301824            0.652088             0.736307
| 14>   H                      -9.554524            -1.715221            -0.260434
| 15>   H                      -10.050928           -0.149997            -0.768847
| 16>   H                      -8.389909            -0.712610            -0.985198
| 17>   C                      -8.482336            3.409481             0.379262
| 18>   O                      -7.450749            2.393188             0.474597
| 19>   H                      -6.656089            2.897853             0.263945
| 20>   H                      -9.010186            3.507368             -0.567362
| 21>   H                      -9.215828            3.232609             1.167899
| 22>   H                      -8.031442            4.337339             0.588164
| 23> *
| 24>
| 25> #Run DFT-D3 single point of the molecule with dimer basis set
| 26> $new_job
| 27> %base "15-127_DFT_A"
| 28> ! wB97X-D3 def2-TZVP TIGHTSCF CHELPG PMODEL
| 29>
| 30> %scf
| 31> MaxIter 1000
| 32> end
| 33>
| 34> * xyz 0 1
| 35>   C                      -9.214157            -0.697725            -0.310024
| 36>   O                      -8.796968            -0.094356            0.899646
| 37>   H                      -8.301824            0.652088             0.736307
| 38>   H                      -9.554524            -1.715221            -0.260434
| 39>   H                      -10.050928           -0.149997            -0.768847
| 40>   H                      -8.389909            -0.712610            -0.985198
| 41>   C                    : -8.482336            3.409481             0.379262
| 42>   O                    : -7.450749            2.393188             0.474597
| 43>   H                    : -6.656089            2.897853             0.263945
| 44>   H                    : -9.010186            3.507368             -0.567362
| 45>   H                    : -9.215828            3.232609             1.167899
| 46>   H                    : -8.031442            4.337339             0.588164
| 47> *
| 48>
| 49> #Run DFT-D3 single point of the particle with dimer basis set
| 50> $new_job
| 51> %base "15-127_DFT_B"
| 52> ! wB97X-D3 def2-TZVP TIGHTSCF CHELPG PMODEL
| 53>
| 54> %scf
| 55> MaxIter 1000
| 56> end
| 57>
| 58> * xyz 0 1
| 59>   C                    : -9.214157            -0.697725            -0.310024
| 60>   O                    : -8.796968            -0.094356            0.899646
| 61>   H                    : -8.301824            0.652088             0.736307
| 62>   H                    : -9.554524            -1.715221            -0.260434
| 63>   H                    : -10.050928           -0.149997            -0.768847
| 64>   H                    : -8.389909            -0.712610            -0.985198
| 65>   C                      -8.482336            3.409481             0.379262
| 66>   O                      -7.450749            2.393188             0.474597
| 67>   H                      -6.656089            2.897853             0.263945
| 68>   H                      -9.010186            3.507368             -0.567362
| 69>   H                      -9.215828            3.232609             1.167899
| 70>   H                      -8.031442            4.337339             0.588164
| 71> *
| 72>
| 73>                          ****END OF INPUT****
 Total Charge           Charge          ....    0
 Multiplicity           Mult            ....    1
 Number of Electrons    NEL             ....   36
Dispersion correction           -0.001793045
FINAL SINGLE POINT ENERGY      -231.470684224382
Dispersion correction           -0.000238599
FINAL SINGLE POINT ENERGY      -115.731000327372

CARTESIAN COORDINATES (ANGSTROEM)
---------------------------------
  C     -9.214157   -0.697725   -0.310024
  O     -8.796968   -0.094356    0.899646
  H     -8.301824    0.652088    0.736307
  H     -9.554524   -1.715221   -0.260434
  H    -10.050928   -0.149997   -0.768847
  H     -8.389909   -0.712610   -0.985198
  C     -8.482336    3.409481    0.379262
  O     -7.450749    2.393188    0.474597
  H     -6.656089    2.897853    0.263945
  H     -9.010186    3.507368   -0.567362
  H     -9.215828    3.232609    1.167899
  H     -8.031442    4.337339    0.588164

 Multiplicity           Mult            ....    1
 Number of Electrons    NEL             ....   18
 Basis Dimension        Dim             ....  172

ORBITAL ENERGIES
----------------

  NO   OCC          E(Eh)            E(eV)
   0   2.0000     -19.233322      -523.3653
   1   2.0000     -10.310886      -280.5735
   2   2.0000      -1.129145       -30.7256
   3   2.0000      -0.798994       -21.7417
   4   2.0000      -0.607096       -16.5199
   5   2.0000      -0.540977       -14.7207
   6   2.0000      -0.522961       -14.2305
   7   2.0000      -0.442521       -12.0416
   8   2.0000      -0.377834       -10.2814
   9   0.0000       0.096659         2.6302
  10   0.0000       0.122689         3.3385
  11   0.0000       0.150484         4.0949
  12   0.0000       0.185508         5.0479
  13   0.0000       0.198012         5.3882

MULLIKEN ATOMIC CHARGES
-----------------------
   0 C :    0.000554
   1 O :    0.001292
   2 H :   -0.009568
   3 H :   -0.000183
   4 H :   -0.000138
   5 H :   -0.001801
   6 C :   -0.182429
   7 O :   -0.455172
   8 H :    0.307879
   9 H :    0.108718
  10 H :    0.121763
  11 H :    0.109085
Sum of atomic charges:    0.0000000

LOEWDIN ATOMIC CHARGES
----------------------
   0 C :   -0.002245
   1 O :   -0.004352
   2 H :   -0.036364
   3 H :   -0.000037
   4 H :   -0.000061
   5 H :   -0.000625
   6 C :   -0.353928
   7 O :   -0.067240
   8 H :    0.170495
   9 H :    0.096358
  10 H :    0.107668
  11 H :    0.090331

  Mayer bond orders larger than 0.1
B(  6-C ,  7-O ) :   0.9988 B(  6-C ,  9-H ) :   0.9646 B(  6-C , 10-H ) :   0.9820
B(  6-C , 11-H ) :   0.9844 B(  7-O ,  8-H ) :   0.9058

Dispersion correction           -0.000245112
FINAL SINGLE POINT ENERGY      -115.731983443261

DIPOLE MOMENT
-------------
                                X             Y             Z
Electronic contribution:      1.17955      -1.40933       0.08126
Nuclear contribution   :     -1.09272       2.17321      -0.23072
                        -----------------------------------------
Total Dipole Moment    :      0.08683       0.76388      -0.14946
                        -----------------------------------------
Magnitude (a.u.)       :      0.78319
Magnitude (Debye)      :      1.99072

Rotational constants in cm-1:     4.373478     0.803790     0.775586
Rotational constants in MHz : 131113.575643 24097.014757 23251.483737

                             ****ORCA TERMINATED NORMALLY****
TOTAL RUN TIME: 0 days 0 hours 1 minutes 5 seconds 10 msec
