                         Program Version 4.1.2  - RELEASE  -
|  1> #Run DFT-D3 single point of the dimer
|  2> ! wB97X-D3 def2-TZVP TIGHTSCF CHELPG PMODEL PAL8
|  3>
|  4> %base "2-107_DFT_AB"
|  5>
|  6> %scf
|  7> MaxIter 1000
|  8> end
|  9>
| 10> * xyz 0 1
| 11>   C                      8.250343             5.705359             -1.178994
| 12>   O                      7.781973             4.399579             -0.935683
| 13>   H                      6.990076             4.528335             -0.441139
| 14>   H                      7.784217             6.542154             -0.621818
| 15>   H                      9.292746             5.743374             -0.911809
| 16>   H                      8.314528             5.887828             -2.257205
| 17>   C                      6.959025             3.072497             -5.623268
| 18>   O                      6.539621             3.451904             -6.927977
| 19>   H                      7.290291             3.178967             -7.494902
| 20>   H                      7.249866             2.084123             -5.559084
| 21>   H                      7.783819             3.744292             -5.232767
| 22>   H                      6.170345             3.259439             -4.923721
| 23> *
| 24>
| 25> #Run DFT-D3 single point of the molecule with dimer basis set
| 26> $new_job
| 27> %base "2-107_DFT_A"
| 28> ! wB97X-D3 def2-TZVP TIGHTSCF CHELPG PMODEL
| 29>
| 30> %scf
| 31> MaxIter 1000
| 32> end
| 33>
| 34> * xyz 0 1
| 35>   C                      8.250343             5.705359             -1.178994
| 36>   O                      7.781973             4.399579             -0.935683
| 37>   H                      6.990076             4.528335             -0.441139
| 38>   H                      7.784217             6.542154             -0.621818
| 39>   H                      9.292746             5.743374             -0.911809
| 40>   H                      8.314528             5.887828             -2.257205
| 41>   C                    : 6.959025             3.072497             -5.623268
| 42>   O                    : 6.539621             3.451904             -6.927977
| 43>   H                    : 7.290291             3.178967             -7.494902
| 44>   H                    : 7.249866             2.084123             -5.559084
| 45>   H                    : 7.783819             3.744292             -5.232767
| 46>   H                    : 6.170345             3.259439             -4.923721
| 47> *
| 48>
| 49> #Run DFT-D3 single point of the particle with dimer basis set
| 50> $new_job
| 51> %base "2-107_DFT_B"
| 52> ! wB97X-D3 def2-TZVP TIGHTSCF CHELPG PMODEL
| 53>
| 54> %scf
| 55> MaxIter 1000
| 56> end
| 57>
| 58> * xyz 0 1
| 59>   C                    : 8.250343             5.705359             -1.178994
| 60>   O                    : 7.781973             4.399579             -0.935683
| 61>   H                    : 6.990076             4.528335             -0.441139
| 62>   H                    : 7.784217             6.542154             -0.621818
| 63>   H                    : 9.292746             5.743374             -0.911809
| 64>   H                    : 8.314528             5.887828             -2.257205
| 65>   C                      6.959025             3.072497             -5.623268
| 66>   O                      6.539621             3.451904             -6.927977
| 67>   H                      7.290291             3.178967             -7.494902
| 68>   H                      7.249866             2.084123             -5.559084
| 69>   H                      7.783819             3.744292             -5.232767
| 70>   H                      6.170345             3.259439             -4.923721
| 71> *
| 72>
| 73>                          ****END OF INPUT****
 Total Charge           Charge          ....    0
 Multiplicity           Mult            ....    1
 Number of Electrons    NEL             ....   36
Dispersion correction           -0.000756728
FINAL SINGLE POINT ENERGY      -231.463935302404
Dispersion correction           -0.000249600
FINAL SINGLE POINT ENERGY      -115.731253711964

CARTESIAN COORDINATES (ANGSTROEM)
---------------------------------
  C      8.250343    5.705359   -1.178994
  O      7.781973    4.399579   -0.935683
  H      6.990076    4.528335   -0.441139
  H      7.784217    6.542154   -0.621818
  H      9.292746    5.743374   -0.911809
  H      8.314528    5.887828   -2.257205
  C      6.959025    3.072497   -5.623268
  O      6.539621    3.451904   -6.927977
  H      7.290291    3.178967   -7.494902
  H      7.249866    2.084123   -5.559084
  H      7.783819    3.744292   -5.232767
  H      6.170345    3.259439   -4.923721

 Multiplicity           Mult            ....    1
 Number of Electrons    NEL             ....   18
 Basis Dimension        Dim             ....  172

ORBITAL ENERGIES
----------------

  NO   OCC          E(Eh)            E(eV)
   0   2.0000     -19.233802      -523.3784
   1   2.0000     -10.307361      -280.4776
   2   2.0000      -1.133124       -30.8339
   3   2.0000      -0.797392       -21.6981
   4   2.0000      -0.608715       -16.5640
   5   2.0000      -0.544024       -14.8036
   6   2.0000      -0.524688       -14.2775
   7   2.0000      -0.440184       -11.9780
   8   2.0000      -0.374265       -10.1843
   9   0.0000       0.084069         2.2876
  10   0.0000       0.114742         3.1223
  11   0.0000       0.147024         4.0007
  12   0.0000       0.162137         4.4120
  13   0.0000       0.193112         5.2549

MULLIKEN ATOMIC CHARGES
-----------------------
   0 C :    0.000017
   1 O :    0.000010
   2 H :   -0.000002
   3 H :   -0.000005
   4 H :   -0.000003
   5 H :   -0.000195
   6 C :   -0.176531
   7 O :   -0.465719
   8 H :    0.314332
   9 H :    0.112899
  10 H :    0.094790
  11 H :    0.120407
Sum of atomic charges:   -0.0000000

LOEWDIN ATOMIC CHARGES
----------------------
   0 C :   -0.000103
   1 O :   -0.000013
   2 H :   -0.000004
   3 H :   -0.000001
   4 H :   -0.000001
   5 H :   -0.000205
   6 C :   -0.380552
   7 O :   -0.088071
   8 H :    0.181803
   9 H :    0.080935
  10 H :    0.101809
  11 H :    0.104403

  Mayer bond orders larger than 0.1
B(  6-C ,  7-O ) :   1.0052 B(  6-C ,  9-H ) :   0.9748 B(  6-C , 10-H ) :   0.9766
B(  6-C , 11-H ) :   0.9754 B(  7-O ,  8-H ) :   0.9005

Dispersion correction           -0.000232847
FINAL SINGLE POINT ENERGY      -115.732005307091

DIPOLE MOMENT
-------------
                                X             Y             Z
Electronic contribution:     -0.71779       0.39048      -1.67414
Nuclear contribution   :      1.32228      -0.72710       1.84705
                        -----------------------------------------
Total Dipole Moment    :      0.60449      -0.33662       0.17291
                        -----------------------------------------
Magnitude (a.u.)       :      0.71317
Magnitude (Debye)      :      1.81274

Rotational constants in cm-1:     4.345006     0.826463     0.798859
Rotational constants in MHz : 130260.002241 24776.730347 23949.180779

                             ****ORCA TERMINATED NORMALLY****
TOTAL RUN TIME: 0 days 0 hours 6 minutes 0 seconds 38 msec
