                         Program Version 4.1.2  - RELEASE  -
|  1> #Run DFT-D3 single point of the dimer
|  2> ! wB97X-D3 def2-TZVP TIGHTSCF CHELPG PMODEL PAL8
|  3>
|  4> %base "12-213_DFT_AB"
|  5>
|  6> %scf
|  7> MaxIter 1000
|  8> end
|  9>
| 10> * xyz 0 1
| 11>   C                      -3.272401            6.414772             7.903279
| 12>   O                      -2.221952            7.192676             8.481812
| 13>   H                      -2.096548            8.004167             7.918444
| 14>   H                      -3.352770            5.419782             8.481370
| 15>   H                      -4.210993            6.998517             8.036973
| 16>   H                      -3.129233            6.191496             6.820200
| 17>   C                      -2.317205            8.892948             11.292753
| 18>   O                      -3.647134            8.711647             10.800370
| 19>   H                      -3.560660            8.821451             9.892221
| 20>   H                      -2.353586            9.104131             12.371504
| 21>   H                      -1.625960            8.131129             10.992430
| 22>   H                      -1.778977            9.724011             10.888744
| 23> *
| 24>
| 25> #Run DFT-D3 single point of the molecule with dimer basis set
| 26> $new_job
| 27> %base "12-213_DFT_A"
| 28> ! wB97X-D3 def2-TZVP TIGHTSCF CHELPG PMODEL
| 29>
| 30> %scf
| 31> MaxIter 1000
| 32> end
| 33>
| 34> * xyz 0 1
| 35>   C                      -3.272401            6.414772             7.903279
| 36>   O                      -2.221952            7.192676             8.481812
| 37>   H                      -2.096548            8.004167             7.918444
| 38>   H                      -3.352770            5.419782             8.481370
| 39>   H                      -4.210993            6.998517             8.036973
| 40>   H                      -3.129233            6.191496             6.820200
| 41>   C                    : -2.317205            8.892948             11.292753
| 42>   O                    : -3.647134            8.711647             10.800370
| 43>   H                    : -3.560660            8.821451             9.892221
| 44>   H                    : -2.353586            9.104131             12.371504
| 45>   H                    : -1.625960            8.131129             10.992430
| 46>   H                    : -1.778977            9.724011             10.888744
| 47> *
| 48>
| 49> #Run DFT-D3 single point of the particle with dimer basis set
| 50> $new_job
| 51> %base "12-213_DFT_B"
| 52> ! wB97X-D3 def2-TZVP TIGHTSCF CHELPG PMODEL
| 53>
| 54> %scf
| 55> MaxIter 1000
| 56> end
| 57>
| 58> * xyz 0 1
| 59>   C                    : -3.272401            6.414772             7.903279
| 60>   O                    : -2.221952            7.192676             8.481812
| 61>   H                    : -2.096548            8.004167             7.918444
| 62>   H                    : -3.352770            5.419782             8.481370
| 63>   H                    : -4.210993            6.998517             8.036973
| 64>   H                    : -3.129233            6.191496             6.820200
| 65>   C                      -2.317205            8.892948             11.292753
| 66>   O                      -3.647134            8.711647             10.800370
| 67>   H                      -3.560660            8.821451             9.892221
| 68>   H                      -2.353586            9.104131             12.371504
| 69>   H                      -1.625960            8.131129             10.992430
| 70>   H                      -1.778977            9.724011             10.888744
| 71> *
| 72>
| 73>                          ****END OF INPUT****
 Total Charge           Charge          ....    0
 Multiplicity           Mult            ....    1
 Number of Electrons    NEL             ....   36
Dispersion correction           -0.002120037
FINAL SINGLE POINT ENERGY      -231.463747796313
Dispersion correction           -0.000254535
FINAL SINGLE POINT ENERGY      -115.732780979485

CARTESIAN COORDINATES (ANGSTROEM)
---------------------------------
  C     -3.272401    6.414772    7.903279
  O     -2.221952    7.192676    8.481812
  H     -2.096548    8.004167    7.918444
  H     -3.352770    5.419782    8.481370
  H     -4.210993    6.998517    8.036973
  H     -3.129233    6.191496    6.820200
  C     -2.317205    8.892948   11.292753
  O     -3.647134    8.711647   10.800370
  H     -3.560660    8.821451    9.892221
  H     -2.353586    9.104131   12.371504
  H     -1.625960    8.131129   10.992430
  H     -1.778977    9.724011   10.888744

 Multiplicity           Mult            ....    1
 Number of Electrons    NEL             ....   18
 Basis Dimension        Dim             ....  172

ORBITAL ENERGIES
----------------

  NO   OCC          E(Eh)            E(eV)
   0   2.0000     -19.231655      -523.3199
   1   2.0000     -10.310537      -280.5640
   2   2.0000      -1.144934       -31.1552
   3   2.0000      -0.804424       -21.8895
   4   2.0000      -0.623041       -16.9538
   5   2.0000      -0.540591       -14.7102
   6   2.0000      -0.517396       -14.0791
   7   2.0000      -0.449204       -12.2235
   8   2.0000      -0.376420       -10.2429
   9   0.0000       0.074188         2.0188
  10   0.0000       0.131283         3.5724
  11   0.0000       0.152435         4.1480
  12   0.0000       0.174601         4.7511
  13   0.0000       0.184416         5.0182

MULLIKEN ATOMIC CHARGES
-----------------------
   0 C :   -0.003467
   1 O :   -0.001736
   2 H :   -0.000446
   3 H :    0.000473
   4 H :   -0.001258
   5 H :   -0.000197
   6 C :   -0.192632
   7 O :   -0.451086
   8 H :    0.303837
   9 H :    0.129199
  10 H :    0.109479
  11 H :    0.107834
Sum of atomic charges:   -0.0000000

LOEWDIN ATOMIC CHARGES
----------------------
   0 C :   -0.004298
   1 O :   -0.005945
   2 H :   -0.001319
   3 H :   -0.000106
   4 H :   -0.001495
   5 H :   -0.000085
   6 C :   -0.374311
   7 O :   -0.051886
   8 H :    0.141352
   9 H :    0.113444
  10 H :    0.092735
  11 H :    0.091914

  Mayer bond orders larger than 0.1
B(  6-C ,  7-O ) :   1.0013 B(  6-C ,  9-H ) :   0.9770 B(  6-C , 10-H ) :   0.9702
B(  6-C , 11-H ) :   0.9774 B(  7-O ,  8-H ) :   0.9150

Dispersion correction           -0.000237096
FINAL SINGLE POINT ENERGY      -115.728925509024

DIPOLE MOMENT
-------------
                                X             Y             Z
Electronic contribution:     -1.84190      -0.32872      -0.46997
Nuclear contribution   :      2.44086       0.50963       0.07791
                        -----------------------------------------
Total Dipole Moment    :      0.59896       0.18091      -0.39206
                        -----------------------------------------
Magnitude (a.u.)       :      0.73837
Magnitude (Debye)      :      1.87680

Rotational constants in cm-1:     4.525117     0.822927     0.782897
Rotational constants in MHz : 135659.607282 24670.735604 23470.653991

                             ****ORCA TERMINATED NORMALLY****
TOTAL RUN TIME: 0 days 0 hours 1 minutes 12 seconds 48 msec
