                         Program Version 4.1.2  - RELEASE  -
|  1> #Run DFT-D3 single point of the dimer
|  2> ! wB97X-D3 def2-TZVP TIGHTSCF CHELPG PMODEL PAL8
|  3>
|  4> %base "2-39_DFT_AB"
|  5>
|  6> %scf
|  7> MaxIter 1000
|  8> end
|  9>
| 10> * xyz 0 1
| 11>   C                      5.916145             7.599752             -3.115480
| 12>   O                      6.303187             6.405109             -3.797141
| 13>   H                      6.313995             5.742929             -3.113214
| 14>   H                      6.562852             7.866482             -2.246742
| 15>   H                      5.963492             8.428625             -3.817606
| 16>   H                      4.933177             7.588969             -2.693862
| 17>   C                      5.391279             3.294329             -2.170798
| 18>   O                      4.977927             4.575700             -1.761381
| 19>   H                      4.206641             4.885202             -2.279317
| 20>   H                      4.601016             2.735883             -2.674586
| 21>   H                      6.284106             3.480828             -2.840188
| 22>   H                      5.683525             2.699588             -1.319421
| 23> *
| 24>
| 25> #Run DFT-D3 single point of the molecule with dimer basis set
| 26> $new_job
| 27> %base "2-39_DFT_A"
| 28> ! wB97X-D3 def2-TZVP TIGHTSCF CHELPG PMODEL
| 29>
| 30> %scf
| 31> MaxIter 1000
| 32> end
| 33>
| 34> * xyz 0 1
| 35>   C                      5.916145             7.599752             -3.115480
| 36>   O                      6.303187             6.405109             -3.797141
| 37>   H                      6.313995             5.742929             -3.113214
| 38>   H                      6.562852             7.866482             -2.246742
| 39>   H                      5.963492             8.428625             -3.817606
| 40>   H                      4.933177             7.588969             -2.693862
| 41>   C                    : 5.391279             3.294329             -2.170798
| 42>   O                    : 4.977927             4.575700             -1.761381
| 43>   H                    : 4.206641             4.885202             -2.279317
| 44>   H                    : 4.601016             2.735883             -2.674586
| 45>   H                    : 6.284106             3.480828             -2.840188
| 46>   H                    : 5.683525             2.699588             -1.319421
| 47> *
| 48>
| 49> #Run DFT-D3 single point of the particle with dimer basis set
| 50> $new_job
| 51> %base "2-39_DFT_B"
| 52> ! wB97X-D3 def2-TZVP TIGHTSCF CHELPG PMODEL
| 53>
| 54> %scf
| 55> MaxIter 1000
| 56> end
| 57>
| 58> * xyz 0 1
| 59>   C                    : 5.916145             7.599752             -3.115480
| 60>   O                    : 6.303187             6.405109             -3.797141
| 61>   H                    : 6.313995             5.742929             -3.113214
| 62>   H                    : 6.562852             7.866482             -2.246742
| 63>   H                    : 5.963492             8.428625             -3.817606
| 64>   H                    : 4.933177             7.588969             -2.693862
| 65>   C                      5.391279             3.294329             -2.170798
| 66>   O                      4.977927             4.575700             -1.761381
| 67>   H                      4.206641             4.885202             -2.279317
| 68>   H                      4.601016             2.735883             -2.674586
| 69>   H                      6.284106             3.480828             -2.840188
| 70>   H                      5.683525             2.699588             -1.319421
| 71> *
| 72>
| 73>                          ****END OF INPUT****
 Total Charge           Charge          ....    0
 Multiplicity           Mult            ....    1
 Number of Electrons    NEL             ....   36
Dispersion correction           -0.001973842
FINAL SINGLE POINT ENERGY      -231.475266797289
Dispersion correction           -0.000247121
FINAL SINGLE POINT ENERGY      -115.735520528348

CARTESIAN COORDINATES (ANGSTROEM)
---------------------------------
  C      5.916145    7.599752   -3.115480
  O      6.303187    6.405109   -3.797141
  H      6.313995    5.742929   -3.113214
  H      6.562852    7.866482   -2.246742
  H      5.963492    8.428625   -3.817606
  H      4.933177    7.588969   -2.693862
  C      5.391279    3.294329   -2.170798
  O      4.977927    4.575700   -1.761381
  H      4.206641    4.885202   -2.279317
  H      4.601016    2.735883   -2.674586
  H      6.284106    3.480828   -2.840188
  H      5.683525    2.699588   -1.319421

 Multiplicity           Mult            ....    1
 Number of Electrons    NEL             ....   18
 Basis Dimension        Dim             ....  172

ORBITAL ENERGIES
----------------

  NO   OCC          E(Eh)            E(eV)
   0   2.0000     -19.229298      -523.2558
   1   2.0000     -10.313878      -280.6549
   2   2.0000      -1.132449       -30.8155
   3   2.0000      -0.792817       -21.5736
   4   2.0000      -0.610206       -16.6046
   5   2.0000      -0.542816       -14.7708
   6   2.0000      -0.526657       -14.3311
   7   2.0000      -0.429575       -11.6893
   8   2.0000      -0.369446       -10.0531
   9   0.0000       0.090167         2.4536
  10   0.0000       0.127121         3.4591
  11   0.0000       0.150433         4.0935
  12   0.0000       0.177715         4.8359
  13   0.0000       0.203629         5.5410

MULLIKEN ATOMIC CHARGES
-----------------------
   0 C :    0.001940
   1 O :   -0.002914
   2 H :   -0.003642
   3 H :   -0.000900
   4 H :   -0.000152
   5 H :   -0.003135
   6 C :   -0.164743
   7 O :   -0.476468
   8 H :    0.321825
   9 H :    0.107282
  10 H :    0.101413
  11 H :    0.119493
Sum of atomic charges:    0.0000000

LOEWDIN ATOMIC CHARGES
----------------------
   0 C :   -0.006878
   1 O :   -0.004164
   2 H :   -0.019797
   3 H :   -0.000356
   4 H :   -0.000098
   5 H :   -0.001631
   6 C :   -0.387881
   7 O :   -0.063206
   8 H :    0.181448
   9 H :    0.095170
  10 H :    0.106251
  11 H :    0.101142

  Mayer bond orders larger than 0.1
B(  6-C ,  7-O ) :   0.9997 B(  6-C ,  9-H ) :   0.9796 B(  6-C , 10-H ) :   0.9829
B(  6-C , 11-H ) :   0.9720 B(  7-O ,  8-H ) :   0.8910

Dispersion correction           -0.000245864
FINAL SINGLE POINT ENERGY      -115.733655024425

DIPOLE MOMENT
-------------
                                X             Y             Z
Electronic contribution:     -0.49240       1.54801       0.64592
Nuclear contribution   :      0.12408      -1.87990      -1.11684
                        -----------------------------------------
Total Dipole Moment    :     -0.36831      -0.33188      -0.47092
                        -----------------------------------------
Magnitude (a.u.)       :      0.68379
Magnitude (Debye)      :      1.73805

Rotational constants in cm-1:     4.201845     0.834137     0.810503
Rotational constants in MHz : 125968.138095 25006.784612 24298.266580

                             ****ORCA TERMINATED NORMALLY****
TOTAL RUN TIME: 0 days 0 hours 5 minutes 40 seconds 411 msec
