                         Program Version 4.1.2  - RELEASE  -
|  1> #Run DFT-D3 single point of the dimer
|  2> ! wB97X-D3 def2-TZVP TIGHTSCF CHELPG PMODEL PAL8
|  3>
|  4> %base "3-123_DFT_AB"
|  5>
|  6> %scf
|  7> MaxIter 1000
|  8> end
|  9>
| 10> * xyz 0 1
| 11>   C                      8.410197             3.010015             -0.062294
| 12>   O                      8.200692             3.657938             -1.307122
| 13>   H                      9.016419             3.833738             -1.740553
| 14>   H                      7.517326             2.979493             0.495077
| 15>   H                      8.723145             1.926999             -0.151185
| 16>   H                      9.352263             3.358656             0.548165
| 17>   C                      7.841369             1.138215             -3.199802
| 18>   O                      6.875723             0.807199             -2.276302
| 19>   H                      7.102792             0.095378             -1.712923
| 20>   H                      8.817140             1.133840             -2.719237
| 21>   H                      7.927319             0.388503             -4.027630
| 22>   H                      7.683703             2.169119             -3.624330
| 23> *
| 24>
| 25> #Run DFT-D3 single point of the molecule with dimer basis set
| 26> $new_job
| 27> %base "3-123_DFT_A"
| 28> ! wB97X-D3 def2-TZVP TIGHTSCF CHELPG PMODEL
| 29>
| 30> %scf
| 31> MaxIter 1000
| 32> end
| 33>
| 34> * xyz 0 1
| 35>   C                      8.410197             3.010015             -0.062294
| 36>   O                      8.200692             3.657938             -1.307122
| 37>   H                      9.016419             3.833738             -1.740553
| 38>   H                      7.517326             2.979493             0.495077
| 39>   H                      8.723145             1.926999             -0.151185
| 40>   H                      9.352263             3.358656             0.548165
| 41>   C                    : 7.841369             1.138215             -3.199802
| 42>   O                    : 6.875723             0.807199             -2.276302
| 43>   H                    : 7.102792             0.095378             -1.712923
| 44>   H                    : 8.817140             1.133840             -2.719237
| 45>   H                    : 7.927319             0.388503             -4.027630
| 46>   H                    : 7.683703             2.169119             -3.624330
| 47> *
| 48>
| 49> #Run DFT-D3 single point of the particle with dimer basis set
| 50> $new_job
| 51> %base "3-123_DFT_B"
| 52> ! wB97X-D3 def2-TZVP TIGHTSCF CHELPG PMODEL
| 53>
| 54> %scf
| 55> MaxIter 1000
| 56> end
| 57>
| 58> * xyz 0 1
| 59>   C                    : 8.410197             3.010015             -0.062294
| 60>   O                    : 8.200692             3.657938             -1.307122
| 61>   H                    : 9.016419             3.833738             -1.740553
| 62>   H                    : 7.517326             2.979493             0.495077
| 63>   H                    : 8.723145             1.926999             -0.151185
| 64>   H                    : 9.352263             3.358656             0.548165
| 65>   C                      7.841369             1.138215             -3.199802
| 66>   O                      6.875723             0.807199             -2.276302
| 67>   H                      7.102792             0.095378             -1.712923
| 68>   H                      8.817140             1.133840             -2.719237
| 69>   H                      7.927319             0.388503             -4.027630
| 70>   H                      7.683703             2.169119             -3.624330
| 71> *
| 72>
| 73>                          ****END OF INPUT****
 Total Charge           Charge          ....    0
 Multiplicity           Mult            ....    1
 Number of Electrons    NEL             ....   36
Dispersion correction           -0.002446787
FINAL SINGLE POINT ENERGY      -231.460695509283
Dispersion correction           -0.000281885
FINAL SINGLE POINT ENERGY      -115.727470111260

CARTESIAN COORDINATES (ANGSTROEM)
---------------------------------
  C      8.410197    3.010015   -0.062294
  O      8.200692    3.657938   -1.307122
  H      9.016419    3.833738   -1.740553
  H      7.517326    2.979493    0.495077
  H      8.723145    1.926999   -0.151185
  H      9.352263    3.358656    0.548165
  C      7.841369    1.138215   -3.199802
  O      6.875723    0.807199   -2.276302
  H      7.102792    0.095378   -1.712923
  H      8.817140    1.133840   -2.719237
  H      7.927319    0.388503   -4.027630
  H      7.683703    2.169119   -3.624330

 Multiplicity           Mult            ....    1
 Number of Electrons    NEL             ....   18
 Basis Dimension        Dim             ....  172

ORBITAL ENERGIES
----------------

  NO   OCC          E(Eh)            E(eV)
   0   2.0000     -19.226848      -523.1891
   1   2.0000     -10.316531      -280.7271
   2   2.0000      -1.149660       -31.2838
   3   2.0000      -0.796472       -21.6731
   4   2.0000      -0.623884       -16.9767
   5   2.0000      -0.540609       -14.7107
   6   2.0000      -0.533942       -14.5293
   7   2.0000      -0.424117       -11.5408
   8   2.0000      -0.370520       -10.0824
   9   0.0000       0.086343         2.3495
  10   0.0000       0.130039         3.5385
  11   0.0000       0.144728         3.9382
  12   0.0000       0.180920         4.9231
  13   0.0000       0.191440         5.2093

MULLIKEN ATOMIC CHARGES
-----------------------
   0 C :    0.001269
   1 O :    0.001375
   2 H :   -0.000924
   3 H :   -0.000710
   4 H :   -0.005469
   5 H :   -0.000286
   6 C :   -0.160018
   7 O :   -0.476266
   8 H :    0.317196
   9 H :    0.104208
  10 H :    0.100976
  11 H :    0.118649
Sum of atomic charges:   -0.0000000

LOEWDIN ATOMIC CHARGES
----------------------
   0 C :   -0.008439
   1 O :   -0.003339
   2 H :   -0.001785
   3 H :   -0.000688
   4 H :   -0.003021
   5 H :   -0.000103
   6 C :   -0.412548
   7 O :   -0.032001
   8 H :    0.155465
   9 H :    0.093475
  10 H :    0.096334
  11 H :    0.116649

  Mayer bond orders larger than 0.1
B(  6-C ,  7-O ) :   0.9883 B(  6-C ,  9-H ) :   0.9874 B(  6-C , 10-H ) :   0.9709
B(  6-C , 11-H ) :   0.9715 B(  7-O ,  8-H ) :   0.8965

Dispersion correction           -0.000240745
FINAL SINGLE POINT ENERGY      -115.733362510864

DIPOLE MOMENT
-------------
                                X             Y             Z
Electronic contribution:     -1.40490      -0.33411       1.17251
Nuclear contribution   :      1.93789      -0.01007      -1.13747
                        -----------------------------------------
Total Dipole Moment    :      0.53299      -0.34419       0.03504
                        -----------------------------------------
Magnitude (a.u.)       :      0.63543
Magnitude (Debye)      :      1.61513

Rotational constants in cm-1:     4.337460     0.856588     0.825478
Rotational constants in MHz : 130033.765923 25679.848702 24747.207771

                             ****ORCA TERMINATED NORMALLY****
TOTAL RUN TIME: 0 days 0 hours 6 minutes 26 seconds 133 msec
