                         Program Version 4.1.2  - RELEASE  -
|  1> #Run DFT-D3 single point of the dimer
|  2> ! wB97X-D3 def2-TZVP TIGHTSCF CHELPG PMODEL PAL8
|  3>
|  4> %base "5-150_DFT_AB"
|  5>
|  6> %scf
|  7> MaxIter 1000
|  8> end
|  9>
| 10> * xyz 0 1
| 11>   C                      8.147362             3.621650             -3.749684
| 12>   O                      8.053980             4.057583             -2.454928
| 13>   H                      7.472880             3.409524             -2.063040
| 14>   H                      7.820027             2.626620             -3.885421
| 15>   H                      7.487367             4.180078             -4.434288
| 16>   H                      9.216773             3.642630             -4.117676
| 17>   C                      4.929849             5.519204             -3.312693
| 18>   O                      4.791169             4.298609             -2.691907
| 19>   H                      4.377090             4.461801             -1.862990
| 20>   H                      5.868760             5.594581             -3.957458
| 21>   H                      4.101892             5.726034             -4.045604
| 22>   H                      5.026957             6.366105             -2.589375
| 23> *
| 24>
| 25> #Run DFT-D3 single point of the molecule with dimer basis set
| 26> $new_job
| 27> %base "5-150_DFT_A"
| 28> ! wB97X-D3 def2-TZVP TIGHTSCF CHELPG PMODEL
| 29>
| 30> %scf
| 31> MaxIter 1000
| 32> end
| 33>
| 34> * xyz 0 1
| 35>   C                      8.147362             3.621650             -3.749684
| 36>   O                      8.053980             4.057583             -2.454928
| 37>   H                      7.472880             3.409524             -2.063040
| 38>   H                      7.820027             2.626620             -3.885421
| 39>   H                      7.487367             4.180078             -4.434288
| 40>   H                      9.216773             3.642630             -4.117676
| 41>   C                    : 4.929849             5.519204             -3.312693
| 42>   O                    : 4.791169             4.298609             -2.691907
| 43>   H                    : 4.377090             4.461801             -1.862990
| 44>   H                    : 5.868760             5.594581             -3.957458
| 45>   H                    : 4.101892             5.726034             -4.045604
| 46>   H                    : 5.026957             6.366105             -2.589375
| 47> *
| 48>
| 49> #Run DFT-D3 single point of the particle with dimer basis set
| 50> $new_job
| 51> %base "5-150_DFT_B"
| 52> ! wB97X-D3 def2-TZVP TIGHTSCF CHELPG PMODEL
| 53>
| 54> %scf
| 55> MaxIter 1000
| 56> end
| 57>
| 58> * xyz 0 1
| 59>   C                    : 8.147362             3.621650             -3.749684
| 60>   O                    : 8.053980             4.057583             -2.454928
| 61>   H                    : 7.472880             3.409524             -2.063040
| 62>   H                    : 7.820027             2.626620             -3.885421
| 63>   H                    : 7.487367             4.180078             -4.434288
| 64>   H                    : 9.216773             3.642630             -4.117676
| 65>   C                      4.929849             5.519204             -3.312693
| 66>   O                      4.791169             4.298609             -2.691907
| 67>   H                      4.377090             4.461801             -1.862990
| 68>   H                      5.868760             5.594581             -3.957458
| 69>   H                      4.101892             5.726034             -4.045604
| 70>   H                      5.026957             6.366105             -2.589375
| 71> *
| 72>
| 73>                          ****END OF INPUT****
 Total Charge           Charge          ....    0
 Multiplicity           Mult            ....    1
 Number of Electrons    NEL             ....   36
Dispersion correction           -0.002139182
FINAL SINGLE POINT ENERGY      -231.466452957003
Dispersion correction           -0.000222055
FINAL SINGLE POINT ENERGY      -115.730555267716

CARTESIAN COORDINATES (ANGSTROEM)
---------------------------------
  C      8.147362    3.621650   -3.749684
  O      8.053980    4.057583   -2.454928
  H      7.472880    3.409524   -2.063040
  H      7.820027    2.626620   -3.885421
  H      7.487367    4.180078   -4.434288
  H      9.216773    3.642630   -4.117676
  C      4.929849    5.519204   -3.312693
  O      4.791169    4.298609   -2.691907
  H      4.377090    4.461801   -1.862990
  H      5.868760    5.594581   -3.957458
  H      4.101892    5.726034   -4.045604
  H      5.026957    6.366105   -2.589375

 Multiplicity           Mult            ....    1
 Number of Electrons    NEL             ....   18
 Basis Dimension        Dim             ....  172

ORBITAL ENERGIES
----------------

  NO   OCC          E(Eh)            E(eV)
   0   2.0000     -19.233762      -523.3773
   1   2.0000     -10.321604      -280.8651
   2   2.0000      -1.156337       -31.4655
   3   2.0000      -0.789436       -21.4816
   4   2.0000      -0.621679       -16.9168
   5   2.0000      -0.542065       -14.7503
   6   2.0000      -0.531540       -14.4639
   7   2.0000      -0.429895       -11.6980
   8   2.0000      -0.373099       -10.1525
   9   0.0000       0.094880         2.5818
  10   0.0000       0.123681         3.3655
  11   0.0000       0.151330         4.1179
  12   0.0000       0.183839         5.0025
  13   0.0000       0.195460         5.3187

MULLIKEN ATOMIC CHARGES
-----------------------
   0 C :    0.002561
   1 O :    0.000779
   2 H :   -0.005172
   3 H :   -0.001142
   4 H :    0.001771
   5 H :    0.000175
   6 C :   -0.177884
   7 O :   -0.450478
   8 H :    0.316831
   9 H :    0.108597
  10 H :    0.102622
  11 H :    0.101340
Sum of atomic charges:    0.0000000

LOEWDIN ATOMIC CHARGES
----------------------
   0 C :   -0.006084
   1 O :   -0.001922
   2 H :   -0.005646
   3 H :   -0.000269
   4 H :   -0.005880
   5 H :   -0.000023
   6 C :   -0.427173
   7 O :   -0.028792
   8 H :    0.163661
   9 H :    0.115241
  10 H :    0.098857
  11 H :    0.098032

  Mayer bond orders larger than 0.1
B(  6-C ,  7-O ) :   1.0131 B(  6-C ,  9-H ) :   0.9741 B(  6-C , 10-H ) :   0.9712
B(  6-C , 11-H ) :   0.9828 B(  7-O ,  8-H ) :   0.8997

Dispersion correction           -0.000248832
FINAL SINGLE POINT ENERGY      -115.732463820246

DIPOLE MOMENT
-------------
                                X             Y             Z
Electronic contribution:     -0.18623      -1.79161       0.83505
Nuclear contribution   :     -0.02370       2.33686      -0.50671
                        -----------------------------------------
Total Dipole Moment    :     -0.20993       0.54524       0.32835
                        -----------------------------------------
Magnitude (a.u.)       :      0.67020
Magnitude (Debye)      :      1.70352

Rotational constants in cm-1:     4.213624     0.853983     0.824218
Rotational constants in MHz : 126321.277452 25601.777513 24709.442379

                             ****ORCA TERMINATED NORMALLY****
TOTAL RUN TIME: 0 days 0 hours 1 minutes 3 seconds 622 msec
