                         Program Version 4.1.2  - RELEASE  -
|  1> #Run DFT-D3 single point of the dimer
|  2> ! wB97X-D3 def2-TZVP TIGHTSCF CHELPG PMODEL PAL8
|  3>
|  4> %base "15-206_DFT_AB"
|  5>
|  6> %scf
|  7> MaxIter 1000
|  8> end
|  9>
| 10> * xyz 0 1
| 11>   C                      -6.504516            -1.500290            -8.431497
| 12>   O                      -6.338600            -0.425602            -9.371969
| 13>   H                      -7.225021            -0.135700            -9.610803
| 14>   H                      -7.421601            -1.334292            -7.898962
| 15>   H                      -6.661592            -2.478114            -8.949301
| 16>   H                      -5.704916            -1.581016            -7.692120
| 17>   C                      -3.792512            1.488583             -7.452187
| 18>   O                      -4.759811            2.049113             -8.376682
| 19>   H                      -4.986571            1.271547             -8.877913
| 20>   H                      -4.248719            0.778068             -6.799371
| 21>   H                      -2.845662            1.009647             -7.852309
| 22>   H                      -3.524249            2.327959             -6.747354
| 23> *
| 24>
| 25> #Run DFT-D3 single point of the molecule with dimer basis set
| 26> $new_job
| 27> %base "15-206_DFT_A"
| 28> ! wB97X-D3 def2-TZVP TIGHTSCF CHELPG PMODEL
| 29>
| 30> %scf
| 31> MaxIter 1000
| 32> end
| 33>
| 34> * xyz 0 1
| 35>   C                      -6.504516            -1.500290            -8.431497
| 36>   O                      -6.338600            -0.425602            -9.371969
| 37>   H                      -7.225021            -0.135700            -9.610803
| 38>   H                      -7.421601            -1.334292            -7.898962
| 39>   H                      -6.661592            -2.478114            -8.949301
| 40>   H                      -5.704916            -1.581016            -7.692120
| 41>   C                    : -3.792512            1.488583             -7.452187
| 42>   O                    : -4.759811            2.049113             -8.376682
| 43>   H                    : -4.986571            1.271547             -8.877913
| 44>   H                    : -4.248719            0.778068             -6.799371
| 45>   H                    : -2.845662            1.009647             -7.852309
| 46>   H                    : -3.524249            2.327959             -6.747354
| 47> *
| 48>
| 49> #Run DFT-D3 single point of the particle with dimer basis set
| 50> $new_job
| 51> %base "15-206_DFT_B"
| 52> ! wB97X-D3 def2-TZVP TIGHTSCF CHELPG PMODEL
| 53>
| 54> %scf
| 55> MaxIter 1000
| 56> end
| 57>
| 58> * xyz 0 1
| 59>   C                    : -6.504516            -1.500290            -8.431497
| 60>   O                    : -6.338600            -0.425602            -9.371969
| 61>   H                    : -7.225021            -0.135700            -9.610803
| 62>   H                    : -7.421601            -1.334292            -7.898962
| 63>   H                    : -6.661592            -2.478114            -8.949301
| 64>   H                    : -5.704916            -1.581016            -7.692120
| 65>   C                      -3.792512            1.488583             -7.452187
| 66>   O                      -4.759811            2.049113             -8.376682
| 67>   H                      -4.986571            1.271547             -8.877913
| 68>   H                      -4.248719            0.778068             -6.799371
| 69>   H                      -2.845662            1.009647             -7.852309
| 70>   H                      -3.524249            2.327959             -6.747354
| 71> *
| 72>
| 73>                          ****END OF INPUT****
 Total Charge           Charge          ....    0
 Multiplicity           Mult            ....    1
 Number of Electrons    NEL             ....   36
Dispersion correction           -0.001844637
FINAL SINGLE POINT ENERGY      -231.471120103304
Dispersion correction           -0.000245853
FINAL SINGLE POINT ENERGY      -115.733653499635

CARTESIAN COORDINATES (ANGSTROEM)
---------------------------------
  C     -6.504516   -1.500290   -8.431497
  O     -6.338600   -0.425602   -9.371969
  H     -7.225021   -0.135700   -9.610803
  H     -7.421601   -1.334292   -7.898962
  H     -6.661592   -2.478114   -8.949301
  H     -5.704916   -1.581016   -7.692120
  C     -3.792512    1.488583   -7.452187
  O     -4.759811    2.049113   -8.376682
  H     -4.986571    1.271547   -8.877913
  H     -4.248719    0.778068   -6.799371
  H     -2.845662    1.009647   -7.852309
  H     -3.524249    2.327959   -6.747354

 Multiplicity           Mult            ....    1
 Number of Electrons    NEL             ....   18
 Basis Dimension        Dim             ....  172

ORBITAL ENERGIES
----------------

  NO   OCC          E(Eh)            E(eV)
   0   2.0000     -19.237039      -523.4664
   1   2.0000     -10.321115      -280.8518
   2   2.0000      -1.134792       -30.8793
   3   2.0000      -0.793093       -21.5812
   4   2.0000      -0.607068       -16.5192
   5   2.0000      -0.536810       -14.6074
   6   2.0000      -0.515032       -14.0147
   7   2.0000      -0.445014       -12.1095
   8   2.0000      -0.380084       -10.3426
   9   0.0000       0.071964         1.9582
  10   0.0000       0.132682         3.6105
  11   0.0000       0.137855         3.7512
  12   0.0000       0.173281         4.7152
  13   0.0000       0.187171         5.0932

MULLIKEN ATOMIC CHARGES
-----------------------
   0 C :   -0.002476
   1 O :   -0.001527
   2 H :   -0.000329
   3 H :    0.000278
   4 H :   -0.000018
   5 H :   -0.000012
   6 C :   -0.198678
   7 O :   -0.452675
   8 H :    0.308632
   9 H :    0.116712
  10 H :    0.108074
  11 H :    0.122020
Sum of atomic charges:    0.0000000

LOEWDIN ATOMIC CHARGES
----------------------
   0 C :   -0.002566
   1 O :   -0.010013
   2 H :   -0.001037
   3 H :   -0.000040
   4 H :   -0.000049
   5 H :   -0.000952
   6 C :   -0.376671
   7 O :   -0.084293
   8 H :    0.165965
   9 H :    0.089541
  10 H :    0.102882
  11 H :    0.117231

  Mayer bond orders larger than 0.1
B(  6-C ,  7-O ) :   1.0028 B(  6-C ,  9-H ) :   0.9715 B(  6-C , 10-H ) :   0.9644
B(  6-C , 11-H ) :   0.9777 B(  7-O ,  8-H ) :   0.9131

Dispersion correction           -0.000261668
FINAL SINGLE POINT ENERGY      -115.730304805780

DIPOLE MOMENT
-------------
                                X             Y             Z
Electronic contribution:     -1.22864       0.81426      -1.25727
Nuclear contribution   :      1.44866      -1.51099       1.34169
                        -----------------------------------------
Total Dipole Moment    :      0.22002      -0.69673       0.08442
                        -----------------------------------------
Magnitude (a.u.)       :      0.73551
Magnitude (Debye)      :      1.86951

Rotational constants in cm-1:     4.225023     0.798372     0.765905
Rotational constants in MHz : 126663.002337 23934.575846 22961.268348

                             ****ORCA TERMINATED NORMALLY****
TOTAL RUN TIME: 0 days 0 hours 1 minutes 3 seconds 492 msec
