                         Program Version 4.1.2  - RELEASE  -
|  1> #Run DFT-D3 single point of the dimer
|  2> ! wB97X-D3 def2-TZVP TIGHTSCF  CHELPG PAL8
|  3>
|  4> %base "186_charges"
|  5>
|  6> %scf
|  7> MaxIter 1000
|  8> end
|  9> %output
| 10>   Print[ P_Mayer ] 1
| 11>   Print[ P_NatPop ] 1
| 12>   Print[ P_Hirshfeld ] 1
| 13>   Print[ P_Mulliken ] 1
| 14>   Print [ P_Loewdin ] 1
| 15> end
| 16>
| 17> * xyz 0 1
| 18>   C                      11.850537            8.407869             -4.919315
| 19>   O                      12.344051            9.709187             -5.195754
| 20>   H                      11.679485            10.260093            -5.476464
| 21>   H                      12.590602            7.649585             -5.164954
| 22>   H                      11.502005            8.261121             -3.944394
| 23>   H                      11.017990            8.175174             -5.496754
| 24> *
| 25>
| 26>                          ****END OF INPUT****

CARTESIAN COORDINATES (ANGSTROEM)
---------------------------------
  C     11.850537    8.407869   -4.919315
  O     12.344051    9.709187   -5.195754
  H     11.679485   10.260093   -5.476464
  H     12.590602    7.649585   -5.164954
  H     11.502005    8.261121   -3.944394
  H     11.017990    8.175174   -5.496754

 Total Charge           Charge          ....    0
 Multiplicity           Mult            ....    1
 Number of Electrons    NEL             ....   18
 Basis Dimension        Dim             ....   86

ORBITAL ENERGIES
----------------

  NO   OCC          E(Eh)            E(eV)
   0   2.0000     -19.223635      -523.1017
   1   2.0000     -10.301684      -280.3231
   2   2.0000      -1.142620       -31.0923
   3   2.0000      -0.811963       -22.0946
   4   2.0000      -0.624276       -16.9874
   5   2.0000      -0.544397       -14.8138
   6   2.0000      -0.528976       -14.3942
   7   2.0000      -0.433888       -11.8067
   8   2.0000      -0.377253       -10.2656
   9   0.0000       0.122092         3.3223
  10   0.0000       0.157139         4.2760
  11   0.0000       0.203862         5.5474
  12   0.0000       0.216034         5.8786
  13   0.0000       0.236423         6.4334

MULLIKEN ATOMIC CHARGES
-----------------------
   0 C :   -0.157024
   1 O :   -0.473872
   2 H :    0.304799
   3 H :    0.117342
   4 H :    0.103108
   5 H :    0.105648
Sum of atomic charges:   -0.0000000

LOEWDIN ATOMIC CHARGES
----------------------
   0 C :   -0.362518
   1 O :   -0.051485
   2 H :    0.131814
   3 H :    0.108649
   4 H :    0.086672
   5 H :    0.086867

  Mayer bond orders larger than 0.1
B(  0-C ,  1-O ) :   1.0031 B(  0-C ,  3-H ) :   0.9770 B(  0-C ,  4-H ) :   0.9738
B(  0-C ,  5-H ) :   0.9858 B(  1-O ,  2-H ) :   0.9123

Dispersion correction           -0.000239541
FINAL SINGLE POINT ENERGY      -115.728371528948

DIPOLE MOMENT
-------------
                                X             Y             Z
Electronic contribution:      0.73881       1.65870      -0.27618
Nuclear contribution   :     -1.42276      -1.84310       0.18373
                        -----------------------------------------
Total Dipole Moment    :     -0.68395      -0.18440      -0.09245
                        -----------------------------------------
Magnitude (a.u.)       :      0.71438
Magnitude (Debye)      :      1.81581

Rotational constants in cm-1:     4.772625     0.825414     0.798385
Rotational constants in MHz : 143079.690138 24745.284445 23934.972964

                             ****ORCA TERMINATED NORMALLY****
TOTAL RUN TIME: 0 days 0 hours 0 minutes 41 seconds 540 msec
