                         Program Version 4.1.2  - RELEASE  -
|  1> #Run DFT-D3 single point of the dimer
|  2> ! wB97X-D3 def2-TZVP TIGHTSCF CHELPG PMODEL PAL8
|  3>
|  4> %base "10-160_DFT_AB"
|  5>
|  6> %scf
|  7> MaxIter 1000
|  8> end
|  9>
| 10> * xyz 0 1
| 11>   C                      -2.030269            -0.860094            4.701773
| 12>   O                      -1.560259            -1.727254            3.739333
| 13>   H                      -2.090679            -1.511563            2.970343
| 14>   H                      -3.112571            -0.850576            4.889874
| 15>   H                      -1.502015            -1.055243            5.669747
| 16>   H                      -1.782010            0.256352             4.478952
| 17>   C                      2.320978             -2.386679            4.076341
| 18>   O                      1.408009             -1.315770            4.006458
| 19>   H                      0.576154             -1.708606            3.652299
| 20>   H                      2.434304             -2.904981            3.113471
| 21>   H                      3.224008             -1.950418            4.424762
| 22>   H                      2.022531             -3.214262            4.760972
| 23> *
| 24>
| 25> #Run DFT-D3 single point of the molecule with dimer basis set
| 26> $new_job
| 27> %base "10-160_DFT_A"
| 28> ! wB97X-D3 def2-TZVP TIGHTSCF CHELPG PMODEL
| 29>
| 30> %scf
| 31> MaxIter 1000
| 32> end
| 33>
| 34> * xyz 0 1
| 35>   C                      -2.030269            -0.860094            4.701773
| 36>   O                      -1.560259            -1.727254            3.739333
| 37>   H                      -2.090679            -1.511563            2.970343
| 38>   H                      -3.112571            -0.850576            4.889874
| 39>   H                      -1.502015            -1.055243            5.669747
| 40>   H                      -1.782010            0.256352             4.478952
| 41>   C                    : 2.320978             -2.386679            4.076341
| 42>   O                    : 1.408009             -1.315770            4.006458
| 43>   H                    : 0.576154             -1.708606            3.652299
| 44>   H                    : 2.434304             -2.904981            3.113471
| 45>   H                    : 3.224008             -1.950418            4.424762
| 46>   H                    : 2.022531             -3.214262            4.760972
| 47> *
| 48>
| 49> #Run DFT-D3 single point of the particle with dimer basis set
| 50> $new_job
| 51> %base "10-160_DFT_B"
| 52> ! wB97X-D3 def2-TZVP TIGHTSCF CHELPG PMODEL
| 53>
| 54> %scf
| 55> MaxIter 1000
| 56> end
| 57>
| 58> * xyz 0 1
| 59>   C                    : -2.030269            -0.860094            4.701773
| 60>   O                    : -1.560259            -1.727254            3.739333
| 61>   H                    : -2.090679            -1.511563            2.970343
| 62>   H                    : -3.112571            -0.850576            4.889874
| 63>   H                    : -1.502015            -1.055243            5.669747
| 64>   H                    : -1.782010            0.256352             4.478952
| 65>   C                      2.320978             -2.386679            4.076341
| 66>   O                      1.408009             -1.315770            4.006458
| 67>   H                      0.576154             -1.708606            3.652299
| 68>   H                      2.434304             -2.904981            3.113471
| 69>   H                      3.224008             -1.950418            4.424762
| 70>   H                      2.022531             -3.214262            4.760972
| 71> *
| 72>
| 73>                          ****END OF INPUT****
 Total Charge           Charge          ....    0
 Multiplicity           Mult            ....    1
 Number of Electrons    NEL             ....   36
Dispersion correction           -0.001620199
FINAL SINGLE POINT ENERGY      -231.474064683171
Dispersion correction           -0.000243085
FINAL SINGLE POINT ENERGY      -115.732204953018

CARTESIAN COORDINATES (ANGSTROEM)
---------------------------------
  C     -2.030269   -0.860094    4.701773
  O     -1.560259   -1.727254    3.739333
  H     -2.090679   -1.511563    2.970343
  H     -3.112571   -0.850576    4.889874
  H     -1.502015   -1.055243    5.669747
  H     -1.782010    0.256352    4.478952
  C      2.320978   -2.386679    4.076341
  O      1.408009   -1.315770    4.006458
  H      0.576154   -1.708606    3.652299
  H      2.434304   -2.904981    3.113471
  H      3.224008   -1.950418    4.424762
  H      2.022531   -3.214262    4.760972

 Multiplicity           Mult            ....    1
 Number of Electrons    NEL             ....   18
 Basis Dimension        Dim             ....  172

ORBITAL ENERGIES
----------------

  NO   OCC          E(Eh)            E(eV)
   0   2.0000     -19.235605      -523.4274
   1   2.0000     -10.311369      -280.5866
   2   2.0000      -1.136356       -30.9218
   3   2.0000      -0.792883       -21.5754
   4   2.0000      -0.615019       -16.7355
   5   2.0000      -0.534311       -14.5393
   6   2.0000      -0.525810       -14.3080
   7   2.0000      -0.444888       -12.1060
   8   2.0000      -0.371701       -10.1145
   9   0.0000       0.075766         2.0617
  10   0.0000       0.126706         3.4478
  11   0.0000       0.154017         4.1910
  12   0.0000       0.170168         4.6305
  13   0.0000       0.194004         5.2791

MULLIKEN ATOMIC CHARGES
-----------------------
   0 C :   -0.002309
   1 O :   -0.000958
   2 H :   -0.000224
   3 H :   -0.000224
   4 H :   -0.002172
   5 H :   -0.000016
   6 C :   -0.168860
   7 O :   -0.458719
   8 H :    0.313548
   9 H :    0.102192
  10 H :    0.121907
  11 H :    0.095835
Sum of atomic charges:    0.0000000

LOEWDIN ATOMIC CHARGES
----------------------
   0 C :   -0.006149
   1 O :   -0.012331
   2 H :   -0.000827
   3 H :   -0.000104
   4 H :   -0.001547
   5 H :   -0.000329
   6 C :   -0.392777
   7 O :   -0.070774
   8 H :    0.191513
   9 H :    0.094656
  10 H :    0.102731
  11 H :    0.095937

  Mayer bond orders larger than 0.1
B(  6-C ,  7-O ) :   1.0046 B(  6-C ,  9-H ) :   0.9780 B(  6-C , 10-H ) :   0.9771
B(  6-C , 11-H ) :   0.9674 B(  7-O ,  8-H ) :   0.8989

Dispersion correction           -0.000234449
FINAL SINGLE POINT ENERGY      -115.734779317213

DIPOLE MOMENT
-------------
                                X             Y             Z
Electronic contribution:     -1.00670       1.54266      -0.03570
Nuclear contribution   :      0.86222      -2.18851      -0.15962
                        -----------------------------------------
Total Dipole Moment    :     -0.14448      -0.64585      -0.19532
                        -----------------------------------------
Magnitude (a.u.)       :      0.69003
Magnitude (Debye)      :      1.75392

Rotational constants in cm-1:     4.230602     0.843860     0.803938
Rotational constants in MHz : 126830.244130 25298.273209 24101.447630

                             ****ORCA TERMINATED NORMALLY****
TOTAL RUN TIME: 0 days 0 hours 1 minutes 6 seconds 820 msec
