                         Program Version 4.1.2  - RELEASE  -
|  1> #Run DFT-D3 single point of the dimer
|  2> ! wB97X-D3 def2-TZVP TIGHTSCF CHELPG PMODEL PAL8
|  3>
|  4> %base "15-160_DFT_AB"
|  5>
|  6> %scf
|  7> MaxIter 1000
|  8> end
|  9>
| 10> * xyz 0 1
| 11>   C                      -1.880236            5.581239             -11.266443
| 12>   O                      -2.100278            6.365437             -10.100235
| 13>   H                      -2.302356            7.226525             -10.410090
| 14>   H                      -1.020516            5.982707             -11.832357
| 15>   H                      -1.724391            4.593242             -10.942767
| 16>   H                      -2.803622            5.576128             -11.887382
| 17>   C                      -0.006832            3.853463             -7.966640
| 18>   O                      -0.824736            5.055972             -7.772657
| 19>   H                      -1.508435            5.136356             -8.502662
| 20>   H                      -0.752204            2.974908             -7.745483
| 21>   H                      0.258344             3.885445             -8.983792
| 22>   H                      0.743704             3.872815             -7.229837
| 23> *
| 24>
| 25> #Run DFT-D3 single point of the molecule with dimer basis set
| 26> $new_job
| 27> %base "15-160_DFT_A"
| 28> ! wB97X-D3 def2-TZVP TIGHTSCF CHELPG PMODEL
| 29>
| 30> %scf
| 31> MaxIter 1000
| 32> end
| 33>
| 34> * xyz 0 1
| 35>   C                      -1.880236            5.581239             -11.266443
| 36>   O                      -2.100278            6.365437             -10.100235
| 37>   H                      -2.302356            7.226525             -10.410090
| 38>   H                      -1.020516            5.982707             -11.832357
| 39>   H                      -1.724391            4.593242             -10.942767
| 40>   H                      -2.803622            5.576128             -11.887382
| 41>   C                    : -0.006832            3.853463             -7.966640
| 42>   O                    : -0.824736            5.055972             -7.772657
| 43>   H                    : -1.508435            5.136356             -8.502662
| 44>   H                    : -0.752204            2.974908             -7.745483
| 45>   H                    : 0.258344             3.885445             -8.983792
| 46>   H                    : 0.743704             3.872815             -7.229837
| 47> *
| 48>
| 49> #Run DFT-D3 single point of the particle with dimer basis set
| 50> $new_job
| 51> %base "15-160_DFT_B"
| 52> ! wB97X-D3 def2-TZVP TIGHTSCF CHELPG PMODEL
| 53>
| 54> %scf
| 55> MaxIter 1000
| 56> end
| 57>
| 58> * xyz 0 1
| 59>   C                    : -1.880236            5.581239             -11.266443
| 60>   O                    : -2.100278            6.365437             -10.100235
| 61>   H                    : -2.302356            7.226525             -10.410090
| 62>   H                    : -1.020516            5.982707             -11.832357
| 63>   H                    : -1.724391            4.593242             -10.942767
| 64>   H                    : -2.803622            5.576128             -11.887382
| 65>   C                      -0.006832            3.853463             -7.966640
| 66>   O                      -0.824736            5.055972             -7.772657
| 67>   H                      -1.508435            5.136356             -8.502662
| 68>   H                      -0.752204            2.974908             -7.745483
| 69>   H                      0.258344             3.885445             -8.983792
| 70>   H                      0.743704             3.872815             -7.229837
| 71> *
| 72>
| 73>                          ****END OF INPUT****
 Total Charge           Charge          ....    0
 Multiplicity           Mult            ....    1
 Number of Electrons    NEL             ....   36
Dispersion correction           -0.001799604
FINAL SINGLE POINT ENERGY      -231.463299939377
Dispersion correction           -0.000220709
FINAL SINGLE POINT ENERGY      -115.735275869345

CARTESIAN COORDINATES (ANGSTROEM)
---------------------------------
  C     -1.880236    5.581239  -11.266443
  O     -2.100278    6.365437  -10.100235
  H     -2.302356    7.226525  -10.410090
  H     -1.020516    5.982707  -11.832357
  H     -1.724391    4.593242  -10.942767
  H     -2.803622    5.576128  -11.887382
  C     -0.006832    3.853463   -7.966640
  O     -0.824736    5.055972   -7.772657
  H     -1.508435    5.136356   -8.502662
  H     -0.752204    2.974908   -7.745483
  H      0.258344    3.885445   -8.983792
  H      0.743704    3.872815   -7.229837

 Multiplicity           Mult            ....    1
 Number of Electrons    NEL             ....   18
 Basis Dimension        Dim             ....  172

ORBITAL ENERGIES
----------------

  NO   OCC          E(Eh)            E(eV)
   0   2.0000     -19.225244      -523.1455
   1   2.0000     -10.318057      -280.7686
   2   2.0000      -1.109071       -30.1794
   3   2.0000      -0.793380       -21.5890
   4   2.0000      -0.595491       -16.2041
   5   2.0000      -0.540248       -14.7009
   6   2.0000      -0.526461       -14.3257
   7   2.0000      -0.429942       -11.6993
   8   2.0000      -0.365590        -9.9482
   9   0.0000       0.069197         1.8830
  10   0.0000       0.130452         3.5498
  11   0.0000       0.145074         3.9477
  12   0.0000       0.170923         4.6510
  13   0.0000       0.182814         4.9746

MULLIKEN ATOMIC CHARGES
-----------------------
   0 C :   -0.006771
   1 O :   -0.000886
   2 H :   -0.000184
   3 H :    0.000493
   4 H :    0.000355
   5 H :   -0.000110
   6 C :   -0.161389
   7 O :   -0.496127
   8 H :    0.312614
   9 H :    0.102325
  10 H :    0.119024
  11 H :    0.130655
Sum of atomic charges:    0.0000000

LOEWDIN ATOMIC CHARGES
----------------------
   0 C :   -0.006145
   1 O :   -0.014449
   2 H :   -0.000702
   3 H :   -0.000089
   4 H :   -0.001816
   5 H :   -0.000099
   6 C :   -0.332323
   7 O :   -0.135068
   8 H :    0.191318
   9 H :    0.111880
  10 H :    0.089231
  11 H :    0.098263

  Mayer bond orders larger than 0.1
B(  6-C ,  7-O ) :   0.9780 B(  6-C ,  9-H ) :   0.9849 B(  6-C , 10-H ) :   0.9751
B(  6-C , 11-H ) :   0.9706 B(  7-O ,  8-H ) :   0.8981

Dispersion correction           -0.000230990
FINAL SINGLE POINT ENERGY      -115.724044889448

DIPOLE MOMENT
-------------
                                X             Y             Z
Electronic contribution:     -0.55722       1.41644       0.32264
Nuclear contribution   :      0.51730      -1.87083      -0.84991
                        -----------------------------------------
Total Dipole Moment    :     -0.03992      -0.45439      -0.52727
                        -----------------------------------------
Magnitude (a.u.)       :      0.69719
Magnitude (Debye)      :      1.77213

Rotational constants in cm-1:     4.032947     0.798792     0.771470
Rotational constants in MHz : 120904.719873 23947.196509 23128.087732

                             ****ORCA TERMINATED NORMALLY****
TOTAL RUN TIME: 0 days 0 hours 1 minutes 6 seconds 424 msec
