                         Program Version 4.1.2  - RELEASE  -
|  1> #Run DFT-D3 single point of the dimer
|  2> ! wB97X-D3 def2-TZVP TIGHTSCF CHELPG PMODEL PAL8
|  3>
|  4> %base "4-81_DFT_AB"
|  5>
|  6> %scf
|  7> MaxIter 1000
|  8> end
|  9>
| 10> * xyz 0 1
| 11>   C                      10.523130            -2.639775            4.449714
| 12>   O                      9.637086             -1.623541            4.944725
| 13>   H                      10.235835            -1.029594            5.432499
| 14>   H                      10.169014            -3.207924            3.581402
| 15>   H                      11.577218            -2.300368            4.261550
| 16>   H                      10.573071            -3.466301            5.153517
| 17>   C                      10.095339            -6.976327            2.711084
| 18>   O                      9.354405             -7.273151            3.862007
| 19>   H                      8.642711             -6.642811            3.864555
| 20>   H                      10.181727            -5.865649            2.594806
| 21>   H                      10.976786            -7.593750            2.756952
| 22>   H                      9.627140             -7.433392            1.869165
| 23> *
| 24>
| 25> #Run DFT-D3 single point of the molecule with dimer basis set
| 26> $new_job
| 27> %base "4-81_DFT_A"
| 28> ! wB97X-D3 def2-TZVP TIGHTSCF CHELPG PMODEL
| 29>
| 30> %scf
| 31> MaxIter 1000
| 32> end
| 33>
| 34> * xyz 0 1
| 35>   C                      10.523130            -2.639775            4.449714
| 36>   O                      9.637086             -1.623541            4.944725
| 37>   H                      10.235835            -1.029594            5.432499
| 38>   H                      10.169014            -3.207924            3.581402
| 39>   H                      11.577218            -2.300368            4.261550
| 40>   H                      10.573071            -3.466301            5.153517
| 41>   C                    : 10.095339            -6.976327            2.711084
| 42>   O                    : 9.354405             -7.273151            3.862007
| 43>   H                    : 8.642711             -6.642811            3.864555
| 44>   H                    : 10.181727            -5.865649            2.594806
| 45>   H                    : 10.976786            -7.593750            2.756952
| 46>   H                    : 9.627140             -7.433392            1.869165
| 47> *
| 48>
| 49> #Run DFT-D3 single point of the particle with dimer basis set
| 50> $new_job
| 51> %base "4-81_DFT_B"
| 52> ! wB97X-D3 def2-TZVP TIGHTSCF CHELPG PMODEL
| 53>
| 54> %scf
| 55> MaxIter 1000
| 56> end
| 57>
| 58> * xyz 0 1
| 59>   C                    : 10.523130            -2.639775            4.449714
| 60>   O                    : 9.637086             -1.623541            4.944725
| 61>   H                    : 10.235835            -1.029594            5.432499
| 62>   H                    : 10.169014            -3.207924            3.581402
| 63>   H                    : 11.577218            -2.300368            4.261550
| 64>   H                    : 10.573071            -3.466301            5.153517
| 65>   C                      10.095339            -6.976327            2.711084
| 66>   O                      9.354405             -7.273151            3.862007
| 67>   H                      8.642711             -6.642811            3.864555
| 68>   H                      10.181727            -5.865649            2.594806
| 69>   H                      10.976786            -7.593750            2.756952
| 70>   H                      9.627140             -7.433392            1.869165
| 71> *
| 72>
| 73>                          ****END OF INPUT****
 Total Charge           Charge          ....    0
 Multiplicity           Mult            ....    1
 Number of Electrons    NEL             ....   36
Dispersion correction           -0.001051238
FINAL SINGLE POINT ENERGY      -231.460066741374
Dispersion correction           -0.000261416
FINAL SINGLE POINT ENERGY      -115.729912570160

CARTESIAN COORDINATES (ANGSTROEM)
---------------------------------
  C     10.523130   -2.639775    4.449714
  O      9.637086   -1.623541    4.944725
  H     10.235835   -1.029594    5.432499
  H     10.169014   -3.207924    3.581402
  H     11.577218   -2.300368    4.261550
  H     10.573071   -3.466301    5.153517
  C     10.095339   -6.976327    2.711084
  O      9.354405   -7.273151    3.862007
  H      8.642711   -6.642811    3.864555
  H     10.181727   -5.865649    2.594806
  H     10.976786   -7.593750    2.756952
  H      9.627140   -7.433392    1.869165

 Multiplicity           Mult            ....    1
 Number of Electrons    NEL             ....   18
 Basis Dimension        Dim             ....  172

ORBITAL ENERGIES
----------------

  NO   OCC          E(Eh)            E(eV)
   0   2.0000     -19.226269      -523.1734
   1   2.0000     -10.309128      -280.5256
   2   2.0000      -1.143166       -31.1071
   3   2.0000      -0.795747       -21.6534
   4   2.0000      -0.611867       -16.6497
   5   2.0000      -0.552660       -15.0386
   6   2.0000      -0.522773       -14.2254
   7   2.0000      -0.438399       -11.9294
   8   2.0000      -0.368372       -10.0239
   9   0.0000       0.079812         2.1718
  10   0.0000       0.118130         3.2145
  11   0.0000       0.156260         4.2520
  12   0.0000       0.169370         4.6088
  13   0.0000       0.189510         5.1568

MULLIKEN ATOMIC CHARGES
-----------------------
   0 C :   -0.000362
   1 O :    0.000012
   2 H :    0.000000
   3 H :    0.000716
   4 H :    0.000066
   5 H :   -0.000449
   6 C :   -0.157206
   7 O :   -0.467333
   8 H :    0.309705
   9 H :    0.099876
  10 H :    0.114395
  11 H :    0.100578
Sum of atomic charges:   -0.0000000

LOEWDIN ATOMIC CHARGES
----------------------
   0 C :   -0.000499
   1 O :   -0.000005
   2 H :   -0.000001
   3 H :   -0.001092
   4 H :   -0.000005
   5 H :   -0.000238
   6 C :   -0.393678
   7 O :   -0.066451
   8 H :    0.162960
   9 H :    0.102498
  10 H :    0.107417
  11 H :    0.089094

  Mayer bond orders larger than 0.1
B(  6-C ,  7-O ) :   1.0024 B(  6-C ,  9-H ) :   0.9793 B(  6-C , 10-H ) :   0.9767
B(  6-C , 11-H ) :   0.9791 B(  7-O ,  8-H ) :   0.9054

Dispersion correction           -0.000210722
FINAL SINGLE POINT ENERGY      -115.729473715516

DIPOLE MOMENT
-------------
                                X             Y             Z
Electronic contribution:     -0.76880      -0.37819       1.49409
Nuclear contribution   :      0.60173       0.85702      -1.95040
                        -----------------------------------------
Total Dipole Moment    :     -0.16706       0.47883      -0.45631
                        -----------------------------------------
Magnitude (a.u.)       :      0.68220
Magnitude (Debye)      :      1.73402

Rotational constants in cm-1:     4.212867     0.869388     0.821184
Rotational constants in MHz : 126298.587705 26063.603318 24618.476965

                             ****ORCA TERMINATED NORMALLY****
TOTAL RUN TIME: 0 days 0 hours 1 minutes 31 seconds 375 msec
