                         Program Version 4.1.2  - RELEASE  -
|  1> #Run DFT-D3 single point of the dimer
|  2> ! wB97X-D3 def2-TZVP TIGHTSCF CHELPG PMODEL PAL8
|  3>
|  4> %base "19-147_DFT_AB"
|  5>
|  6> %scf
|  7> MaxIter 1000
|  8> end
|  9>
| 10> * xyz 0 1
| 11>   C                      6.381632             -1.870875            3.659416
| 12>   O                      6.865294             -2.428046            2.462627
| 13>   H                      7.177478             -3.339419            2.607261
| 14>   H                      5.847585             -2.577557            4.305369
| 15>   H                      7.275320             -1.535234            4.225810
| 16>   H                      5.685898             -1.053315            3.452593
| 17>   C                      5.268727             -3.063159            7.449425
| 18>   O                      6.666113             -3.106608            7.276511
| 19>   H                      6.971623             -4.013655            7.312842
| 20>   H                      4.745337             -3.110422            6.493935
| 21>   H                      4.932925             -3.893901            8.091872
| 22>   H                      5.027289             -2.137624            7.948754
| 23> *
| 24>
| 25> #Run DFT-D3 single point of the molecule with dimer basis set
| 26> $new_job
| 27> %base "19-147_DFT_A"
| 28> ! wB97X-D3 def2-TZVP TIGHTSCF CHELPG PMODEL
| 29>
| 30> %scf
| 31> MaxIter 1000
| 32> end
| 33>
| 34> * xyz 0 1
| 35>   C                      6.381632             -1.870875            3.659416
| 36>   O                      6.865294             -2.428046            2.462627
| 37>   H                      7.177478             -3.339419            2.607261
| 38>   H                      5.847585             -2.577557            4.305369
| 39>   H                      7.275320             -1.535234            4.225810
| 40>   H                      5.685898             -1.053315            3.452593
| 41>   C                    : 5.268727             -3.063159            7.449425
| 42>   O                    : 6.666113             -3.106608            7.276511
| 43>   H                    : 6.971623             -4.013655            7.312842
| 44>   H                    : 4.745337             -3.110422            6.493935
| 45>   H                    : 4.932925             -3.893901            8.091872
| 46>   H                    : 5.027289             -2.137624            7.948754
| 47> *
| 48>
| 49> #Run DFT-D3 single point of the particle with dimer basis set
| 50> $new_job
| 51> %base "19-147_DFT_B"
| 52> ! wB97X-D3 def2-TZVP TIGHTSCF CHELPG PMODEL
| 53>
| 54> %scf
| 55> MaxIter 1000
| 56> end
| 57>
| 58> * xyz 0 1
| 59>   C                    : 6.381632             -1.870875            3.659416
| 60>   O                    : 6.865294             -2.428046            2.462627
| 61>   H                    : 7.177478             -3.339419            2.607261
| 62>   H                    : 5.847585             -2.577557            4.305369
| 63>   H                    : 7.275320             -1.535234            4.225810
| 64>   H                    : 5.685898             -1.053315            3.452593
| 65>   C                      5.268727             -3.063159            7.449425
| 66>   O                      6.666113             -3.106608            7.276511
| 67>   H                      6.971623             -4.013655            7.312842
| 68>   H                      4.745337             -3.110422            6.493935
| 69>   H                      4.932925             -3.893901            8.091872
| 70>   H                      5.027289             -2.137624            7.948754
| 71> *
| 72>
| 73>                          ****END OF INPUT****
 Total Charge           Charge          ....    0
 Multiplicity           Mult            ....    1
 Number of Electrons    NEL             ....   36
Dispersion correction           -0.001490045
FINAL SINGLE POINT ENERGY      -231.472603502682
Dispersion correction           -0.000241501
FINAL SINGLE POINT ENERGY      -115.734711395368

CARTESIAN COORDINATES (ANGSTROEM)
---------------------------------
  C      6.381632   -1.870875    3.659416
  O      6.865294   -2.428046    2.462627
  H      7.177478   -3.339419    2.607261
  H      5.847585   -2.577557    4.305369
  H      7.275320   -1.535234    4.225810
  H      5.685898   -1.053315    3.452593
  C      5.268727   -3.063159    7.449425
  O      6.666113   -3.106608    7.276511
  H      6.971623   -4.013655    7.312842
  H      4.745337   -3.110422    6.493935
  H      4.932925   -3.893901    8.091872
  H      5.027289   -2.137624    7.948754

 Multiplicity           Mult            ....    1
 Number of Electrons    NEL             ....   18
 Basis Dimension        Dim             ....  172

ORBITAL ENERGIES
----------------

  NO   OCC          E(Eh)            E(eV)
   0   2.0000     -19.227697      -523.2122
   1   2.0000     -10.311169      -280.5812
   2   2.0000      -1.136481       -30.9252
   3   2.0000      -0.796278       -21.6678
   4   2.0000      -0.611700       -16.6452
   5   2.0000      -0.544130       -14.8065
   6   2.0000      -0.528993       -14.3946
   7   2.0000      -0.430839       -11.7237
   8   2.0000      -0.373163       -10.1543
   9   0.0000       0.091535         2.4908
  10   0.0000       0.121936         3.3180
  11   0.0000       0.153585         4.1793
  12   0.0000       0.173565         4.7229
  13   0.0000       0.192509         5.2384

MULLIKEN ATOMIC CHARGES
-----------------------
   0 C :   -0.000159
   1 O :    0.000066
   2 H :   -0.000041
   3 H :    0.000921
   4 H :   -0.001666
   5 H :   -0.000180
   6 C :   -0.160912
   7 O :   -0.477112
   8 H :    0.315224
   9 H :    0.098928
  10 H :    0.104995
  11 H :    0.119936
Sum of atomic charges:   -0.0000000

LOEWDIN ATOMIC CHARGES
----------------------
   0 C :   -0.003237
   1 O :   -0.000024
   2 H :   -0.000013
   3 H :   -0.002700
   4 H :   -0.001197
   5 H :   -0.000033
   6 C :   -0.383645
   7 O :   -0.071989
   8 H :    0.166578
   9 H :    0.094340
  10 H :    0.098081
  11 H :    0.103837

  Mayer bond orders larger than 0.1
B(  6-C ,  7-O ) :   0.9997 B(  6-C ,  9-H ) :   0.9728 B(  6-C , 10-H ) :   0.9843
B(  6-C , 11-H ) :   0.9774 B(  7-O ,  8-H ) :   0.8996

Dispersion correction           -0.000239065
FINAL SINGLE POINT ENERGY      -115.736782833939

DIPOLE MOMENT
-------------
                                X             Y             Z
Electronic contribution:      1.75769       0.08597      -0.24613
Nuclear contribution   :     -2.11439      -0.65903       0.36346
                        -----------------------------------------
Total Dipole Moment    :     -0.35670      -0.57306       0.11733
                        -----------------------------------------
Magnitude (a.u.)       :      0.68513
Magnitude (Debye)      :      1.74145

Rotational constants in cm-1:     4.300155     0.837928     0.809530
Rotational constants in MHz : 128915.398174 25120.446694 24269.093735

                             ****ORCA TERMINATED NORMALLY****
TOTAL RUN TIME: 0 days 0 hours 1 minutes 37 seconds 606 msec
