                         Program Version 4.1.2  - RELEASE  -
|  1> #Run DFT-D3 single point of the dimer
|  2> ! wB97X-D3 def2-TZVP TIGHTSCF CHELPG PMODEL PAL8
|  3>
|  4> %base "8-42_DFT_AB"
|  5>
|  6> %scf
|  7> MaxIter 1000
|  8> end
|  9>
| 10> * xyz 0 1
| 11>   C                      -5.732268            -10.125279           -1.351968
| 12>   O                      -6.836174            -9.413016            -0.708576
| 13>   H                      -7.613012            -9.982425            -0.455737
| 14>   H                      -4.905482            -9.401689            -1.548393
| 15>   H                      -5.473831            -11.022509           -0.746062
| 16>   H                      -6.049753            -10.514197           -2.342592
| 17>   C                      -5.450394            -7.017792            1.970977
| 18>   O                      -6.042229            -6.920867            0.673254
| 19>   H                      -6.564923            -7.763865            0.522771
| 20>   H                      -4.782055            -7.916130            2.135093
| 21>   H                      -4.793322            -6.180792            2.074901
| 22>   H                      -6.219856            -6.898667            2.649508
| 23> *
| 24>
| 25> #Run DFT-D3 single point of the molecule with dimer basis set
| 26> $new_job
| 27> %base "8-42_DFT_A"
| 28> ! wB97X-D3 def2-TZVP TIGHTSCF CHELPG PMODEL
| 29>
| 30> %scf
| 31> MaxIter 1000
| 32> end
| 33>
| 34> * xyz 0 1
| 35>   C                      -5.732268            -10.125279           -1.351968
| 36>   O                      -6.836174            -9.413016            -0.708576
| 37>   H                      -7.613012            -9.982425            -0.455737
| 38>   H                      -4.905482            -9.401689            -1.548393
| 39>   H                      -5.473831            -11.022509           -0.746062
| 40>   H                      -6.049753            -10.514197           -2.342592
| 41>   C                    : -5.450394            -7.017792            1.970977
| 42>   O                    : -6.042229            -6.920867            0.673254
| 43>   H                    : -6.564923            -7.763865            0.522771
| 44>   H                    : -4.782055            -7.916130            2.135093
| 45>   H                    : -4.793322            -6.180792            2.074901
| 46>   H                    : -6.219856            -6.898667            2.649508
| 47> *
| 48>
| 49> #Run DFT-D3 single point of the particle with dimer basis set
| 50> $new_job
| 51> %base "8-42_DFT_B"
| 52> ! wB97X-D3 def2-TZVP TIGHTSCF CHELPG PMODEL
| 53>
| 54> %scf
| 55> MaxIter 1000
| 56> end
| 57>
| 58> * xyz 0 1
| 59>   C                    : -5.732268            -10.125279           -1.351968
| 60>   O                    : -6.836174            -9.413016            -0.708576
| 61>   H                    : -7.613012            -9.982425            -0.455737
| 62>   H                    : -4.905482            -9.401689            -1.548393
| 63>   H                    : -5.473831            -11.022509           -0.746062
| 64>   H                    : -6.049753            -10.514197           -2.342592
| 65>   C                      -5.450394            -7.017792            1.970977
| 66>   O                      -6.042229            -6.920867            0.673254
| 67>   H                      -6.564923            -7.763865            0.522771
| 68>   H                      -4.782055            -7.916130            2.135093
| 69>   H                      -4.793322            -6.180792            2.074901
| 70>   H                      -6.219856            -6.898667            2.649508
| 71> *
| 72>
| 73>                          ****END OF INPUT****
 Total Charge           Charge          ....    0
 Multiplicity           Mult            ....    1
 Number of Electrons    NEL             ....   36
Dispersion correction           -0.001625699
FINAL SINGLE POINT ENERGY      -231.467877724091
Dispersion correction           -0.000279408
FINAL SINGLE POINT ENERGY      -115.730710041285

CARTESIAN COORDINATES (ANGSTROEM)
---------------------------------
  C     -5.732268  -10.125279   -1.351968
  O     -6.836174   -9.413016   -0.708576
  H     -7.613012   -9.982425   -0.455737
  H     -4.905482   -9.401689   -1.548393
  H     -5.473831  -11.022509   -0.746062
  H     -6.049753  -10.514197   -2.342592
  C     -5.450394   -7.017792    1.970977
  O     -6.042229   -6.920867    0.673254
  H     -6.564923   -7.763865    0.522771
  H     -4.782055   -7.916130    2.135093
  H     -4.793322   -6.180792    2.074901
  H     -6.219856   -6.898667    2.649508

 Multiplicity           Mult            ....    1
 Number of Electrons    NEL             ....   18
 Basis Dimension        Dim             ....  172

ORBITAL ENERGIES
----------------

  NO   OCC          E(Eh)            E(eV)
   0   2.0000     -19.233033      -523.3574
   1   2.0000     -10.308075      -280.4970
   2   2.0000      -1.123879       -30.5823
   3   2.0000      -0.796667       -21.6784
   4   2.0000      -0.598349       -16.2819
   5   2.0000      -0.554327       -15.0840
   6   2.0000      -0.520945       -14.1756
   7   2.0000      -0.430825       -11.7233
   8   2.0000      -0.375427       -10.2159
   9   0.0000       0.072124         1.9626
  10   0.0000       0.130683         3.5561
  11   0.0000       0.146649         3.9905
  12   0.0000       0.169542         4.6135
  13   0.0000       0.191258         5.2044

MULLIKEN ATOMIC CHARGES
-----------------------
   0 C :   -0.002843
   1 O :   -0.001642
   2 H :   -0.000219
   3 H :   -0.001686
   4 H :    0.000255
   5 H :   -0.000142
   6 C :   -0.162342
   7 O :   -0.478174
   8 H :    0.313509
   9 H :    0.101300
  10 H :    0.118233
  11 H :    0.113752
Sum of atomic charges:   -0.0000000

LOEWDIN ATOMIC CHARGES
----------------------
   0 C :   -0.003771
   1 O :   -0.015454
   2 H :   -0.001224
   3 H :   -0.001292
   4 H :   -0.000042
   5 H :   -0.000081
   6 C :   -0.371133
   7 O :   -0.097604
   8 H :    0.198182
   9 H :    0.103873
  10 H :    0.104608
  11 H :    0.083940

  Mayer bond orders larger than 0.1
B(  6-C ,  7-O ) :   0.9949 B(  6-C ,  9-H ) :   0.9670 B(  6-C , 10-H ) :   0.9739
B(  6-C , 11-H ) :   0.9867 B(  7-O ,  8-H ) :   0.8978

Dispersion correction           -0.000242445
FINAL SINGLE POINT ENERGY      -115.730090036646

DIPOLE MOMENT
-------------
                                X             Y             Z
Electronic contribution:     -0.72081       0.23166      -1.56184
Nuclear contribution   :      0.64674      -0.74506       2.01087
                        -----------------------------------------
Total Dipole Moment    :     -0.07407      -0.51340       0.44903
                        -----------------------------------------
Magnitude (a.u.)       :      0.68607
Magnitude (Debye)      :      1.74385

Rotational constants in cm-1:     4.281973     0.819095     0.794846
Rotational constants in MHz : 128370.310570 24555.854720 23828.875700

                             ****ORCA TERMINATED NORMALLY****
TOTAL RUN TIME: 0 days 0 hours 0 minutes 47 seconds 310 msec
