                         Program Version 4.1.2  - RELEASE  -
|  1> #Run DFT geometry optimization
|  2> ! wB97X-D3 def2-TZVP TIGHTSCF Grid5 FinalGrid6 Opt CHELPG PAL4
|  3>
|  4> %base "9_geo_opt"
|  5> %geom MaxIter 500
|  6> end
|  7>
|  8> %geom
|  9>   Constraints
| 10>     { A 5 0 4 C }
| 11>   end
| 12> end
| 13>
| 14>
| 15> * xyz 0 1
| 16>   C                    3.011308             -1.180897            0.598492
| 17>   O                    4.394673             -1.128050            0.874308
| 18>   H                    4.772196             -0.379022            0.412493
| 19>   H                    2.806434             -1.318965            -0.469350
| 20>   H                    2.609252             -2.037972            1.137781
| 21>   H                    2.482678             -0.286644            0.948042
| 22> *
| 23>
| 24>                          ****END OF INPUT****
 Total Charge           Charge          ....    0
 Multiplicity           Mult            ....    1
 Number of Electrons    NEL             ....   18
Dispersion correction           -0.000239722
FINAL SINGLE POINT ENERGY      -115.738047385632
Dispersion correction            ... done
                    ***********************HURRAY********************

CARTESIAN COORDINATES (ANGSTROEM)
---------------------------------
  C      3.011474   -1.180946    0.598349
  O      4.394555   -1.128090    0.874324
  H      4.772006   -0.378954    0.412658
  H      2.806234   -1.319031   -0.469291
  H      2.609337   -2.038020    1.137764
  H      2.482935   -0.286510    0.947961

 Multiplicity           Mult            ....    1
 Number of Electrons    NEL             ....   18
 Basis Dimension        Dim             ....   86

ORBITAL ENERGIES
----------------

  NO   OCC          E(Eh)            E(eV)
   0   2.0000     -19.228176      -523.2253
   1   2.0000     -10.315094      -280.6880
   2   2.0000      -1.136911       -30.9369
   3   2.0000      -0.795385       -21.6435
   4   2.0000      -0.611587       -16.6421
   5   2.0000      -0.541901       -14.7459
   6   2.0000      -0.526352       -14.3228
   7   2.0000      -0.433652       -11.8003
   8   2.0000      -0.373706       -10.1691
   9   0.0000       0.116693         3.1754
  10   0.0000       0.156577         4.2607
  11   0.0000       0.202639         5.5141
  12   0.0000       0.205174         5.5831
  13   0.0000       0.226326         6.1586

MULLIKEN ATOMIC CHARGES
-----------------------
   0 C :   -0.151022
   1 O :   -0.477496
   2 H :    0.313097
   3 H :    0.098747
   4 H :    0.118125
   5 H :    0.098550
Sum of atomic charges:   -0.0000000

LOEWDIN ATOMIC CHARGES
----------------------
   0 C :   -0.385535
   1 O :   -0.075809
   2 H :    0.165860
   3 H :    0.093414
   4 H :    0.108672
   5 H :    0.093397

  Mayer bond orders larger than 0.1
B(  0-C ,  1-O ) :   0.9989 B(  0-C ,  3-H ) :   0.9755 B(  0-C ,  4-H ) :   0.9749
B(  0-C ,  5-H ) :   0.9755 B(  1-O ,  2-H ) :   0.9001

Dispersion correction           -0.000239632
FINAL SINGLE POINT ENERGY      -115.738047578099

DIPOLE MOMENT
-------------
                                X             Y             Z
Electronic contribution:      1.75968      -0.02845       0.41669
Nuclear contribution   :     -2.06937       0.47615      -0.81368
                        -----------------------------------------
Total Dipole Moment    :     -0.30969       0.44770      -0.39699
                        -----------------------------------------
Magnitude (a.u.)       :      0.67375
Magnitude (Debye)      :      1.71255

Rotational constants in cm-1:     4.295971     0.833622     0.804982
Rotational constants in MHz : 128789.981060 24991.350749 24132.754364

                             ****ORCA TERMINATED NORMALLY****
TOTAL RUN TIME: 0 days 0 hours 0 minutes 35 seconds 441 msec
