                         Program Version 4.1.2  - RELEASE  -
|  1> #Run DFT-D3 single point of the dimer
|  2> ! wB97X-D3 def2-TZVP TIGHTSCF CHELPG PMODEL PAL8
|  3>
|  4> %base "4-54_DFT_AB"
|  5>
|  6> %scf
|  7> MaxIter 1000
|  8> end
|  9>
| 10> * xyz 0 1
| 11>   C                      4.599833             1.923888             6.602593
| 12>   O                      3.786116             2.729609             7.484004
| 13>   H                      3.607876             3.440949             6.897519
| 14>   H                      5.455821             2.534420             6.223668
| 15>   H                      5.103900             1.124986             7.097621
| 16>   H                      4.070648             1.512387             5.743250
| 17>   C                      6.217340             -1.346205            4.088742
| 18>   O                      6.697135             -1.248581            5.395807
| 19>   H                      7.653262             -1.220963            5.333175
| 20>   H                      6.205620             -0.444576            3.465276
| 21>   H                      6.666536             -2.072092            3.429082
| 22>   H                      5.130316             -1.505163            4.044797
| 23> *
| 24>
| 25> #Run DFT-D3 single point of the molecule with dimer basis set
| 26> $new_job
| 27> %base "4-54_DFT_A"
| 28> ! wB97X-D3 def2-TZVP TIGHTSCF CHELPG PMODEL
| 29>
| 30> %scf
| 31> MaxIter 1000
| 32> end
| 33>
| 34> * xyz 0 1
| 35>   C                      4.599833             1.923888             6.602593
| 36>   O                      3.786116             2.729609             7.484004
| 37>   H                      3.607876             3.440949             6.897519
| 38>   H                      5.455821             2.534420             6.223668
| 39>   H                      5.103900             1.124986             7.097621
| 40>   H                      4.070648             1.512387             5.743250
| 41>   C                    : 6.217340             -1.346205            4.088742
| 42>   O                    : 6.697135             -1.248581            5.395807
| 43>   H                    : 7.653262             -1.220963            5.333175
| 44>   H                    : 6.205620             -0.444576            3.465276
| 45>   H                    : 6.666536             -2.072092            3.429082
| 46>   H                    : 5.130316             -1.505163            4.044797
| 47> *
| 48>
| 49> #Run DFT-D3 single point of the particle with dimer basis set
| 50> $new_job
| 51> %base "4-54_DFT_B"
| 52> ! wB97X-D3 def2-TZVP TIGHTSCF CHELPG PMODEL
| 53>
| 54> %scf
| 55> MaxIter 1000
| 56> end
| 57>
| 58> * xyz 0 1
| 59>   C                    : 4.599833             1.923888             6.602593
| 60>   O                    : 3.786116             2.729609             7.484004
| 61>   H                    : 3.607876             3.440949             6.897519
| 62>   H                    : 5.455821             2.534420             6.223668
| 63>   H                    : 5.103900             1.124986             7.097621
| 64>   H                    : 4.070648             1.512387             5.743250
| 65>   C                      6.217340             -1.346205            4.088742
| 66>   O                      6.697135             -1.248581            5.395807
| 67>   H                      7.653262             -1.220963            5.333175
| 68>   H                      6.205620             -0.444576            3.465276
| 69>   H                      6.666536             -2.072092            3.429082
| 70>   H                      5.130316             -1.505163            4.044797
| 71> *
| 72>
| 73>                          ****END OF INPUT****
 Total Charge           Charge          ....    0
 Multiplicity           Mult            ....    1
 Number of Electrons    NEL             ....   36
Dispersion correction           -0.001245965
FINAL SINGLE POINT ENERGY      -231.462771851670
Dispersion correction           -0.000234917
FINAL SINGLE POINT ENERGY      -115.731265366124

CARTESIAN COORDINATES (ANGSTROEM)
---------------------------------
  C      4.599833    1.923888    6.602593
  O      3.786116    2.729609    7.484004
  H      3.607876    3.440949    6.897519
  H      5.455821    2.534420    6.223668
  H      5.103900    1.124986    7.097621
  H      4.070648    1.512387    5.743250
  C      6.217340   -1.346205    4.088742
  O      6.697135   -1.248581    5.395807
  H      7.653262   -1.220963    5.333175
  H      6.205620   -0.444576    3.465276
  H      6.666536   -2.072092    3.429082
  H      5.130316   -1.505163    4.044797

 Multiplicity           Mult            ....    1
 Number of Electrons    NEL             ....   18
 Basis Dimension        Dim             ....  172

ORBITAL ENERGIES
----------------

  NO   OCC          E(Eh)            E(eV)
   0   2.0000     -19.239118      -523.5230
   1   2.0000     -10.310642      -280.5668
   2   2.0000      -1.146883       -31.2083
   3   2.0000      -0.800920       -21.7941
   4   2.0000      -0.622704       -16.9446
   5   2.0000      -0.542169       -14.7532
   6   2.0000      -0.523560       -14.2468
   7   2.0000      -0.437153       -11.8955
   8   2.0000      -0.374799       -10.1988
   9   0.0000       0.090944         2.4747
  10   0.0000       0.119959         3.2643
  11   0.0000       0.144895         3.9428
  12   0.0000       0.177452         4.8287
  13   0.0000       0.194258         5.2860

MULLIKEN ATOMIC CHARGES
-----------------------
   0 C :    0.000788
   1 O :   -0.000032
   2 H :   -0.000005
   3 H :   -0.000483
   4 H :   -0.002909
   5 H :   -0.000097
   6 C :   -0.183102
   7 O :   -0.455395
   8 H :    0.316038
   9 H :    0.097544
  10 H :    0.109864
  11 H :    0.117789
Sum of atomic charges:    0.0000000

LOEWDIN ATOMIC CHARGES
----------------------
   0 C :   -0.001937
   1 O :   -0.000014
   2 H :   -0.000009
   3 H :   -0.000130
   4 H :   -0.002024
   5 H :   -0.000127
   6 C :   -0.418289
   7 O :   -0.049081
   8 H :    0.173477
   9 H :    0.094144
  10 H :    0.092203
  11 H :    0.111788

  Mayer bond orders larger than 0.1
B(  6-C ,  7-O ) :   1.0092 B(  6-C ,  9-H ) :   0.9714 B(  6-C , 10-H ) :   0.9724
B(  6-C , 11-H ) :   0.9773 B(  7-O ,  8-H ) :   0.8988

Dispersion correction           -0.000264123
FINAL SINGLE POINT ENERGY      -115.730152281064

DIPOLE MOMENT
-------------
                                X             Y             Z
Electronic contribution:      0.66957       0.04019       1.96544
Nuclear contribution   :     -0.25092      -0.06579      -2.50720
                        -----------------------------------------
Total Dipole Moment    :      0.41865      -0.02560      -0.54176
                        -----------------------------------------
Magnitude (a.u.)       :      0.68515
Magnitude (Debye)      :      1.74152

Rotational constants in cm-1:     4.620976     0.831052     0.795773
Rotational constants in MHz : 138533.382127 24914.323028 23856.675116

                             ****ORCA TERMINATED NORMALLY****
TOTAL RUN TIME: 0 days 0 hours 1 minutes 27 seconds 869 msec
