                         Program Version 4.1.2  - RELEASE  -
|  1> #Run DFT-D3 single point of the dimer
|  2> ! wB97X-D3 def2-TZVP TIGHTSCF CHELPG PMODEL PAL8
|  3>
|  4> %base "22-197_DFT_AB"
|  5>
|  6> %scf
|  7> MaxIter 1000
|  8> end
|  9>
| 10> * xyz 0 1
| 11>   C                      -5.553447            -1.981616            -4.515770
| 12>   O                      -6.053582            -1.815600            -5.802434
| 13>   H                      -6.670493            -2.484740            -6.045409
| 14>   H                      -4.929881            -1.186056            -4.211347
| 15>   H                      -6.329280            -2.029363            -3.850187
| 16>   H                      -4.934412            -2.900721            -4.445640
| 17>   C                      -7.995814            -5.051933            -4.817911
| 18>   O                      -7.723852            -4.250924            -5.990596
| 19>   H                      -8.414649            -4.447234            -6.684863
| 20>   H                      -8.909583            -4.828857            -4.251161
| 21>   H                      -8.165103            -6.058626            -5.253838
| 22>   H                      -7.193328            -5.017063            -4.080825
| 23> *
| 24>
| 25> #Run DFT-D3 single point of the molecule with dimer basis set
| 26> $new_job
| 27> %base "22-197_DFT_A"
| 28> ! wB97X-D3 def2-TZVP TIGHTSCF CHELPG PMODEL
| 29>
| 30> %scf
| 31> MaxIter 1000
| 32> end
| 33>
| 34> * xyz 0 1
| 35>   C                      -5.553447            -1.981616            -4.515770
| 36>   O                      -6.053582            -1.815600            -5.802434
| 37>   H                      -6.670493            -2.484740            -6.045409
| 38>   H                      -4.929881            -1.186056            -4.211347
| 39>   H                      -6.329280            -2.029363            -3.850187
| 40>   H                      -4.934412            -2.900721            -4.445640
| 41>   C                    : -7.995814            -5.051933            -4.817911
| 42>   O                    : -7.723852            -4.250924            -5.990596
| 43>   H                    : -8.414649            -4.447234            -6.684863
| 44>   H                    : -8.909583            -4.828857            -4.251161
| 45>   H                    : -8.165103            -6.058626            -5.253838
| 46>   H                    : -7.193328            -5.017063            -4.080825
| 47> *
| 48>
| 49> #Run DFT-D3 single point of the particle with dimer basis set
| 50> $new_job
| 51> %base "22-197_DFT_B"
| 52> ! wB97X-D3 def2-TZVP TIGHTSCF CHELPG PMODEL
| 53>
| 54> %scf
| 55> MaxIter 1000
| 56> end
| 57>
| 58> * xyz 0 1
| 59>   C                    : -5.553447            -1.981616            -4.515770
| 60>   O                    : -6.053582            -1.815600            -5.802434
| 61>   H                    : -6.670493            -2.484740            -6.045409
| 62>   H                    : -4.929881            -1.186056            -4.211347
| 63>   H                    : -6.329280            -2.029363            -3.850187
| 64>   H                    : -4.934412            -2.900721            -4.445640
| 65>   C                      -7.995814            -5.051933            -4.817911
| 66>   O                      -7.723852            -4.250924            -5.990596
| 67>   H                      -8.414649            -4.447234            -6.684863
| 68>   H                      -8.909583            -4.828857            -4.251161
| 69>   H                      -8.165103            -6.058626            -5.253838
| 70>   H                      -7.193328            -5.017063            -4.080825
| 71> *
| 72>
| 73>                          ****END OF INPUT****
 Total Charge           Charge          ....    0
 Multiplicity           Mult            ....    1
 Number of Electrons    NEL             ....   36
Dispersion correction           -0.001972263
FINAL SINGLE POINT ENERGY      -231.468586455359
Dispersion correction           -0.000222817
FINAL SINGLE POINT ENERGY      -115.731093751250

CARTESIAN COORDINATES (ANGSTROEM)
---------------------------------
  C     -5.553447   -1.981616   -4.515770
  O     -6.053582   -1.815600   -5.802434
  H     -6.670493   -2.484740   -6.045409
  H     -4.929881   -1.186056   -4.211347
  H     -6.329280   -2.029363   -3.850187
  H     -4.934412   -2.900721   -4.445640
  C     -7.995814   -5.051933   -4.817911
  O     -7.723852   -4.250924   -5.990596
  H     -8.414649   -4.447234   -6.684863
  H     -8.909583   -4.828857   -4.251161
  H     -8.165103   -6.058626   -5.253838
  H     -7.193328   -5.017063   -4.080825

 Multiplicity           Mult            ....    1
 Number of Electrons    NEL             ....   18
 Basis Dimension        Dim             ....  172

ORBITAL ENERGIES
----------------

  NO   OCC          E(Eh)            E(eV)
   0   2.0000     -19.233453      -523.3689
   1   2.0000     -10.318867      -280.7906
   2   2.0000      -1.119724       -30.4693
   3   2.0000      -0.793196       -21.5839
   4   2.0000      -0.601288       -16.3619
   5   2.0000      -0.542263       -14.7557
   6   2.0000      -0.520810       -14.1720
   7   2.0000      -0.433305       -11.7908
   8   2.0000      -0.370011       -10.0685
   9   0.0000       0.094549         2.5728
  10   0.0000       0.121362         3.3024
  11   0.0000       0.148167         4.0318
  12   0.0000       0.189359         5.1527
  13   0.0000       0.197083         5.3629

MULLIKEN ATOMIC CHARGES
-----------------------
   0 C :    0.003275
   1 O :   -0.000892
   2 H :   -0.010011
   3 H :   -0.000078
   4 H :   -0.001118
   5 H :   -0.000870
   6 C :   -0.166757
   7 O :   -0.477014
   8 H :    0.316384
   9 H :    0.104407
  10 H :    0.104966
  11 H :    0.127709
Sum of atomic charges:    0.0000000

LOEWDIN ATOMIC CHARGES
----------------------
   0 C :   -0.003421
   1 O :   -0.004325
   2 H :   -0.034932
   3 H :   -0.000032
   4 H :   -0.000535
   5 H :   -0.000373
   6 C :   -0.365340
   7 O :   -0.084136
   8 H :    0.188899
   9 H :    0.093970
  10 H :    0.102794
  11 H :    0.107431

  Mayer bond orders larger than 0.1
B(  6-C ,  7-O ) :   0.9861 B(  6-C ,  9-H ) :   0.9636 B(  6-C , 10-H ) :   0.9882
B(  6-C , 11-H ) :   0.9731 B(  7-O ,  8-H ) :   0.8914

Dispersion correction           -0.000256349
FINAL SINGLE POINT ENERGY      -115.729265504964

DIPOLE MOMENT
-------------
                                X             Y             Z
Electronic contribution:      0.53673       1.15004      -1.31172
Nuclear contribution   :     -1.08086      -1.61305       1.36979
                        -----------------------------------------
Total Dipole Moment    :     -0.54412      -0.46301       0.05807
                        -----------------------------------------
Magnitude (a.u.)       :      0.71681
Magnitude (Debye)      :      1.82199

Rotational constants in cm-1:     4.251829     0.800754     0.763866
Rotational constants in MHz : 127466.613458 24005.999586 22900.121401

                             ****ORCA TERMINATED NORMALLY****
TOTAL RUN TIME: 0 days 0 hours 1 minutes 8 seconds 98 msec
