                         Program Version 4.1.2  - RELEASE  -
|  1> #Run DFT-D3 single point of the dimer
|  2> ! wB97X-D3 def2-TZVP TIGHTSCF CHELPG PMODEL PAL8
|  3>
|  4> %base "16-90_DFT_AB"
|  5>
|  6> %scf
|  7> MaxIter 1000
|  8> end
|  9>
| 10> * xyz 0 1
| 11>   C                      7.892758             10.821007            -2.226867
| 12>   O                      8.272880             9.742820             -1.404930
| 13>   H                      8.541633             10.062633            -0.501364
| 14>   H                      7.192416             10.442952            -2.924750
| 15>   H                      7.429778             11.576646            -1.600123
| 16>   H                      8.748379             11.363983            -2.592521
| 17>   C                      7.856281             6.990472             2.461391
| 18>   O                      7.999837             7.573358             1.195961
| 19>   H                      8.965035             7.663970             0.982130
| 20>   H                      8.441369             7.390414             3.360844
| 21>   H                      6.849756             6.852662             2.832672
| 22>   H                      8.225145             5.967884             2.572257
| 23> *
| 24>
| 25> #Run DFT-D3 single point of the molecule with dimer basis set
| 26> $new_job
| 27> %base "16-90_DFT_A"
| 28> ! wB97X-D3 def2-TZVP TIGHTSCF CHELPG PMODEL
| 29>
| 30> %scf
| 31> MaxIter 1000
| 32> end
| 33>
| 34> * xyz 0 1
| 35>   C                      7.892758             10.821007            -2.226867
| 36>   O                      8.272880             9.742820             -1.404930
| 37>   H                      8.541633             10.062633            -0.501364
| 38>   H                      7.192416             10.442952            -2.924750
| 39>   H                      7.429778             11.576646            -1.600123
| 40>   H                      8.748379             11.363983            -2.592521
| 41>   C                    : 7.856281             6.990472             2.461391
| 42>   O                    : 7.999837             7.573358             1.195961
| 43>   H                    : 8.965035             7.663970             0.982130
| 44>   H                    : 8.441369             7.390414             3.360844
| 45>   H                    : 6.849756             6.852662             2.832672
| 46>   H                    : 8.225145             5.967884             2.572257
| 47> *
| 48>
| 49> #Run DFT-D3 single point of the particle with dimer basis set
| 50> $new_job
| 51> %base "16-90_DFT_B"
| 52> ! wB97X-D3 def2-TZVP TIGHTSCF CHELPG PMODEL
| 53>
| 54> %scf
| 55> MaxIter 1000
| 56> end
| 57>
| 58> * xyz 0 1
| 59>   C                    : 7.892758             10.821007            -2.226867
| 60>   O                    : 8.272880             9.742820             -1.404930
| 61>   H                    : 8.541633             10.062633            -0.501364
| 62>   H                    : 7.192416             10.442952            -2.924750
| 63>   H                    : 7.429778             11.576646            -1.600123
| 64>   H                    : 8.748379             11.363983            -2.592521
| 65>   C                      7.856281             6.990472             2.461391
| 66>   O                      7.999837             7.573358             1.195961
| 67>   H                      8.965035             7.663970             0.982130
| 68>   H                      8.441369             7.390414             3.360844
| 69>   H                      6.849756             6.852662             2.832672
| 70>   H                      8.225145             5.967884             2.572257
| 71> *
| 72>
| 73>                          ****END OF INPUT****
 Total Charge           Charge          ....    0
 Multiplicity           Mult            ....    1
 Number of Electrons    NEL             ....   36
Dispersion correction           -0.001118029
FINAL SINGLE POINT ENERGY      -231.455114072879
Dispersion correction           -0.000224679
FINAL SINGLE POINT ENERGY      -115.730562415403

CARTESIAN COORDINATES (ANGSTROEM)
---------------------------------
  C      7.892758   10.821007   -2.226867
  O      8.272880    9.742820   -1.404930
  H      8.541633   10.062633   -0.501364
  H      7.192416   10.442952   -2.924750
  H      7.429778   11.576646   -1.600123
  H      8.748379   11.363983   -2.592521
  C      7.856281    6.990472    2.461391
  O      7.999837    7.573358    1.195961
  H      8.965035    7.663970    0.982130
  H      8.441369    7.390414    3.360844
  H      6.849756    6.852662    2.832672
  H      8.225145    5.967884    2.572257

 Multiplicity           Mult            ....    1
 Number of Electrons    NEL             ....   18
 Basis Dimension        Dim             ....  172

ORBITAL ENERGIES
----------------

  NO   OCC          E(Eh)            E(eV)
   0   2.0000     -19.243945      -523.6544
   1   2.0000     -10.316392      -280.7233
   2   2.0000      -1.138727       -30.9863
   3   2.0000      -0.797738       -21.7076
   4   2.0000      -0.621033       -16.8992
   5   2.0000      -0.534486       -14.5441
   6   2.0000      -0.520794       -14.1715
   7   2.0000      -0.437033       -11.8923
   8   2.0000      -0.370701       -10.0873
   9   0.0000       0.090721         2.4686
  10   0.0000       0.113722         3.0945
  11   0.0000       0.140416         3.8209
  12   0.0000       0.190751         5.1906
  13   0.0000       0.201477         5.4825

MULLIKEN ATOMIC CHARGES
-----------------------
   0 C :    0.000393
   1 O :    0.000078
   2 H :   -0.004118
   3 H :    0.000041
   4 H :   -0.000050
   5 H :   -0.000044
   6 C :   -0.179288
   7 O :   -0.461777
   8 H :    0.325938
   9 H :    0.092341
  10 H :    0.127860
  11 H :    0.098628
Sum of atomic charges:   -0.0000000

LOEWDIN ATOMIC CHARGES
----------------------
   0 C :   -0.000090
   1 O :   -0.001276
   2 H :   -0.003576
   3 H :   -0.000002
   4 H :   -0.000002
   5 H :   -0.000004
   6 C :   -0.422575
   7 O :   -0.068080
   8 H :    0.195261
   9 H :    0.101248
  10 H :    0.106742
  11 H :    0.092354

  Mayer bond orders larger than 0.1
B(  6-C ,  7-O ) :   1.0144 B(  6-C ,  9-H ) :   0.9699 B(  6-C , 10-H ) :   0.9743
B(  6-C , 11-H ) :   0.9722 B(  7-O ,  8-H ) :   0.8852

Dispersion correction           -0.000288983
FINAL SINGLE POINT ENERGY      -115.724696134235

DIPOLE MOMENT
-------------
                                X             Y             Z
Electronic contribution:     -0.05106       0.95884      -1.94186
Nuclear contribution   :      0.59778      -1.15916       2.28171
                        -----------------------------------------
Total Dipole Moment    :      0.54672      -0.20032       0.33985
                        -----------------------------------------
Magnitude (a.u.)       :      0.67419
Magnitude (Debye)      :      1.71365

Rotational constants in cm-1:     4.577269     0.814102     0.775857
Rotational constants in MHz : 137223.077991 24406.172711 23259.604796

                             ****ORCA TERMINATED NORMALLY****
TOTAL RUN TIME: 0 days 0 hours 0 minutes 50 seconds 380 msec
