                         Program Version 4.1.2  - RELEASE  -
|  1> #Run DFT-D3 single point of the dimer
|  2> ! wB97X-D3 def2-TZVP TIGHTSCF CHELPG PMODEL PAL8
|  3>
|  4> %base "1-4_DFT_AB"
|  5>
|  6> %scf
|  7> MaxIter 1000
|  8> end
|  9>
| 10> * xyz 0 1
| 11>   C                      -7.729322            4.427341             8.202547
| 12>   O                      -7.019809            3.335802             7.681465
| 13>   H                      -7.560810            2.547871             7.585349
| 14>   H                      -8.077797            4.298807             9.202275
| 15>   H                      -7.121937            5.329664             8.121222
| 16>   H                      -8.610645            4.817844             7.611276
| 17>   C                      -4.734684            4.541437             10.182098
| 18>   O                      -5.954385            5.085527             10.637797
| 19>   H                      -6.686627            4.900327             10.005028
| 20>   H                      -3.881706            5.305393             10.247581
| 21>   H                      -4.472238            3.743380             10.960164
| 22>   H                      -4.746563            4.110820             9.174717
| 23> *
| 24>
| 25> #Run DFT-D3 single point of the molecule with dimer basis set
| 26> $new_job
| 27> %base "1-4_DFT_A"
| 28> ! wB97X-D3 def2-TZVP TIGHTSCF CHELPG PMODEL
| 29>
| 30> %scf
| 31> MaxIter 1000
| 32> end
| 33>
| 34> * xyz 0 1
| 35>   C                      -7.729322            4.427341             8.202547
| 36>   O                      -7.019809            3.335802             7.681465
| 37>   H                      -7.560810            2.547871             7.585349
| 38>   H                      -8.077797            4.298807             9.202275
| 39>   H                      -7.121937            5.329664             8.121222
| 40>   H                      -8.610645            4.817844             7.611276
| 41>   C                    : -4.734684            4.541437             10.182098
| 42>   O                    : -5.954385            5.085527             10.637797
| 43>   H                    : -6.686627            4.900327             10.005028
| 44>   H                    : -3.881706            5.305393             10.247581
| 45>   H                    : -4.472238            3.743380             10.960164
| 46>   H                    : -4.746563            4.110820             9.174717
| 47> *
| 48>
| 49> #Run DFT-D3 single point of the particle with dimer basis set
| 50> $new_job
| 51> %base "1-4_DFT_B"
| 52> ! wB97X-D3 def2-TZVP TIGHTSCF CHELPG PMODEL
| 53>
| 54> %scf
| 55> MaxIter 1000
| 56> end
| 57>
| 58> * xyz 0 1
| 59>   C                    : -7.729322            4.427341             8.202547
| 60>   O                    : -7.019809            3.335802             7.681465
| 61>   H                    : -7.560810            2.547871             7.585349
| 62>   H                    : -8.077797            4.298807             9.202275
| 63>   H                    : -7.121937            5.329664             8.121222
| 64>   H                    : -8.610645            4.817844             7.611276
| 65>   C                      -4.734684            4.541437             10.182098
| 66>   O                      -5.954385            5.085527             10.637797
| 67>   H                      -6.686627            4.900327             10.005028
| 68>   H                      -3.881706            5.305393             10.247581
| 69>   H                      -4.472238            3.743380             10.960164
| 70>   H                      -4.746563            4.110820             9.174717
| 71> *
| 72>
| 73>                          ****END OF INPUT****
 Total Charge           Charge          ....    0
 Multiplicity           Mult            ....    1
 Number of Electrons    NEL             ....   36
Dispersion correction           -0.002303870
FINAL SINGLE POINT ENERGY      -231.462879987458
Dispersion correction           -0.000274682
FINAL SINGLE POINT ENERGY      -115.732240178839

CARTESIAN COORDINATES (ANGSTROEM)
---------------------------------
  C     -7.729322    4.427341    8.202547
  O     -7.019809    3.335802    7.681465
  H     -7.560810    2.547871    7.585349
  H     -8.077797    4.298807    9.202275
  H     -7.121937    5.329664    8.121222
  H     -8.610645    4.817844    7.611276
  C     -4.734684    4.541437   10.182098
  O     -5.954385    5.085527   10.637797
  H     -6.686627    4.900327   10.005028
  H     -3.881706    5.305393   10.247581
  H     -4.472238    3.743380   10.960164
  H     -4.746563    4.110820    9.174717

 Multiplicity           Mult            ....    1
 Number of Electrons    NEL             ....   18
 Basis Dimension        Dim             ....  172

ORBITAL ENERGIES
----------------

  NO   OCC          E(Eh)            E(eV)
   0   2.0000     -19.233863      -523.3800
   1   2.0000     -10.323772      -280.9241
   2   2.0000      -1.132184       -30.8083
   3   2.0000      -0.786719       -21.4077
   4   2.0000      -0.612175       -16.6581
   5   2.0000      -0.528681       -14.3861
   6   2.0000      -0.524731       -14.2786
   7   2.0000      -0.434932       -11.8351
   8   2.0000      -0.366896        -9.9837
   9   0.0000       0.067231         1.8295
  10   0.0000       0.139605         3.7988
  11   0.0000       0.144921         3.9435
  12   0.0000       0.167845         4.5673
  13   0.0000       0.182194         4.9577

MULLIKEN ATOMIC CHARGES
-----------------------
   0 C :   -0.015733
   1 O :    0.001702
   2 H :    0.000081
   3 H :   -0.000751
   4 H :   -0.002911
   5 H :   -0.000798
   6 C :   -0.169340
   7 O :   -0.466624
   8 H :    0.324448
   9 H :    0.108653
  10 H :    0.107944
  11 H :    0.113329
Sum of atomic charges:    0.0000000

LOEWDIN ATOMIC CHARGES
----------------------
   0 C :   -0.027959
   1 O :   -0.001763
   2 H :   -0.000087
   3 H :   -0.009682
   4 H :   -0.006494
   5 H :   -0.000256
   6 C :   -0.398431
   7 O :   -0.069127
   8 H :    0.199595
   9 H :    0.109118
  10 H :    0.108520
  11 H :    0.096567

  Mayer bond orders larger than 0.1
B(  6-C ,  7-O ) :   0.9860 B(  6-C ,  9-H ) :   0.9716 B(  6-C , 10-H ) :   0.9819
B(  6-C , 11-H ) :   0.9684 B(  7-O ,  8-H ) :   0.8987

Dispersion correction           -0.000270923
FINAL SINGLE POINT ENERGY      -115.730763513263

DIPOLE MOMENT
-------------
                                X             Y             Z
Electronic contribution:     -1.58727       0.77059       0.53443
Nuclear contribution   :      1.58102      -1.10222      -1.12993
                        -----------------------------------------
Total Dipole Moment    :     -0.00625      -0.33162      -0.59550
                        -----------------------------------------
Magnitude (a.u.)       :      0.68164
Magnitude (Debye)      :      1.73258

Rotational constants in cm-1:     4.086078     0.822770     0.791436
Rotational constants in MHz : 122497.532377 24666.018105 23726.666654

                             ****ORCA TERMINATED NORMALLY****
TOTAL RUN TIME: 0 days 0 hours 6 minutes 18 seconds 828 msec
