                         Program Version 4.1.2  - RELEASE  -
|  1> #Run DFT-D3 single point of the dimer
|  2> ! wB97X-D3 def2-TZVP TIGHTSCF CHELPG PMODEL PAL8
|  3>
|  4> %base "13-132_DFT_AB"
|  5>
|  6> %scf
|  7> MaxIter 1000
|  8> end
|  9>
| 10> * xyz 0 1
| 11>   C                      -0.928917            -10.983566           -2.640763
| 12>   O                      -0.381111            -10.784562           -1.350864
| 13>   H                      -0.633451            -9.900913            -1.077589
| 14>   H                      -2.030045            -11.105637           -2.622247
| 15>   H                      -0.622373            -10.169376           -3.405240
| 16>   H                      -0.643391            -12.010807           -2.977018
| 17>   C                      1.910665             -7.406347            -1.538785
| 18>   O                      2.346387             -8.085483            -0.372654
| 19>   H                      1.583944             -8.353732            0.133408
| 20>   H                      1.126425             -6.632266            -1.441613
| 21>   H                      2.766215             -6.993816            -2.162697
| 22>   H                      1.572978             -8.172519            -2.191011
| 23> *
| 24>
| 25> #Run DFT-D3 single point of the molecule with dimer basis set
| 26> $new_job
| 27> %base "13-132_DFT_A"
| 28> ! wB97X-D3 def2-TZVP TIGHTSCF CHELPG PMODEL
| 29>
| 30> %scf
| 31> MaxIter 1000
| 32> end
| 33>
| 34> * xyz 0 1
| 35>   C                      -0.928917            -10.983566           -2.640763
| 36>   O                      -0.381111            -10.784562           -1.350864
| 37>   H                      -0.633451            -9.900913            -1.077589
| 38>   H                      -2.030045            -11.105637           -2.622247
| 39>   H                      -0.622373            -10.169376           -3.405240
| 40>   H                      -0.643391            -12.010807           -2.977018
| 41>   C                    : 1.910665             -7.406347            -1.538785
| 42>   O                    : 2.346387             -8.085483            -0.372654
| 43>   H                    : 1.583944             -8.353732            0.133408
| 44>   H                    : 1.126425             -6.632266            -1.441613
| 45>   H                    : 2.766215             -6.993816            -2.162697
| 46>   H                    : 1.572978             -8.172519            -2.191011
| 47> *
| 48>
| 49> #Run DFT-D3 single point of the particle with dimer basis set
| 50> $new_job
| 51> %base "13-132_DFT_B"
| 52> ! wB97X-D3 def2-TZVP TIGHTSCF CHELPG PMODEL
| 53>
| 54> %scf
| 55> MaxIter 1000
| 56> end
| 57>
| 58> * xyz 0 1
| 59>   C                    : -0.928917            -10.983566           -2.640763
| 60>   O                    : -0.381111            -10.784562           -1.350864
| 61>   H                    : -0.633451            -9.900913            -1.077589
| 62>   H                    : -2.030045            -11.105637           -2.622247
| 63>   H                    : -0.622373            -10.169376           -3.405240
| 64>   H                    : -0.643391            -12.010807           -2.977018
| 65>   C                      1.910665             -7.406347            -1.538785
| 66>   O                      2.346387             -8.085483            -0.372654
| 67>   H                      1.583944             -8.353732            0.133408
| 68>   H                      1.126425             -6.632266            -1.441613
| 69>   H                      2.766215             -6.993816            -2.162697
| 70>   H                      1.572978             -8.172519            -2.191011
| 71> *
| 72>
| 73>                          ****END OF INPUT****
 Total Charge           Charge          ....    0
 Multiplicity           Mult            ....    1
 Number of Electrons    NEL             ....   36
Dispersion correction           -0.001500288
FINAL SINGLE POINT ENERGY      -231.462110940148
Dispersion correction           -0.000261866
FINAL SINGLE POINT ENERGY      -115.732764760246

CARTESIAN COORDINATES (ANGSTROEM)
---------------------------------
  C     -0.928917  -10.983566   -2.640763
  O     -0.381111  -10.784562   -1.350864
  H     -0.633451   -9.900913   -1.077589
  H     -2.030045  -11.105637   -2.622247
  H     -0.622373  -10.169376   -3.405240
  H     -0.643391  -12.010807   -2.977018
  C      1.910665   -7.406347   -1.538785
  O      2.346387   -8.085483   -0.372654
  H      1.583944   -8.353732    0.133408
  H      1.126425   -6.632266   -1.441613
  H      2.766215   -6.993816   -2.162697
  H      1.572978   -8.172519   -2.191011

 Multiplicity           Mult            ....    1
 Number of Electrons    NEL             ....   18
 Basis Dimension        Dim             ....  172

ORBITAL ENERGIES
----------------

  NO   OCC          E(Eh)            E(eV)
   0   2.0000     -19.230566      -523.2903
   1   2.0000     -10.315280      -280.6930
   2   2.0000      -1.136458       -30.9246
   3   2.0000      -0.796556       -21.6754
   4   2.0000      -0.611147       -16.6301
   5   2.0000      -0.543267       -14.7830
   6   2.0000      -0.524054       -14.2602
   7   2.0000      -0.431379       -11.7384
   8   2.0000      -0.372092       -10.1251
   9   0.0000       0.078199         2.1279
  10   0.0000       0.119085         3.2405
  11   0.0000       0.147817         4.0223
  12   0.0000       0.180808         4.9200
  13   0.0000       0.182405         4.9635

MULLIKEN ATOMIC CHARGES
-----------------------
   0 C :   -0.000039
   1 O :   -0.000053
   2 H :   -0.000451
   3 H :   -0.000013
   4 H :   -0.000323
   5 H :   -0.000061
   6 C :   -0.177509
   7 O :   -0.476112
   8 H :    0.315775
   9 H :    0.106086
  10 H :    0.117944
  11 H :    0.114755
Sum of atomic charges:    0.0000000

LOEWDIN ATOMIC CHARGES
----------------------
   0 C :   -0.000679
   1 O :   -0.000406
   2 H :   -0.001097
   3 H :   -0.000003
   4 H :   -0.000628
   5 H :   -0.000008
   6 C :   -0.391344
   7 O :   -0.076171
   8 H :    0.164561
   9 H :    0.096926
  10 H :    0.118286
  11 H :    0.090563

  Mayer bond orders larger than 0.1
B(  6-C ,  7-O ) :   0.9951 B(  6-C ,  9-H ) :   0.9680 B(  6-C , 10-H ) :   0.9707
B(  6-C , 11-H ) :   0.9858 B(  7-O ,  8-H ) :   0.8989

Dispersion correction           -0.000253578
FINAL SINGLE POINT ENERGY      -115.729480403028

DIPOLE MOMENT
-------------
                                X             Y             Z
Electronic contribution:      0.63579      -0.75846       1.60892
Nuclear contribution   :     -1.29936       0.83561      -1.77216
                        -----------------------------------------
Total Dipole Moment    :     -0.66357       0.07715      -0.16324
                        -----------------------------------------
Magnitude (a.u.)       :      0.68769
Magnitude (Debye)      :      1.74797

Rotational constants in cm-1:     4.389261     0.821017     0.786505
Rotational constants in MHz : 131586.720383 24613.476430 23578.815664

                             ****ORCA TERMINATED NORMALLY****
TOTAL RUN TIME: 0 days 0 hours 1 minutes 10 seconds 408 msec
