                         Program Version 4.1.2  - RELEASE  -
|  1> #Run DFT-D3 single point of the dimer
|  2> ! wB97X-D3 def2-TZVP TIGHTSCF  CHELPG PAL8
|  3>
|  4> %base "112_charges"
|  5>
|  6> %scf
|  7> MaxIter 1000
|  8> end
|  9> %output
| 10>   Print[ P_Mayer ] 1
| 11>   Print[ P_NatPop ] 1
| 12>   Print[ P_Hirshfeld ] 1
| 13>   Print[ P_Mulliken ] 1
| 14>   Print [ P_Loewdin ] 1
| 15> end
| 16>
| 17> * xyz 0 1
| 18>   C                      -1.870790            10.884009            9.658639
| 19>   O                      -2.269664            9.749495             8.927611
| 20>   H                      -1.630379            9.557993             8.304267
| 21>   H                      -0.798991            11.033659            9.602940
| 22>   H                      -2.433205            11.757506            9.301564
| 23>   H                      -2.159828            10.762534            10.707488
| 24> *
| 25>
| 26>                          ****END OF INPUT****

CARTESIAN COORDINATES (ANGSTROEM)
---------------------------------
  C     -1.870790   10.884009    9.658639
  O     -2.269664    9.749495    8.927611
  H     -1.630379    9.557993    8.304267
  H     -0.798991   11.033659    9.602940
  H     -2.433205   11.757506    9.301564
  H     -2.159828   10.762534   10.707488

 Total Charge           Charge          ....    0
 Multiplicity           Mult            ....    1
 Number of Electrons    NEL             ....   18
 Basis Dimension        Dim             ....   86

ORBITAL ENERGIES
----------------

  NO   OCC          E(Eh)            E(eV)
   0   2.0000     -19.222802      -523.0790
   1   2.0000     -10.311977      -280.6032
   2   2.0000      -1.146265       -31.1915
   3   2.0000      -0.799710       -21.7612
   4   2.0000      -0.617362       -16.7993
   5   2.0000      -0.541698       -14.7403
   6   2.0000      -0.531565       -14.4646
   7   2.0000      -0.435312       -11.8455
   8   2.0000      -0.371754       -10.1159
   9   0.0000       0.119471         3.2510
  10   0.0000       0.159402         4.3375
  11   0.0000       0.198494         5.4013
  12   0.0000       0.208227         5.6661
  13   0.0000       0.234174         6.3722

MULLIKEN ATOMIC CHARGES
-----------------------
   0 C :   -0.160541
   1 O :   -0.465216
   2 H :    0.304837
   3 H :    0.105714
   4 H :    0.101164
   5 H :    0.114042
Sum of atomic charges:   -0.0000000

LOEWDIN ATOMIC CHARGES
----------------------
   0 C :   -0.382182
   1 O :   -0.051609
   2 H :    0.136418
   3 H :    0.094614
   4 H :    0.097913
   5 H :    0.104846

  Mayer bond orders larger than 0.1
B(  0-C ,  1-O ) :   1.0049 B(  0-C ,  3-H ) :   0.9830 B(  0-C ,  4-H ) :   0.9774
B(  0-C ,  5-H ) :   0.9759 B(  1-O ,  2-H ) :   0.9129

Dispersion correction           -0.000234948
FINAL SINGLE POINT ENERGY      -115.733691817547

DIPOLE MOMENT
-------------
                                X             Y             Z
Electronic contribution:     -0.52590      -1.45141      -0.89019
Nuclear contribution   :      1.12211       1.76961       0.77561
                        -----------------------------------------
Total Dipole Moment    :      0.59621       0.31819      -0.11458
                        -----------------------------------------
Magnitude (a.u.)       :      0.68545
Magnitude (Debye)      :      1.74228

Rotational constants in cm-1:     4.362746     0.842900     0.813223
Rotational constants in MHz : 130791.842247 25269.506023 24379.807304

                             ****ORCA TERMINATED NORMALLY****
TOTAL RUN TIME: 0 days 0 hours 0 minutes 42 seconds 682 msec
