                         Program Version 4.1.2  - RELEASE  -
|  1> #Run DFT-D3 single point of the dimer
|  2> ! wB97X-D3 def2-TZVP TIGHTSCF CHELPG PMODEL PAL8
|  3>
|  4> %base "14-28_DFT_AB"
|  5>
|  6> %scf
|  7> MaxIter 1000
|  8> end
|  9>
| 10> * xyz 0 1
| 11>   C                      -0.612086            2.931693             -2.166030
| 12>   O                      -1.917891            3.394526             -2.096503
| 13>   H                      -2.283379            3.362468             -1.200627
| 14>   H                      -0.456620            1.838111             -2.061463
| 15>   H                      -0.083063            3.269453             -3.069938
| 16>   H                      -0.006313            3.238354             -1.311755
| 17>   C                      -4.976401            0.858105             -1.008490
| 18>   O                      -6.288005            0.928399             -0.574650
| 19>   H                      -6.440537            0.206410             0.015058
| 20>   H                      -4.691179            -0.199261            -1.167981
| 21>   H                      -4.900961            1.486722             -1.938916
| 22>   H                      -4.357864            1.263733             -0.209785
| 23> *
| 24>
| 25> #Run DFT-D3 single point of the molecule with dimer basis set
| 26> $new_job
| 27> %base "14-28_DFT_A"
| 28> ! wB97X-D3 def2-TZVP TIGHTSCF CHELPG PMODEL
| 29>
| 30> %scf
| 31> MaxIter 1000
| 32> end
| 33>
| 34> * xyz 0 1
| 35>   C                      -0.612086            2.931693             -2.166030
| 36>   O                      -1.917891            3.394526             -2.096503
| 37>   H                      -2.283379            3.362468             -1.200627
| 38>   H                      -0.456620            1.838111             -2.061463
| 39>   H                      -0.083063            3.269453             -3.069938
| 40>   H                      -0.006313            3.238354             -1.311755
| 41>   C                    : -4.976401            0.858105             -1.008490
| 42>   O                    : -6.288005            0.928399             -0.574650
| 43>   H                    : -6.440537            0.206410             0.015058
| 44>   H                    : -4.691179            -0.199261            -1.167981
| 45>   H                    : -4.900961            1.486722             -1.938916
| 46>   H                    : -4.357864            1.263733             -0.209785
| 47> *
| 48>
| 49> #Run DFT-D3 single point of the particle with dimer basis set
| 50> $new_job
| 51> %base "14-28_DFT_B"
| 52> ! wB97X-D3 def2-TZVP TIGHTSCF CHELPG PMODEL
| 53>
| 54> %scf
| 55> MaxIter 1000
| 56> end
| 57>
| 58> * xyz 0 1
| 59>   C                    : -0.612086            2.931693             -2.166030
| 60>   O                    : -1.917891            3.394526             -2.096503
| 61>   H                    : -2.283379            3.362468             -1.200627
| 62>   H                    : -0.456620            1.838111             -2.061463
| 63>   H                    : -0.083063            3.269453             -3.069938
| 64>   H                    : -0.006313            3.238354             -1.311755
| 65>   C                      -4.976401            0.858105             -1.008490
| 66>   O                      -6.288005            0.928399             -0.574650
| 67>   H                      -6.440537            0.206410             0.015058
| 68>   H                      -4.691179            -0.199261            -1.167981
| 69>   H                      -4.900961            1.486722             -1.938916
| 70>   H                      -4.357864            1.263733             -0.209785
| 71> *
| 72>
| 73>                          ****END OF INPUT****
 Total Charge           Charge          ....    0
 Multiplicity           Mult            ....    1
 Number of Electrons    NEL             ....   36
Dispersion correction           -0.001072580
FINAL SINGLE POINT ENERGY      -231.466383603008
Dispersion correction           -0.000258881
FINAL SINGLE POINT ENERGY      -115.732371204807

CARTESIAN COORDINATES (ANGSTROEM)
---------------------------------
  C     -0.612086    2.931693   -2.166030
  O     -1.917891    3.394526   -2.096503
  H     -2.283379    3.362468   -1.200627
  H     -0.456620    1.838111   -2.061463
  H     -0.083063    3.269453   -3.069938
  H     -0.006313    3.238354   -1.311755
  C     -4.976401    0.858105   -1.008490
  O     -6.288005    0.928399   -0.574650
  H     -6.440537    0.206410    0.015058
  H     -4.691179   -0.199261   -1.167981
  H     -4.900961    1.486722   -1.938916
  H     -4.357864    1.263733   -0.209785

 Multiplicity           Mult            ....    1
 Number of Electrons    NEL             ....   18
 Basis Dimension        Dim             ....  172

ORBITAL ENERGIES
----------------

  NO   OCC          E(Eh)            E(eV)
   0   2.0000     -19.223965      -523.1107
   1   2.0000     -10.314128      -280.6617
   2   2.0000      -1.148058       -31.2402
   3   2.0000      -0.790209       -21.5027
   4   2.0000      -0.616978       -16.7888
   5   2.0000      -0.546256       -14.8644
   6   2.0000      -0.528360       -14.3774
   7   2.0000      -0.432138       -11.7591
   8   2.0000      -0.367862       -10.0100
   9   0.0000       0.084170         2.2904
  10   0.0000       0.114597         3.1184
  11   0.0000       0.146051         3.9742
  12   0.0000       0.182327         4.9614
  13   0.0000       0.186031         5.0622

MULLIKEN ATOMIC CHARGES
-----------------------
   0 C :    0.000010
   1 O :    0.000066
   2 H :   -0.000580
   3 H :    0.000002
   4 H :    0.000002
   5 H :    0.000000
   6 C :   -0.150124
   7 O :   -0.469327
   8 H :    0.311460
   9 H :    0.094343
  10 H :    0.114810
  11 H :    0.099336
Sum of atomic charges:    0.0000000

LOEWDIN ATOMIC CHARGES
----------------------
   0 C :   -0.000077
   1 O :   -0.000185
   2 H :   -0.001018
   3 H :   -0.000010
   4 H :   -0.000001
   5 H :   -0.000001
   6 C :   -0.406715
   7 O :   -0.054317
   8 H :    0.159789
   9 H :    0.095134
  10 H :    0.114967
  11 H :    0.092435

  Mayer bond orders larger than 0.1
B(  6-C ,  7-O ) :   0.9940 B(  6-C ,  9-H ) :   0.9817 B(  6-C , 10-H ) :   0.9712
B(  6-C , 11-H ) :   0.9780 B(  7-O ,  8-H ) :   0.9028

Dispersion correction           -0.000210078
FINAL SINGLE POINT ENERGY      -115.733282654400

DIPOLE MOMENT
-------------
                                X             Y             Z
Electronic contribution:     -1.66125       0.18780       0.42779
Nuclear contribution   :      2.05046      -0.68431      -0.20944
                        -----------------------------------------
Total Dipole Moment    :      0.38921      -0.49651       0.21835
                        -----------------------------------------
Magnitude (a.u.)       :      0.66760
Magnitude (Debye)      :      1.69690

Rotational constants in cm-1:     4.117903     0.877034     0.837034
Rotational constants in MHz : 123451.622218 26292.829219 25093.637205

                             ****ORCA TERMINATED NORMALLY****
TOTAL RUN TIME: 0 days 0 hours 1 minutes 9 seconds 847 msec
