                         Program Version 4.1.2  - RELEASE  -
|  1> #Run DFT-D3 single point of the dimer
|  2> ! wB97X-D3 def2-TZVP TIGHTSCF CHELPG PMODEL PAL8
|  3>
|  4> %base "16-96_DFT_AB"
|  5>
|  6> %scf
|  7> MaxIter 1000
|  8> end
|  9>
| 10> * xyz 0 1
| 11>   C                      5.434958             2.875792             -9.733265
| 12>   O                      6.885886             2.877586             -9.509406
| 13>   H                      7.289825             2.013666             -9.590393
| 14>   H                      5.137906             3.799958             -10.234967
| 15>   H                      5.202899             1.890700             -10.161595
| 16>   H                      4.848795             2.960356             -8.769228
| 17>   C                      10.033848            5.656883             -8.659174
| 18>   O                      9.555849             4.525149             -9.380176
| 19>   H                      8.724086             4.300630             -9.029383
| 20>   H                      10.140352            5.486081             -7.609466
| 21>   H                      10.975797            6.002317             -9.039949
| 22>   H                      9.317366             6.460049             -8.691279
| 23> *
| 24>
| 25> #Run DFT-D3 single point of the molecule with dimer basis set
| 26> $new_job
| 27> %base "16-96_DFT_A"
| 28> ! wB97X-D3 def2-TZVP TIGHTSCF CHELPG PMODEL
| 29>
| 30> %scf
| 31> MaxIter 1000
| 32> end
| 33>
| 34> * xyz 0 1
| 35>   C                      5.434958             2.875792             -9.733265
| 36>   O                      6.885886             2.877586             -9.509406
| 37>   H                      7.289825             2.013666             -9.590393
| 38>   H                      5.137906             3.799958             -10.234967
| 39>   H                      5.202899             1.890700             -10.161595
| 40>   H                      4.848795             2.960356             -8.769228
| 41>   C                    : 10.033848            5.656883             -8.659174
| 42>   O                    : 9.555849             4.525149             -9.380176
| 43>   H                    : 8.724086             4.300630             -9.029383
| 44>   H                    : 10.140352            5.486081             -7.609466
| 45>   H                    : 10.975797            6.002317             -9.039949
| 46>   H                    : 9.317366             6.460049             -8.691279
| 47> *
| 48>
| 49> #Run DFT-D3 single point of the particle with dimer basis set
| 50> $new_job
| 51> %base "16-96_DFT_B"
| 52> ! wB97X-D3 def2-TZVP TIGHTSCF CHELPG PMODEL
| 53>
| 54> %scf
| 55> MaxIter 1000
| 56> end
| 57>
| 58> * xyz 0 1
| 59>   C                    : 5.434958             2.875792             -9.733265
| 60>   O                    : 6.885886             2.877586             -9.509406
| 61>   H                    : 7.289825             2.013666             -9.590393
| 62>   H                    : 5.137906             3.799958             -10.234967
| 63>   H                    : 5.202899             1.890700             -10.161595
| 64>   H                    : 4.848795             2.960356             -8.769228
| 65>   C                      10.033848            5.656883             -8.659174
| 66>   O                      9.555849             4.525149             -9.380176
| 67>   H                      8.724086             4.300630             -9.029383
| 68>   H                      10.140352            5.486081             -7.609466
| 69>   H                      10.975797            6.002317             -9.039949
| 70>   H                      9.317366             6.460049             -8.691279
| 71> *
| 72>
| 73>                          ****END OF INPUT****
 Total Charge           Charge          ....    0
 Multiplicity           Mult            ....    1
 Number of Electrons    NEL             ....   36
Dispersion correction           -0.001248512
FINAL SINGLE POINT ENERGY      -231.467168963582
Dispersion correction           -0.000273540
FINAL SINGLE POINT ENERGY      -115.727505436734

CARTESIAN COORDINATES (ANGSTROEM)
---------------------------------
  C      5.434958    2.875792   -9.733265
  O      6.885886    2.877586   -9.509406
  H      7.289825    2.013666   -9.590393
  H      5.137906    3.799958  -10.234967
  H      5.202899    1.890700  -10.161595
  H      4.848795    2.960356   -8.769228
  C     10.033848    5.656883   -8.659174
  O      9.555849    4.525149   -9.380176
  H      8.724086    4.300630   -9.029383
  H     10.140352    5.486081   -7.609466
  H     10.975797    6.002317   -9.039949
  H      9.317366    6.460049   -8.691279

 Multiplicity           Mult            ....    1
 Number of Electrons    NEL             ....   18
 Basis Dimension        Dim             ....  172

ORBITAL ENERGIES
----------------

  NO   OCC          E(Eh)            E(eV)
   0   2.0000     -19.227769      -523.2142
   1   2.0000     -10.308133      -280.4986
   2   2.0000      -1.139231       -31.0001
   3   2.0000      -0.804502       -21.8916
   4   2.0000      -0.617216       -16.7953
   5   2.0000      -0.537201       -14.6180
   6   2.0000      -0.531844       -14.4722
   7   2.0000      -0.441711       -12.0196
   8   2.0000      -0.373660       -10.1678
   9   0.0000       0.078467         2.1352
  10   0.0000       0.124825         3.3967
  11   0.0000       0.149362         4.0643
  12   0.0000       0.175281         4.7696
  13   0.0000       0.200827         5.4648

MULLIKEN ATOMIC CHARGES
-----------------------
   0 C :   -0.000162
   1 O :   -0.000109
   2 H :   -0.000329
   3 H :   -0.000028
   4 H :    0.000000
   5 H :    0.000012
   6 C :   -0.159568
   7 O :   -0.470260
   8 H :    0.306711
   9 H :    0.104137
  10 H :    0.118463
  11 H :    0.101134
Sum of atomic charges:    0.0000000

LOEWDIN ATOMIC CHARGES
----------------------
   0 C :   -0.000499
   1 O :   -0.005656
   2 H :   -0.000820
   3 H :   -0.000041
   4 H :   -0.000017
   5 H :   -0.000009
   6 C :   -0.365610
   7 O :   -0.064626
   8 H :    0.150070
   9 H :    0.090172
  10 H :    0.105061
  11 H :    0.091973

  Mayer bond orders larger than 0.1
B(  6-C ,  7-O ) :   0.9931 B(  6-C ,  9-H ) :   0.9767 B(  6-C , 10-H ) :   0.9749
B(  6-C , 11-H ) :   0.9828 B(  7-O ,  8-H ) :   0.9086

Dispersion correction           -0.000231394
FINAL SINGLE POINT ENERGY      -115.734187568960

DIPOLE MOMENT
-------------
                                X             Y             Z
Electronic contribution:     -0.42607      -1.47395      -1.03462
Nuclear contribution   :      0.09067       1.80203       1.56419
                        -----------------------------------------
Total Dipole Moment    :     -0.33540       0.32808       0.52957
                        -----------------------------------------
Magnitude (a.u.)       :      0.70751
Magnitude (Debye)      :      1.79836

Rotational constants in cm-1:     4.538348     0.826196     0.791247
Rotational constants in MHz : 136056.241285 24768.731248 23720.984907

                             ****ORCA TERMINATED NORMALLY****
TOTAL RUN TIME: 0 days 0 hours 0 minutes 53 seconds 130 msec
