                         Program Version 4.1.2  - RELEASE  -
|  1> #Run DFT-D3 single point of the dimer
|  2> ! wB97X-D3 def2-TZVP TIGHTSCF CHELPG PMODEL PAL8
|  3>
|  4> %base "11-137_DFT_AB"
|  5>
|  6> %scf
|  7> MaxIter 1000
|  8> end
|  9>
| 10> * xyz 0 1
| 11>   C                      -3.148170            5.526536             0.250592
| 12>   O                      -4.122243            6.461500             0.653780
| 13>   H                      -4.972779            6.142392             0.328687
| 14>   H                      -2.964292            5.774731             -0.804132
| 15>   H                      -2.171916            5.713092             0.804986
| 16>   H                      -3.408570            4.525718             0.398298
| 17>   C                      -7.362782            6.392833             -0.031246
| 18>   O                      -6.746706            5.358698             0.595294
| 19>   H                      -7.008309            4.498787             0.148125
| 20>   H                      -7.361403            7.336571             0.467680
| 21>   H                      -7.100800            6.503015             -1.023257
| 22>   H                      -8.394243            6.060086             -0.106421
| 23> *
| 24>
| 25> #Run DFT-D3 single point of the molecule with dimer basis set
| 26> $new_job
| 27> %base "11-137_DFT_A"
| 28> ! wB97X-D3 def2-TZVP TIGHTSCF CHELPG PMODEL
| 29>
| 30> %scf
| 31> MaxIter 1000
| 32> end
| 33>
| 34> * xyz 0 1
| 35>   C                      -3.148170            5.526536             0.250592
| 36>   O                      -4.122243            6.461500             0.653780
| 37>   H                      -4.972779            6.142392             0.328687
| 38>   H                      -2.964292            5.774731             -0.804132
| 39>   H                      -2.171916            5.713092             0.804986
| 40>   H                      -3.408570            4.525718             0.398298
| 41>   C                    : -7.362782            6.392833             -0.031246
| 42>   O                    : -6.746706            5.358698             0.595294
| 43>   H                    : -7.008309            4.498787             0.148125
| 44>   H                    : -7.361403            7.336571             0.467680
| 45>   H                    : -7.100800            6.503015             -1.023257
| 46>   H                    : -8.394243            6.060086             -0.106421
| 47> *
| 48>
| 49> #Run DFT-D3 single point of the particle with dimer basis set
| 50> $new_job
| 51> %base "11-137_DFT_B"
| 52> ! wB97X-D3 def2-TZVP TIGHTSCF CHELPG PMODEL
| 53>
| 54> %scf
| 55> MaxIter 1000
| 56> end
| 57>
| 58> * xyz 0 1
| 59>   C                    : -3.148170            5.526536             0.250592
| 60>   O                    : -4.122243            6.461500             0.653780
| 61>   H                    : -4.972779            6.142392             0.328687
| 62>   H                    : -2.964292            5.774731             -0.804132
| 63>   H                    : -2.171916            5.713092             0.804986
| 64>   H                    : -3.408570            4.525718             0.398298
| 65>   C                      -7.362782            6.392833             -0.031246
| 66>   O                      -6.746706            5.358698             0.595294
| 67>   H                      -7.008309            4.498787             0.148125
| 68>   H                      -7.361403            7.336571             0.467680
| 69>   H                      -7.100800            6.503015             -1.023257
| 70>   H                      -8.394243            6.060086             -0.106421
| 71> *
| 72>
| 73>                          ****END OF INPUT****
 Total Charge           Charge          ....    0
 Multiplicity           Mult            ....    1
 Number of Electrons    NEL             ....   36
Dispersion correction           -0.001745107
FINAL SINGLE POINT ENERGY      -231.459357696403
Dispersion correction           -0.000224914
FINAL SINGLE POINT ENERGY      -115.732064316560

CARTESIAN COORDINATES (ANGSTROEM)
---------------------------------
  C     -3.148170    5.526536    0.250592
  O     -4.122243    6.461500    0.653780
  H     -4.972779    6.142392    0.328687
  H     -2.964292    5.774731   -0.804132
  H     -2.171916    5.713092    0.804986
  H     -3.408570    4.525718    0.398298
  C     -7.362782    6.392833   -0.031246
  O     -6.746706    5.358698    0.595294
  H     -7.008309    4.498787    0.148125
  H     -7.361403    7.336571    0.467680
  H     -7.100800    6.503015   -1.023257
  H     -8.394243    6.060086   -0.106421

 Multiplicity           Mult            ....    1
 Number of Electrons    NEL             ....   18
 Basis Dimension        Dim             ....  172

ORBITAL ENERGIES
----------------

  NO   OCC          E(Eh)            E(eV)
   0   2.0000     -19.230632      -523.2921
   1   2.0000     -10.296975      -280.1949
   2   2.0000      -1.146720       -31.2039
   3   2.0000      -0.796564       -21.6756
   4   2.0000      -0.621440       -16.9102
   5   2.0000      -0.548326       -14.9207
   6   2.0000      -0.545049       -14.8315
   7   2.0000      -0.427428       -11.6309
   8   2.0000      -0.363324        -9.8865
   9   0.0000       0.093465         2.5433
  10   0.0000       0.119453         3.2505
  11   0.0000       0.153604         4.1798
  12   0.0000       0.196173         5.3381
  13   0.0000       0.199413         5.4263

MULLIKEN ATOMIC CHARGES
-----------------------
   0 C :   -0.003521
   1 O :   -0.000141
   2 H :    0.005308
   3 H :    0.000122
   4 H :   -0.000270
   5 H :   -0.001575
   6 C :   -0.163900
   7 O :   -0.480633
   8 H :    0.323201
   9 H :    0.122639
  10 H :    0.104170
  11 H :    0.094602
Sum of atomic charges:   -0.0000000

LOEWDIN ATOMIC CHARGES
----------------------
   0 C :   -0.003810
   1 O :   -0.005805
   2 H :   -0.036413
   3 H :   -0.000051
   4 H :   -0.000072
   5 H :   -0.001004
   6 C :   -0.417590
   7 O :   -0.022831
   8 H :    0.202153
   9 H :    0.105979
  10 H :    0.081180
  11 H :    0.098264

  Mayer bond orders larger than 0.1
B(  6-C ,  7-O ) :   0.9826 B(  6-C ,  9-H ) :   0.9716 B(  6-C , 10-H ) :   0.9779
B(  6-C , 11-H ) :   0.9947 B(  7-O ,  8-H ) :   0.8845

Dispersion correction           -0.000195874
FINAL SINGLE POINT ENERGY      -115.722756593446

DIPOLE MOMENT
-------------
                                X             Y             Z
Electronic contribution:      1.07170      -1.11461       0.96594
Nuclear contribution   :     -1.48886       0.96873      -1.48811
                        -----------------------------------------
Total Dipole Moment    :     -0.41716      -0.14589      -0.52217
                        -----------------------------------------
Magnitude (a.u.)       :      0.68408
Magnitude (Debye)      :      1.73879

Rotational constants in cm-1:     4.509726     0.896987     0.851418
Rotational constants in MHz : 135198.197172 26891.000693 25524.857635

                             ****ORCA TERMINATED NORMALLY****
TOTAL RUN TIME: 0 days 0 hours 1 minutes 15 seconds 809 msec
