                         Program Version 4.1.2  - RELEASE  -
|  1> #Run DFT-D3 single point of the dimer
|  2> ! wB97X-D3 def2-TZVP TIGHTSCF CHELPG PMODEL PAL8
|  3>
|  4> %base "11-136_DFT_AB"
|  5>
|  6> %scf
|  7> MaxIter 1000
|  8> end
|  9>
| 10> * xyz 0 1
| 11>   C                      -3.148170            5.526536             0.250592
| 12>   O                      -4.122243            6.461500             0.653780
| 13>   H                      -4.972779            6.142392             0.328687
| 14>   H                      -2.964292            5.774731             -0.804132
| 15>   H                      -2.171916            5.713092             0.804986
| 16>   H                      -3.408570            4.525718             0.398298
| 17>   C                      -2.237468            6.649375             3.490973
| 18>   O                      -2.712863            7.911409             3.373980
| 19>   H                      -3.701736            7.908384             3.468759
| 20>   H                      -2.968029            5.901578             3.340408
| 21>   H                      -1.342888            6.517933             2.801996
| 22>   H                      -1.780866            6.463601             4.453862
| 23> *
| 24>
| 25> #Run DFT-D3 single point of the molecule with dimer basis set
| 26> $new_job
| 27> %base "11-136_DFT_A"
| 28> ! wB97X-D3 def2-TZVP TIGHTSCF CHELPG PMODEL
| 29>
| 30> %scf
| 31> MaxIter 1000
| 32> end
| 33>
| 34> * xyz 0 1
| 35>   C                      -3.148170            5.526536             0.250592
| 36>   O                      -4.122243            6.461500             0.653780
| 37>   H                      -4.972779            6.142392             0.328687
| 38>   H                      -2.964292            5.774731             -0.804132
| 39>   H                      -2.171916            5.713092             0.804986
| 40>   H                      -3.408570            4.525718             0.398298
| 41>   C                    : -2.237468            6.649375             3.490973
| 42>   O                    : -2.712863            7.911409             3.373980
| 43>   H                    : -3.701736            7.908384             3.468759
| 44>   H                    : -2.968029            5.901578             3.340408
| 45>   H                    : -1.342888            6.517933             2.801996
| 46>   H                    : -1.780866            6.463601             4.453862
| 47> *
| 48>
| 49> #Run DFT-D3 single point of the particle with dimer basis set
| 50> $new_job
| 51> %base "11-136_DFT_B"
| 52> ! wB97X-D3 def2-TZVP TIGHTSCF CHELPG PMODEL
| 53>
| 54> %scf
| 55> MaxIter 1000
| 56> end
| 57>
| 58> * xyz 0 1
| 59>   C                    : -3.148170            5.526536             0.250592
| 60>   O                    : -4.122243            6.461500             0.653780
| 61>   H                    : -4.972779            6.142392             0.328687
| 62>   H                    : -2.964292            5.774731             -0.804132
| 63>   H                    : -2.171916            5.713092             0.804986
| 64>   H                    : -3.408570            4.525718             0.398298
| 65>   C                      -2.237468            6.649375             3.490973
| 66>   O                      -2.712863            7.911409             3.373980
| 67>   H                      -3.701736            7.908384             3.468759
| 68>   H                      -2.968029            5.901578             3.340408
| 69>   H                      -1.342888            6.517933             2.801996
| 70>   H                      -1.780866            6.463601             4.453862
| 71> *
| 72>
| 73>                          ****END OF INPUT****
 Total Charge           Charge          ....    0
 Multiplicity           Mult            ....    1
 Number of Electrons    NEL             ....   36
Dispersion correction           -0.002092158
FINAL SINGLE POINT ENERGY      -231.462652459467
Dispersion correction           -0.000224914
FINAL SINGLE POINT ENERGY      -115.731879774443

CARTESIAN COORDINATES (ANGSTROEM)
---------------------------------
  C     -3.148170    5.526536    0.250592
  O     -4.122243    6.461500    0.653780
  H     -4.972779    6.142392    0.328687
  H     -2.964292    5.774731   -0.804132
  H     -2.171916    5.713092    0.804986
  H     -3.408570    4.525718    0.398298
  C     -2.237468    6.649375    3.490973
  O     -2.712863    7.911409    3.373980
  H     -3.701736    7.908384    3.468759
  H     -2.968029    5.901578    3.340408
  H     -1.342888    6.517933    2.801996
  H     -1.780866    6.463601    4.453862

 Multiplicity           Mult            ....    1
 Number of Electrons    NEL             ....   18
 Basis Dimension        Dim             ....  172

ORBITAL ENERGIES
----------------

  NO   OCC          E(Eh)            E(eV)
   0   2.0000     -19.233159      -523.3609
   1   2.0000     -10.305807      -280.4353
   2   2.0000      -1.150252       -31.3000
   3   2.0000      -0.791701       -21.5433
   4   2.0000      -0.625204       -17.0127
   5   2.0000      -0.545912       -14.8550
   6   2.0000      -0.530857       -14.4454
   7   2.0000      -0.432092       -11.7578
   8   2.0000      -0.364366        -9.9149
   9   0.0000       0.082150         2.2354
  10   0.0000       0.117702         3.2028
  11   0.0000       0.151817         4.1312
  12   0.0000       0.175448         4.7742
  13   0.0000       0.187220         5.0945

MULLIKEN ATOMIC CHARGES
-----------------------
   0 C :    0.001573
   1 O :   -0.000979
   2 H :   -0.000036
   3 H :   -0.000376
   4 H :   -0.003057
   5 H :   -0.000152
   6 C :   -0.152673
   7 O :   -0.464928
   8 H :    0.320424
   9 H :    0.103292
  10 H :    0.100023
  11 H :    0.096891
Sum of atomic charges:    0.0000000

LOEWDIN ATOMIC CHARGES
----------------------
   0 C :   -0.007142
   1 O :   -0.002512
   2 H :   -0.000119
   3 H :   -0.000046
   4 H :   -0.007667
   5 H :   -0.000249
   6 C :   -0.430733
   7 O :   -0.041508
   8 H :    0.194689
   9 H :    0.088880
  10 H :    0.115379
  11 H :    0.091025

  Mayer bond orders larger than 0.1
B(  6-C ,  7-O ) :   1.0156 B(  6-C ,  9-H ) :   0.9862 B(  6-C , 10-H ) :   0.9786
B(  6-C , 11-H ) :   0.9735 B(  7-O ,  8-H ) :   0.8910

Dispersion correction           -0.000231256
FINAL SINGLE POINT ENERGY      -115.729388463926

DIPOLE MOMENT
-------------
                                X             Y             Z
Electronic contribution:     -0.68244       1.73892      -0.18650
Nuclear contribution   :      0.19576      -2.19641       0.30125
                        -----------------------------------------
Total Dipole Moment    :     -0.48668      -0.45750       0.11475
                        -----------------------------------------
Magnitude (a.u.)       :      0.67774
Magnitude (Debye)      :      1.72267

Rotational constants in cm-1:     4.341231     0.890827     0.844660
Rotational constants in MHz : 130146.816603 26706.313496 25322.260534

                             ****ORCA TERMINATED NORMALLY****
TOTAL RUN TIME: 0 days 0 hours 1 minutes 16 seconds 203 msec
