                         Program Version 4.1.2  - RELEASE  -
|  1> #Run DFT-D3 single point of the dimer
|  2> ! wB97X-D3 def2-TZVP TIGHTSCF CHELPG PMODEL PAL8
|  3>
|  4> %base "10-80_DFT_AB"
|  5>
|  6> %scf
|  7> MaxIter 1000
|  8> end
|  9>
| 10> * xyz 0 1
| 11>   C                      -8.524424            -8.551857            -7.483804
| 12>   O                      -9.010956            -9.552221            -6.626090
| 13>   H                      -9.770529            -9.256232            -6.136644
| 14>   H                      -7.877334            -8.876806            -8.253957
| 15>   H                      -9.389126            -8.178034            -7.915574
| 16>   H                      -7.935626            -7.708410            -7.024587
| 17>   C                      -6.001623            -10.763600           -3.388093
| 18>   O                      -6.213301            -11.976752           -4.136615
| 19>   H                      -5.351659            -12.148614           -4.576961
| 20>   H                      -5.329420            -10.042396           -3.867675
| 21>   H                      -6.981789            -10.301653           -3.190660
| 22>   H                      -5.641405            -10.985704           -2.353954
| 23> *
| 24>
| 25> #Run DFT-D3 single point of the molecule with dimer basis set
| 26> $new_job
| 27> %base "10-80_DFT_A"
| 28> ! wB97X-D3 def2-TZVP TIGHTSCF CHELPG PMODEL
| 29>
| 30> %scf
| 31> MaxIter 1000
| 32> end
| 33>
| 34> * xyz 0 1
| 35>   C                      -8.524424            -8.551857            -7.483804
| 36>   O                      -9.010956            -9.552221            -6.626090
| 37>   H                      -9.770529            -9.256232            -6.136644
| 38>   H                      -7.877334            -8.876806            -8.253957
| 39>   H                      -9.389126            -8.178034            -7.915574
| 40>   H                      -7.935626            -7.708410            -7.024587
| 41>   C                    : -6.001623            -10.763600           -3.388093
| 42>   O                    : -6.213301            -11.976752           -4.136615
| 43>   H                    : -5.351659            -12.148614           -4.576961
| 44>   H                    : -5.329420            -10.042396           -3.867675
| 45>   H                    : -6.981789            -10.301653           -3.190660
| 46>   H                    : -5.641405            -10.985704           -2.353954
| 47> *
| 48>
| 49> #Run DFT-D3 single point of the particle with dimer basis set
| 50> $new_job
| 51> %base "10-80_DFT_B"
| 52> ! wB97X-D3 def2-TZVP TIGHTSCF CHELPG PMODEL
| 53>
| 54> %scf
| 55> MaxIter 1000
| 56> end
| 57>
| 58> * xyz 0 1
| 59>   C                    : -8.524424            -8.551857            -7.483804
| 60>   O                    : -9.010956            -9.552221            -6.626090
| 61>   H                    : -9.770529            -9.256232            -6.136644
| 62>   H                    : -7.877334            -8.876806            -8.253957
| 63>   H                    : -9.389126            -8.178034            -7.915574
| 64>   H                    : -7.935626            -7.708410            -7.024587
| 65>   C                      -6.001623            -10.763600           -3.388093
| 66>   O                      -6.213301            -11.976752           -4.136615
| 67>   H                      -5.351659            -12.148614           -4.576961
| 68>   H                      -5.329420            -10.042396           -3.867675
| 69>   H                      -6.981789            -10.301653           -3.190660
| 70>   H                      -5.641405            -10.985704           -2.353954
| 71> *
| 72>
| 73>                          ****END OF INPUT****
 Total Charge           Charge          ....    0
 Multiplicity           Mult            ....    1
 Number of Electrons    NEL             ....   36
Dispersion correction           -0.000830860
FINAL SINGLE POINT ENERGY      -231.460280811851
Dispersion correction           -0.000241462
FINAL SINGLE POINT ENERGY      -115.726993008032

CARTESIAN COORDINATES (ANGSTROEM)
---------------------------------
  C     -8.524424   -8.551857   -7.483804
  O     -9.010956   -9.552221   -6.626090
  H     -9.770529   -9.256232   -6.136644
  H     -7.877334   -8.876806   -8.253957
  H     -9.389126   -8.178034   -7.915574
  H     -7.935626   -7.708410   -7.024587
  C     -6.001623  -10.763600   -3.388093
  O     -6.213301  -11.976752   -4.136615
  H     -5.351659  -12.148614   -4.576961
  H     -5.329420  -10.042396   -3.867675
  H     -6.981789  -10.301653   -3.190660
  H     -5.641405  -10.985704   -2.353954

 Multiplicity           Mult            ....    1
 Number of Electrons    NEL             ....   18
 Basis Dimension        Dim             ....  172

ORBITAL ENERGIES
----------------

  NO   OCC          E(Eh)            E(eV)
   0   2.0000     -19.234728      -523.4035
   1   2.0000     -10.318641      -280.7845
   2   2.0000      -1.126478       -30.6530
   3   2.0000      -0.791549       -21.5392
   4   2.0000      -0.604036       -16.4367
   5   2.0000      -0.534023       -14.5315
   6   2.0000      -0.520831       -14.1725
   7   2.0000      -0.441941       -12.0258
   8   2.0000      -0.372720       -10.1422
   9   0.0000       0.087760         2.3881
  10   0.0000       0.113108         3.0778
  11   0.0000       0.149055         4.0560
  12   0.0000       0.163548         4.4504
  13   0.0000       0.195121         5.3095

MULLIKEN ATOMIC CHARGES
-----------------------
   0 C :   -0.000034
   1 O :   -0.000057
   2 H :   -0.000021
   3 H :    0.000004
   4 H :   -0.000001
   5 H :   -0.000038
   6 C :   -0.178098
   7 O :   -0.469854
   8 H :    0.314735
   9 H :    0.111958
  10 H :    0.119496
  11 H :    0.101908
Sum of atomic charges:   -0.0000000

LOEWDIN ATOMIC CHARGES
----------------------
   0 C :   -0.000045
   1 O :   -0.000083
   2 H :   -0.000018
   3 H :   -0.000002
   4 H :   -0.000002
   5 H :   -0.000008
   6 C :   -0.378799
   7 O :   -0.105382
   8 H :    0.181181
   9 H :    0.096099
  10 H :    0.108231
  11 H :    0.098827

  Mayer bond orders larger than 0.1
B(  6-C ,  7-O ) :   1.0045 B(  6-C ,  9-H ) :   0.9734 B(  6-C , 10-H ) :   0.9769
B(  6-C , 11-H ) :   0.9733 B(  7-O ,  8-H ) :   0.8996

Dispersion correction           -0.000261483
FINAL SINGLE POINT ENERGY      -115.734027964221

DIPOLE MOMENT
-------------
                                X             Y             Z
Electronic contribution:     -0.36286      -1.53135      -1.01778
Nuclear contribution   :      0.97065       1.91669       1.03893
                        -----------------------------------------
Total Dipole Moment    :      0.60779       0.38533       0.02115
                        -----------------------------------------
Magnitude (a.u.)       :      0.71996
Magnitude (Debye)      :      1.82998

Rotational constants in cm-1:     4.183740     0.805984     0.772127
Rotational constants in MHz : 125425.377328 24162.784241 23147.798442

                             ****ORCA TERMINATED NORMALLY****
TOTAL RUN TIME: 0 days 0 hours 1 minutes 2 seconds 633 msec
