                         Program Version 4.1.2  - RELEASE  -
|  1> #Run DFT-D3 single point of the dimer
|  2> ! wB97X-D3 def2-TZVP TIGHTSCF CHELPG PMODEL PAL8
|  3>
|  4> %base "10-84_DFT_AB"
|  5>
|  6> %scf
|  7> MaxIter 1000
|  8> end
|  9>
| 10> * xyz 0 1
| 11>   C                      0.325050             3.682876             4.670970
| 12>   O                      -0.846528            4.166738             4.035653
| 13>   H                      -1.548622            4.059657             4.702336
| 14>   H                      0.917244             3.089913             4.008710
| 15>   H                      1.078371             4.362851             4.962118
| 16>   H                      0.047949             3.124406             5.575140
| 17>   C                      -2.030269            -0.860094            4.701773
| 18>   O                      -1.560259            -1.727254            3.739333
| 19>   H                      -2.090679            -1.511563            2.970343
| 20>   H                      -3.112571            -0.850576            4.889874
| 21>   H                      -1.502015            -1.055243            5.669747
| 22>   H                      -1.782010            0.256352             4.478952
| 23> *
| 24>
| 25> #Run DFT-D3 single point of the molecule with dimer basis set
| 26> $new_job
| 27> %base "10-84_DFT_A"
| 28> ! wB97X-D3 def2-TZVP TIGHTSCF CHELPG PMODEL
| 29>
| 30> %scf
| 31> MaxIter 1000
| 32> end
| 33>
| 34> * xyz 0 1
| 35>   C                      0.325050             3.682876             4.670970
| 36>   O                      -0.846528            4.166738             4.035653
| 37>   H                      -1.548622            4.059657             4.702336
| 38>   H                      0.917244             3.089913             4.008710
| 39>   H                      1.078371             4.362851             4.962118
| 40>   H                      0.047949             3.124406             5.575140
| 41>   C                    : -2.030269            -0.860094            4.701773
| 42>   O                    : -1.560259            -1.727254            3.739333
| 43>   H                    : -2.090679            -1.511563            2.970343
| 44>   H                    : -3.112571            -0.850576            4.889874
| 45>   H                    : -1.502015            -1.055243            5.669747
| 46>   H                    : -1.782010            0.256352             4.478952
| 47> *
| 48>
| 49> #Run DFT-D3 single point of the particle with dimer basis set
| 50> $new_job
| 51> %base "10-84_DFT_B"
| 52> ! wB97X-D3 def2-TZVP TIGHTSCF CHELPG PMODEL
| 53>
| 54> %scf
| 55> MaxIter 1000
| 56> end
| 57>
| 58> * xyz 0 1
| 59>   C                    : 0.325050             3.682876             4.670970
| 60>   O                    : -0.846528            4.166738             4.035653
| 61>   H                    : -1.548622            4.059657             4.702336
| 62>   H                    : 0.917244             3.089913             4.008710
| 63>   H                    : 1.078371             4.362851             4.962118
| 64>   H                    : 0.047949             3.124406             5.575140
| 65>   C                      -2.030269            -0.860094            4.701773
| 66>   O                      -1.560259            -1.727254            3.739333
| 67>   H                      -2.090679            -1.511563            2.970343
| 68>   H                      -3.112571            -0.850576            4.889874
| 69>   H                      -1.502015            -1.055243            5.669747
| 70>   H                      -1.782010            0.256352             4.478952
| 71> *
| 72>
| 73>                          ****END OF INPUT****
 Total Charge           Charge          ....    0
 Multiplicity           Mult            ....    1
 Number of Electrons    NEL             ....   36
Dispersion correction           -0.000856678
FINAL SINGLE POINT ENERGY      -231.460925296562
Dispersion correction           -0.000247701
FINAL SINGLE POINT ENERGY      -115.728544690499

CARTESIAN COORDINATES (ANGSTROEM)
---------------------------------
  C      0.325050    3.682876    4.670970
  O     -0.846528    4.166738    4.035653
  H     -1.548622    4.059657    4.702336
  H      0.917244    3.089913    4.008710
  H      1.078371    4.362851    4.962118
  H      0.047949    3.124406    5.575140
  C     -2.030269   -0.860094    4.701773
  O     -1.560259   -1.727254    3.739333
  H     -2.090679   -1.511563    2.970343
  H     -3.112571   -0.850576    4.889874
  H     -1.502015   -1.055243    5.669747
  H     -1.782010    0.256352    4.478952

 Multiplicity           Mult            ....    1
 Number of Electrons    NEL             ....   18
 Basis Dimension        Dim             ....  172

ORBITAL ENERGIES
----------------

  NO   OCC          E(Eh)            E(eV)
   0   2.0000     -19.238132      -523.4962
   1   2.0000     -10.321056      -280.8502
   2   2.0000      -1.155345       -31.4385
   3   2.0000      -0.786814       -21.4103
   4   2.0000      -0.621691       -16.9171
   5   2.0000      -0.535817       -14.5803
   6   2.0000      -0.530172       -14.4267
   7   2.0000      -0.438217       -11.9245
   8   2.0000      -0.372115       -10.1258
   9   0.0000       0.083282         2.2662
  10   0.0000       0.116464         3.1691
  11   0.0000       0.149630         4.0717
  12   0.0000       0.164930         4.4880
  13   0.0000       0.188307         5.1241

MULLIKEN ATOMIC CHARGES
-----------------------
   0 C :    0.000345
   1 O :   -0.000043
   2 H :   -0.000121
   3 H :   -0.000049
   4 H :   -0.000006
   5 H :   -0.000348
   6 C :   -0.179315
   7 O :   -0.447137
   8 H :    0.316705
   9 H :    0.105901
  10 H :    0.117356
  11 H :    0.086712
Sum of atomic charges:    0.0000000

LOEWDIN ATOMIC CHARGES
----------------------
   0 C :   -0.000618
   1 O :   -0.000032
   2 H :   -0.000143
   3 H :   -0.000051
   4 H :   -0.000008
   5 H :   -0.000261
   6 C :   -0.435353
   7 O :   -0.042626
   8 H :    0.175736
   9 H :    0.091415
  10 H :    0.112825
  11 H :    0.099114

  Mayer bond orders larger than 0.1
B(  6-C ,  7-O ) :   1.0110 B(  6-C ,  9-H ) :   0.9664 B(  6-C , 10-H ) :   0.9739
B(  6-C , 11-H ) :   0.9735 B(  7-O ,  8-H ) :   0.8993

Dispersion correction           -0.000243085
FINAL SINGLE POINT ENERGY      -115.731899748024

DIPOLE MOMENT
-------------
                                X             Y             Z
Electronic contribution:      0.67592      -1.43818      -1.27680
Nuclear contribution   :     -1.17737       1.84741       1.14204
                        -----------------------------------------
Total Dipole Moment    :     -0.50145       0.40923      -0.13476
                        -----------------------------------------
Magnitude (a.u.)       :      0.66112
Magnitude (Debye)      :      1.68043

Rotational constants in cm-1:     4.167494     0.856261     0.821009
Rotational constants in MHz : 124938.325021 25670.055021 24613.220494

                             ****ORCA TERMINATED NORMALLY****
TOTAL RUN TIME: 0 days 0 hours 1 minutes 1 seconds 157 msec
