                         Program Version 4.1.2  - RELEASE  -
|  1> #Run DFT-D3 single point of the dimer
|  2> ! wB97X-D3 def2-TZVP TIGHTSCF CHELPG PMODEL PAL8
|  3>
|  4> %base "21-122_DFT_AB"
|  5>
|  6> %scf
|  7> MaxIter 1000
|  8> end
|  9>
| 10> * xyz 0 1
| 11>   C                      7.874232             -11.071143           3.966624
| 12>   O                      7.687014             -11.846176           5.116566
| 13>   H                      7.956098             -12.702588           4.813071
| 14>   H                      7.097583             -10.318167           3.915558
| 15>   H                      8.832153             -10.564399           3.880598
| 16>   H                      7.813907             -11.598509           3.043541
| 17>   C                      8.713345             -6.812826            5.447981
| 18>   O                      9.239874             -8.108874            5.288773
| 19>   H                      8.739955             -8.643854            5.897279
| 20>   H                      8.712820             -6.553405            6.573401
| 21>   H                      9.404848             -6.029492            5.066783
| 22>   H                      7.712596             -6.707553            5.073115
| 23> *
| 24>
| 25> #Run DFT-D3 single point of the molecule with dimer basis set
| 26> $new_job
| 27> %base "21-122_DFT_A"
| 28> ! wB97X-D3 def2-TZVP TIGHTSCF CHELPG PMODEL
| 29>
| 30> %scf
| 31> MaxIter 1000
| 32> end
| 33>
| 34> * xyz 0 1
| 35>   C                      7.874232             -11.071143           3.966624
| 36>   O                      7.687014             -11.846176           5.116566
| 37>   H                      7.956098             -12.702588           4.813071
| 38>   H                      7.097583             -10.318167           3.915558
| 39>   H                      8.832153             -10.564399           3.880598
| 40>   H                      7.813907             -11.598509           3.043541
| 41>   C                    : 8.713345             -6.812826            5.447981
| 42>   O                    : 9.239874             -8.108874            5.288773
| 43>   H                    : 8.739955             -8.643854            5.897279
| 44>   H                    : 8.712820             -6.553405            6.573401
| 45>   H                    : 9.404848             -6.029492            5.066783
| 46>   H                    : 7.712596             -6.707553            5.073115
| 47> *
| 48>
| 49> #Run DFT-D3 single point of the particle with dimer basis set
| 50> $new_job
| 51> %base "21-122_DFT_B"
| 52> ! wB97X-D3 def2-TZVP TIGHTSCF CHELPG PMODEL
| 53>
| 54> %scf
| 55> MaxIter 1000
| 56> end
| 57>
| 58> * xyz 0 1
| 59>   C                    : 7.874232             -11.071143           3.966624
| 60>   O                    : 7.687014             -11.846176           5.116566
| 61>   H                    : 7.956098             -12.702588           4.813071
| 62>   H                    : 7.097583             -10.318167           3.915558
| 63>   H                    : 8.832153             -10.564399           3.880598
| 64>   H                    : 7.813907             -11.598509           3.043541
| 65>   C                      8.713345             -6.812826            5.447981
| 66>   O                      9.239874             -8.108874            5.288773
| 67>   H                      8.739955             -8.643854            5.897279
| 68>   H                      8.712820             -6.553405            6.573401
| 69>   H                      9.404848             -6.029492            5.066783
| 70>   H                      7.712596             -6.707553            5.073115
| 71> *
| 72>
| 73>                          ****END OF INPUT****
 Total Charge           Charge          ....    0
 Multiplicity           Mult            ....    1
 Number of Electrons    NEL             ....   36
Dispersion correction           -0.001495602
FINAL SINGLE POINT ENERGY      -231.466984823307
Dispersion correction           -0.000231476
FINAL SINGLE POINT ENERGY      -115.732263718220

CARTESIAN COORDINATES (ANGSTROEM)
---------------------------------
  C      7.874232  -11.071143    3.966624
  O      7.687014  -11.846176    5.116566
  H      7.956098  -12.702588    4.813071
  H      7.097583  -10.318167    3.915558
  H      8.832153  -10.564399    3.880598
  H      7.813907  -11.598509    3.043541
  C      8.713345   -6.812826    5.447981
  O      9.239874   -8.108874    5.288773
  H      8.739955   -8.643854    5.897279
  H      8.712820   -6.553405    6.573401
  H      9.404848   -6.029492    5.066783
  H      7.712596   -6.707553    5.073115

 Multiplicity           Mult            ....    1
 Number of Electrons    NEL             ....   18
 Basis Dimension        Dim             ....  172

ORBITAL ENERGIES
----------------

  NO   OCC          E(Eh)            E(eV)
   0   2.0000     -19.233138      -523.3603
   1   2.0000     -10.319583      -280.8101
   2   2.0000      -1.143967       -31.1289
   3   2.0000      -0.791004       -21.5243
   4   2.0000      -0.611728       -16.6460
   5   2.0000      -0.549198       -14.9444
   6   2.0000      -0.524854       -14.2820
   7   2.0000      -0.431467       -11.7408
   8   2.0000      -0.375735       -10.2243
   9   0.0000       0.086402         2.3511
  10   0.0000       0.123360         3.3568
  11   0.0000       0.154235         4.1970
  12   0.0000       0.169893         4.6230
  13   0.0000       0.190958         5.1962

MULLIKEN ATOMIC CHARGES
-----------------------
   0 C :   -0.005288
   1 O :    0.000399
   2 H :   -0.000007
   3 H :   -0.000750
   4 H :   -0.002401
   5 H :   -0.000800
   6 C :   -0.178068
   7 O :   -0.456189
   8 H :    0.319258
   9 H :    0.093293
  10 H :    0.121852
  11 H :    0.108703
Sum of atomic charges:    0.0000000

LOEWDIN ATOMIC CHARGES
----------------------
   0 C :   -0.007105
   1 O :   -0.000090
   2 H :   -0.000018
   3 H :   -0.001212
   4 H :   -0.005001
   5 H :   -0.000092
   6 C :   -0.399027
   7 O :   -0.059929
   8 H :    0.168373
   9 H :    0.103142
  10 H :    0.111994
  11 H :    0.088965

  Mayer bond orders larger than 0.1
B(  6-C ,  7-O ) :   1.0052 B(  6-C ,  9-H ) :   0.9849 B(  6-C , 10-H ) :   0.9708
B(  6-C , 11-H ) :   0.9661 B(  7-O ,  8-H ) :   0.8977

Dispersion correction           -0.000233207
FINAL SINGLE POINT ENERGY      -115.732384264390

DIPOLE MOMENT
-------------
                                X             Y             Z
Electronic contribution:      0.71464      -1.67805      -0.52308
Nuclear contribution   :     -1.21479       1.85908       0.96816
                        -----------------------------------------
Total Dipole Moment    :     -0.50015       0.18103       0.44508
                        -----------------------------------------
Magnitude (a.u.)       :      0.69355
Magnitude (Debye)      :      1.76288

Rotational constants in cm-1:     4.178984     0.833279     0.807642
Rotational constants in MHz : 125282.785915 24981.074544 24212.511529

                             ****ORCA TERMINATED NORMALLY****
TOTAL RUN TIME: 0 days 0 hours 1 minutes 1 seconds 832 msec
