                         Program Version 4.1.2  - RELEASE  -
|  1> #Run DFT-D3 single point of the dimer
|  2> ! wB97X-D3 def2-TZVP TIGHTSCF CHELPG PMODEL PAL8
|  3>
|  4> %base "5-156_DFT_AB"
|  5>
|  6> %scf
|  7> MaxIter 1000
|  8> end
|  9>
| 10> * xyz 0 1
| 11>   C                      -0.745910            -4.978390            -10.184007
| 12>   O                      -0.486956            -4.877424            -8.819097
| 13>   H                      -0.942398            -5.613371            -8.446573
| 14>   H                      -0.400305            -5.989052            -10.614495
| 15>   H                      -1.838380            -4.986133            -10.404108
| 16>   H                      -0.206231            -4.276731            -10.733806
| 17>   C                      -0.177212            -3.464075            -5.008626
| 18>   O                      0.599243             -4.170282            -5.964657
| 19>   H                      0.221244             -3.985069            -6.835843
| 20>   H                      -0.052295            -2.377234            -5.075351
| 21>   H                      -1.279764            -3.683136            -5.182851
| 22>   H                      0.041622             -3.838165            -4.030560
| 23> *
| 24>
| 25> #Run DFT-D3 single point of the molecule with dimer basis set
| 26> $new_job
| 27> %base "5-156_DFT_A"
| 28> ! wB97X-D3 def2-TZVP TIGHTSCF CHELPG PMODEL
| 29>
| 30> %scf
| 31> MaxIter 1000
| 32> end
| 33>
| 34> * xyz 0 1
| 35>   C                      -0.745910            -4.978390            -10.184007
| 36>   O                      -0.486956            -4.877424            -8.819097
| 37>   H                      -0.942398            -5.613371            -8.446573
| 38>   H                      -0.400305            -5.989052            -10.614495
| 39>   H                      -1.838380            -4.986133            -10.404108
| 40>   H                      -0.206231            -4.276731            -10.733806
| 41>   C                    : -0.177212            -3.464075            -5.008626
| 42>   O                    : 0.599243             -4.170282            -5.964657
| 43>   H                    : 0.221244             -3.985069            -6.835843
| 44>   H                    : -0.052295            -2.377234            -5.075351
| 45>   H                    : -1.279764            -3.683136            -5.182851
| 46>   H                    : 0.041622             -3.838165            -4.030560
| 47> *
| 48>
| 49> #Run DFT-D3 single point of the particle with dimer basis set
| 50> $new_job
| 51> %base "5-156_DFT_B"
| 52> ! wB97X-D3 def2-TZVP TIGHTSCF CHELPG PMODEL
| 53>
| 54> %scf
| 55> MaxIter 1000
| 56> end
| 57>
| 58> * xyz 0 1
| 59>   C                    : -0.745910            -4.978390            -10.184007
| 60>   O                    : -0.486956            -4.877424            -8.819097
| 61>   H                    : -0.942398            -5.613371            -8.446573
| 62>   H                    : -0.400305            -5.989052            -10.614495
| 63>   H                    : -1.838380            -4.986133            -10.404108
| 64>   H                    : -0.206231            -4.276731            -10.733806
| 65>   C                      -0.177212            -3.464075            -5.008626
| 66>   O                      0.599243             -4.170282            -5.964657
| 67>   H                      0.221244             -3.985069            -6.835843
| 68>   H                      -0.052295            -2.377234            -5.075351
| 69>   H                      -1.279764            -3.683136            -5.182851
| 70>   H                      0.041622             -3.838165            -4.030560
| 71> *
| 72>
| 73>                          ****END OF INPUT****
 Total Charge           Charge          ....    0
 Multiplicity           Mult            ....    1
 Number of Electrons    NEL             ....   36
Dispersion correction           -0.001270049
FINAL SINGLE POINT ENERGY      -231.472647258928
Dispersion correction           -0.000223568
FINAL SINGLE POINT ENERGY      -115.731380685691

CARTESIAN COORDINATES (ANGSTROEM)
---------------------------------
  C     -0.745910   -4.978390  -10.184007
  O     -0.486956   -4.877424   -8.819097
  H     -0.942398   -5.613371   -8.446573
  H     -0.400305   -5.989052  -10.614495
  H     -1.838380   -4.986133  -10.404108
  H     -0.206231   -4.276731  -10.733806
  C     -0.177212   -3.464075   -5.008626
  O      0.599243   -4.170282   -5.964657
  H      0.221244   -3.985069   -6.835843
  H     -0.052295   -2.377234   -5.075351
  H     -1.279764   -3.683136   -5.182851
  H      0.041622   -3.838165   -4.030560

 Multiplicity           Mult            ....    1
 Number of Electrons    NEL             ....   18
 Basis Dimension        Dim             ....  172

ORBITAL ENERGIES
----------------

  NO   OCC          E(Eh)            E(eV)
   0   2.0000     -19.231493      -523.3155
   1   2.0000     -10.316331      -280.7216
   2   2.0000      -1.133896       -30.8549
   3   2.0000      -0.793686       -21.5973
   4   2.0000      -0.608283       -16.5522
   5   2.0000      -0.541041       -14.7225
   6   2.0000      -0.527035       -14.3414
   7   2.0000      -0.435258       -11.8440
   8   2.0000      -0.373215       -10.1557
   9   0.0000       0.075248         2.0476
  10   0.0000       0.120305         3.2737
  11   0.0000       0.151856         4.1322
  12   0.0000       0.173778         4.7287
  13   0.0000       0.196679         5.3519

MULLIKEN ATOMIC CHARGES
-----------------------
   0 C :   -0.000024
   1 O :   -0.001236
   2 H :   -0.002233
   3 H :   -0.000008
   4 H :   -0.000021
   5 H :    0.000025
   6 C :   -0.168887
   7 O :   -0.469821
   8 H :    0.313303
   9 H :    0.108737
  10 H :    0.097396
  11 H :    0.122768
Sum of atomic charges:    0.0000000

LOEWDIN ATOMIC CHARGES
----------------------
   0 C :   -0.000497
   1 O :   -0.008435
   2 H :   -0.002303
   3 H :   -0.000013
   4 H :   -0.000012
   5 H :   -0.000024
   6 C :   -0.382206
   7 O :   -0.080064
   8 H :    0.175121
   9 H :    0.094393
  10 H :    0.101810
  11 H :    0.102229

  Mayer bond orders larger than 0.1
B(  6-C ,  7-O ) :   0.9956 B(  6-C ,  9-H ) :   0.9733 B(  6-C , 10-H ) :   0.9794
B(  6-C , 11-H ) :   0.9730 B(  7-O ,  8-H ) :   0.9018

Dispersion correction           -0.000240475
FINAL SINGLE POINT ENERGY      -115.735712746237

DIPOLE MOMENT
-------------
                                X             Y             Z
Electronic contribution:      1.20635      -0.90916      -1.04016
Nuclear contribution   :     -1.74451       1.29566       0.89080
                        -----------------------------------------
Total Dipole Moment    :     -0.53817       0.38650      -0.14936
                        -----------------------------------------
Magnitude (a.u.)       :      0.67920
Magnitude (Debye)      :      1.72639

Rotational constants in cm-1:     4.208580     0.825526     0.797264
Rotational constants in MHz : 126170.039589 24748.640147 23901.368330

                             ****ORCA TERMINATED NORMALLY****
TOTAL RUN TIME: 0 days 0 hours 0 minutes 53 seconds 210 msec
