                         Program Version 4.1.2  - RELEASE  -
|  1> #Run DFT-D3 single point of the dimer
|  2> ! wB97X-D3 def2-TZVP TIGHTSCF CHELPG PMODEL PAL8
|  3>
|  4> %base "21-196_DFT_AB"
|  5>
|  6> %scf
|  7> MaxIter 1000
|  8> end
|  9>
| 10> * xyz 0 1
| 11>   C                      3.339832             1.269287             2.736079
| 12>   O                      4.575399             1.102023             2.148196
| 13>   H                      4.625842             1.343581             1.242459
| 14>   H                      2.622136             0.497492             2.359557
| 15>   H                      3.320272             1.094356             3.836294
| 16>   H                      2.955265             2.273138             2.563413
| 17>   C                      4.300986             3.277837             -0.779412
| 18>   O                      4.135071             1.899110             -0.580720
| 19>   H                      3.524675             1.661113             -1.263119
| 20>   H                      4.367841             3.429824             -1.873879
| 21>   H                      3.404084             3.864418             -0.389898
| 22>   H                      5.150771             3.684024             -0.288864
| 23> *
| 24>
| 25> #Run DFT-D3 single point of the molecule with dimer basis set
| 26> $new_job
| 27> %base "21-196_DFT_A"
| 28> ! wB97X-D3 def2-TZVP TIGHTSCF CHELPG PMODEL
| 29>
| 30> %scf
| 31> MaxIter 1000
| 32> end
| 33>
| 34> * xyz 0 1
| 35>   C                      3.339832             1.269287             2.736079
| 36>   O                      4.575399             1.102023             2.148196
| 37>   H                      4.625842             1.343581             1.242459
| 38>   H                      2.622136             0.497492             2.359557
| 39>   H                      3.320272             1.094356             3.836294
| 40>   H                      2.955265             2.273138             2.563413
| 41>   C                    : 4.300986             3.277837             -0.779412
| 42>   O                    : 4.135071             1.899110             -0.580720
| 43>   H                    : 3.524675             1.661113             -1.263119
| 44>   H                    : 4.367841             3.429824             -1.873879
| 45>   H                    : 3.404084             3.864418             -0.389898
| 46>   H                    : 5.150771             3.684024             -0.288864
| 47> *
| 48>
| 49> #Run DFT-D3 single point of the particle with dimer basis set
| 50> $new_job
| 51> %base "21-196_DFT_B"
| 52> ! wB97X-D3 def2-TZVP TIGHTSCF CHELPG PMODEL
| 53>
| 54> %scf
| 55> MaxIter 1000
| 56> end
| 57>
| 58> * xyz 0 1
| 59>   C                    : 3.339832             1.269287             2.736079
| 60>   O                    : 4.575399             1.102023             2.148196
| 61>   H                    : 4.625842             1.343581             1.242459
| 62>   H                    : 2.622136             0.497492             2.359557
| 63>   H                    : 3.320272             1.094356             3.836294
| 64>   H                    : 2.955265             2.273138             2.563413
| 65>   C                      4.300986             3.277837             -0.779412
| 66>   O                      4.135071             1.899110             -0.580720
| 67>   H                      3.524675             1.661113             -1.263119
| 68>   H                      4.367841             3.429824             -1.873879
| 69>   H                      3.404084             3.864418             -0.389898
| 70>   H                      5.150771             3.684024             -0.288864
| 71> *
| 72>
| 73>                          ****END OF INPUT****
 Total Charge           Charge          ....    0
 Multiplicity           Mult            ....    1
 Number of Electrons    NEL             ....   36
Dispersion correction           -0.001888812
FINAL SINGLE POINT ENERGY      -231.473288365229
Dispersion correction           -0.000245719
FINAL SINGLE POINT ENERGY      -115.733011044301

CARTESIAN COORDINATES (ANGSTROEM)
---------------------------------
  C      3.339832    1.269287    2.736079
  O      4.575399    1.102023    2.148196
  H      4.625842    1.343581    1.242459
  H      2.622136    0.497492    2.359557
  H      3.320272    1.094356    3.836294
  H      2.955265    2.273138    2.563413
  C      4.300986    3.277837   -0.779412
  O      4.135071    1.899110   -0.580720
  H      3.524675    1.661113   -1.263119
  H      4.367841    3.429824   -1.873879
  H      3.404084    3.864418   -0.389898
  H      5.150771    3.684024   -0.288864

 Multiplicity           Mult            ....    1
 Number of Electrons    NEL             ....   18
 Basis Dimension        Dim             ....  172

ORBITAL ENERGIES
----------------

  NO   OCC          E(Eh)            E(eV)
   0   2.0000     -19.230872      -523.2986
   1   2.0000     -10.316055      -280.7141
   2   2.0000      -1.147491       -31.2248
   3   2.0000      -0.792408       -21.5625
   4   2.0000      -0.612882       -16.6774
   5   2.0000      -0.542123       -14.7519
   6   2.0000      -0.535887       -14.5822
   7   2.0000      -0.438951       -11.9445
   8   2.0000      -0.371329       -10.1044
   9   0.0000       0.095833         2.6078
  10   0.0000       0.125547         3.4163
  11   0.0000       0.153506         4.1771
  12   0.0000       0.185159         5.0384
  13   0.0000       0.191512         5.2113

MULLIKEN ATOMIC CHARGES
-----------------------
   0 C :   -0.001645
   1 O :    0.002015
   2 H :   -0.008500
   3 H :   -0.001156
   4 H :   -0.000311
   5 H :   -0.000819
   6 C :   -0.171419
   7 O :   -0.450422
   8 H :    0.310023
   9 H :    0.101166
  10 H :    0.095588
  11 H :    0.125480
Sum of atomic charges:   -0.0000000

LOEWDIN ATOMIC CHARGES
----------------------
   0 C :   -0.005709
   1 O :   -0.004815
   2 H :   -0.035944
   3 H :   -0.000567
   4 H :   -0.000110
   5 H :   -0.000575
   6 C :   -0.391845
   7 O :   -0.025268
   8 H :    0.164346
   9 H :    0.100134
  10 H :    0.100865
  11 H :    0.099488

  Mayer bond orders larger than 0.1
B(  6-C ,  7-O ) :   0.9885 B(  6-C ,  9-H ) :   0.9831 B(  6-C , 10-H ) :   0.9704
B(  6-C , 11-H ) :   0.9757 B(  7-O ,  8-H ) :   0.9039

Dispersion correction           -0.000219188
FINAL SINGLE POINT ENERGY      -115.732648693363

DIPOLE MOMENT
-------------
                                X             Y             Z
Electronic contribution:      0.02439      -1.81290       0.42771
Nuclear contribution   :     -0.31047       2.18636      -0.94304
                        -----------------------------------------
Total Dipole Moment    :     -0.28608       0.37346      -0.51533
                        -----------------------------------------
Magnitude (a.u.)       :      0.69777
Magnitude (Debye)      :      1.77359

Rotational constants in cm-1:     4.208317     0.848079     0.818299
Rotational constants in MHz : 126162.176830 25424.757497 24531.980444

                             ****ORCA TERMINATED NORMALLY****
TOTAL RUN TIME: 0 days 0 hours 1 minutes 8 seconds 251 msec
