                         Program Version 4.1.2  - RELEASE  -
|  1> #Run DFT-D3 single point of the dimer
|  2> ! wB97X-D3 def2-TZVP TIGHTSCF CHELPG PMODEL PAL8
|  3>
|  4> %base "11-109_DFT_AB"
|  5>
|  6> %scf
|  7> MaxIter 1000
|  8> end
|  9>
| 10> * xyz 0 1
| 11>   C                      -8.009871            -4.711269            -2.147200
| 12>   O                      -8.298918            -5.552520            -1.027599
| 13>   H                      -8.177552            -5.122342            -0.191332
| 14>   H                      -8.178726            -5.149591            -3.108748
| 15>   H                      -8.576040            -3.788171            -2.055177
| 16>   H                      -7.060665            -4.281000            -2.058181
| 17>   C                      -10.018946           -1.408965            1.870387
| 18>   O                      -10.337469           -2.526738            1.054281
| 19>   H                      -9.774385            -3.257972            1.378657
| 20>   H                      -10.655951           -1.147242            2.725710
| 21>   H                      -9.059208            -1.586892            2.320353
| 22>   H                      -9.913778            -0.568793            1.239925
| 23> *
| 24>
| 25> #Run DFT-D3 single point of the molecule with dimer basis set
| 26> $new_job
| 27> %base "11-109_DFT_A"
| 28> ! wB97X-D3 def2-TZVP TIGHTSCF CHELPG PMODEL
| 29>
| 30> %scf
| 31> MaxIter 1000
| 32> end
| 33>
| 34> * xyz 0 1
| 35>   C                      -8.009871            -4.711269            -2.147200
| 36>   O                      -8.298918            -5.552520            -1.027599
| 37>   H                      -8.177552            -5.122342            -0.191332
| 38>   H                      -8.178726            -5.149591            -3.108748
| 39>   H                      -8.576040            -3.788171            -2.055177
| 40>   H                      -7.060665            -4.281000            -2.058181
| 41>   C                    : -10.018946           -1.408965            1.870387
| 42>   O                    : -10.337469           -2.526738            1.054281
| 43>   H                    : -9.774385            -3.257972            1.378657
| 44>   H                    : -10.655951           -1.147242            2.725710
| 45>   H                    : -9.059208            -1.586892            2.320353
| 46>   H                    : -9.913778            -0.568793            1.239925
| 47> *
| 48>
| 49> #Run DFT-D3 single point of the particle with dimer basis set
| 50> $new_job
| 51> %base "11-109_DFT_B"
| 52> ! wB97X-D3 def2-TZVP TIGHTSCF CHELPG PMODEL
| 53>
| 54> %scf
| 55> MaxIter 1000
| 56> end
| 57>
| 58> * xyz 0 1
| 59>   C                    : -8.009871            -4.711269            -2.147200
| 60>   O                    : -8.298918            -5.552520            -1.027599
| 61>   H                    : -8.177552            -5.122342            -0.191332
| 62>   H                    : -8.178726            -5.149591            -3.108748
| 63>   H                    : -8.576040            -3.788171            -2.055177
| 64>   H                    : -7.060665            -4.281000            -2.058181
| 65>   C                      -10.018946           -1.408965            1.870387
| 66>   O                      -10.337469           -2.526738            1.054281
| 67>   H                      -9.774385            -3.257972            1.378657
| 68>   H                      -10.655951           -1.147242            2.725710
| 69>   H                      -9.059208            -1.586892            2.320353
| 70>   H                      -9.913778            -0.568793            1.239925
| 71> *
| 72>
| 73>                          ****END OF INPUT****
 Total Charge           Charge          ....    0
 Multiplicity           Mult            ....    1
 Number of Electrons    NEL             ....   36
Dispersion correction           -0.001055093
FINAL SINGLE POINT ENERGY      -231.458443587138
Dispersion correction           -0.000237372
FINAL SINGLE POINT ENERGY      -115.727896259015

CARTESIAN COORDINATES (ANGSTROEM)
---------------------------------
  C     -8.009871   -4.711269   -2.147200
  O     -8.298918   -5.552520   -1.027599
  H     -8.177552   -5.122342   -0.191332
  H     -8.178726   -5.149591   -3.108748
  H     -8.576040   -3.788171   -2.055177
  H     -7.060665   -4.281000   -2.058181
  C    -10.018946   -1.408965    1.870387
  O    -10.337469   -2.526738    1.054281
  H     -9.774385   -3.257972    1.378657
  H    -10.655951   -1.147242    2.725710
  H     -9.059208   -1.586892    2.320353
  H     -9.913778   -0.568793    1.239925

 Multiplicity           Mult            ....    1
 Number of Electrons    NEL             ....   18
 Basis Dimension        Dim             ....  172

ORBITAL ENERGIES
----------------

  NO   OCC          E(Eh)            E(eV)
   0   2.0000     -19.233706      -523.3757
   1   2.0000     -10.307662      -280.4857
   2   2.0000      -1.133456       -30.8429
   3   2.0000      -0.798361       -21.7245
   4   2.0000      -0.612793       -16.6749
   5   2.0000      -0.539293       -14.6749
   6   2.0000      -0.530205       -14.4276
   7   2.0000      -0.435062       -11.8386
   8   2.0000      -0.375757       -10.2249
   9   0.0000       0.081698         2.2231
  10   0.0000       0.117700         3.2028
  11   0.0000       0.150465         4.0944
  12   0.0000       0.177111         4.8194
  13   0.0000       0.197756         5.3812

MULLIKEN ATOMIC CHARGES
-----------------------
   0 C :    0.001257
   1 O :    0.000136
   2 H :   -0.001115
   3 H :   -0.000086
   4 H :   -0.002701
   5 H :    0.000006
   6 C :   -0.162635
   7 O :   -0.472260
   8 H :    0.318743
   9 H :    0.101347
  10 H :    0.098790
  11 H :    0.118519
Sum of atomic charges:   -0.0000000

LOEWDIN ATOMIC CHARGES
----------------------
   0 C :   -0.000449
   1 O :   -0.000070
   2 H :   -0.001098
   3 H :   -0.000009
   4 H :   -0.000979
   5 H :   -0.000004
   6 C :   -0.379263
   7 O :   -0.086941
   8 H :    0.181545
   9 H :    0.096998
  10 H :    0.093545
  11 H :    0.096725

  Mayer bond orders larger than 0.1
B(  6-C ,  7-O ) :   1.0105 B(  6-C ,  9-H ) :   0.9636 B(  6-C , 10-H ) :   0.9936
B(  6-C , 11-H ) :   0.9805 B(  7-O ,  8-H ) :   0.8990

Dispersion correction           -0.000244961
FINAL SINGLE POINT ENERGY      -115.731040035998

DIPOLE MOMENT
-------------
                                X             Y             Z
Electronic contribution:     -0.63041      -1.34164      -1.14187
Nuclear contribution   :      1.14567       1.32797       1.67323
                        -----------------------------------------
Total Dipole Moment    :      0.51526      -0.01368       0.53136
                        -----------------------------------------
Magnitude (a.u.)       :      0.74029
Magnitude (Debye)      :      1.88167

Rotational constants in cm-1:     4.442216     0.826113     0.795763
Rotational constants in MHz : 133174.294541 24766.258594 23856.385108

                             ****ORCA TERMINATED NORMALLY****
TOTAL RUN TIME: 0 days 0 hours 1 minutes 9 seconds 268 msec
