                         Program Version 4.1.2  - RELEASE  -
|  1> #Run DFT-D3 single point of the dimer
|  2> ! wB97X-D3 def2-TZVP TIGHTSCF CHELPG PMODEL PAL8
|  3>
|  4> %base "7-45_DFT_AB"
|  5>
|  6> %scf
|  7> MaxIter 1000
|  8> end
|  9>
| 10> * xyz 0 1
| 11>   C                      -9.811344            4.558187             10.207530
| 12>   O                      -8.653833            5.412163             9.985210
| 13>   H                      -8.166910            5.609681             10.804078
| 14>   H                      -10.766672           5.084000             10.437990
| 15>   H                      -10.064099           3.949902             9.357270
| 16>   H                      -9.652676            3.829172             10.959154
| 17>   C                      -5.937137            1.611102             8.304273
| 18>   O                      -6.285615            0.571866             7.420897
| 19>   H                      -6.845697            0.910848             6.750429
| 20>   H                      -6.688215            1.793401             9.086896
| 21>   H                      -4.989211            1.450799             8.914783
| 22>   H                      -5.887714            2.542823             7.659055
| 23> *
| 24>
| 25> #Run DFT-D3 single point of the molecule with dimer basis set
| 26> $new_job
| 27> %base "7-45_DFT_A"
| 28> ! wB97X-D3 def2-TZVP TIGHTSCF CHELPG PMODEL
| 29>
| 30> %scf
| 31> MaxIter 1000
| 32> end
| 33>
| 34> * xyz 0 1
| 35>   C                      -9.811344            4.558187             10.207530
| 36>   O                      -8.653833            5.412163             9.985210
| 37>   H                      -8.166910            5.609681             10.804078
| 38>   H                      -10.766672           5.084000             10.437990
| 39>   H                      -10.064099           3.949902             9.357270
| 40>   H                      -9.652676            3.829172             10.959154
| 41>   C                    : -5.937137            1.611102             8.304273
| 42>   O                    : -6.285615            0.571866             7.420897
| 43>   H                    : -6.845697            0.910848             6.750429
| 44>   H                    : -6.688215            1.793401             9.086896
| 45>   H                    : -4.989211            1.450799             8.914783
| 46>   H                    : -5.887714            2.542823             7.659055
| 47> *
| 48>
| 49> #Run DFT-D3 single point of the particle with dimer basis set
| 50> $new_job
| 51> %base "7-45_DFT_B"
| 52> ! wB97X-D3 def2-TZVP TIGHTSCF CHELPG PMODEL
| 53>
| 54> %scf
| 55> MaxIter 1000
| 56> end
| 57>
| 58> * xyz 0 1
| 59>   C                    : -9.811344            4.558187             10.207530
| 60>   O                    : -8.653833            5.412163             9.985210
| 61>   H                    : -8.166910            5.609681             10.804078
| 62>   H                    : -10.766672           5.084000             10.437990
| 63>   H                    : -10.064099           3.949902             9.357270
| 64>   H                    : -9.652676            3.829172             10.959154
| 65>   C                      -5.937137            1.611102             8.304273
| 66>   O                      -6.285615            0.571866             7.420897
| 67>   H                      -6.845697            0.910848             6.750429
| 68>   H                      -6.688215            1.793401             9.086896
| 69>   H                      -4.989211            1.450799             8.914783
| 70>   H                      -5.887714            2.542823             7.659055
| 71> *
| 72>
| 73>                          ****END OF INPUT****
 Total Charge           Charge          ....    0
 Multiplicity           Mult            ....    1
 Number of Electrons    NEL             ....   36
Dispersion correction           -0.000836836
FINAL SINGLE POINT ENERGY      -231.460347198880
Dispersion correction           -0.000289716
FINAL SINGLE POINT ENERGY      -115.730203854947

CARTESIAN COORDINATES (ANGSTROEM)
---------------------------------
  C     -9.811344    4.558187   10.207530
  O     -8.653833    5.412163    9.985210
  H     -8.166910    5.609681   10.804078
  H    -10.766672    5.084000   10.437990
  H    -10.064099    3.949902    9.357270
  H     -9.652676    3.829172   10.959154
  C     -5.937137    1.611102    8.304273
  O     -6.285615    0.571866    7.420897
  H     -6.845697    0.910848    6.750429
  H     -6.688215    1.793401    9.086896
  H     -4.989211    1.450799    8.914783
  H     -5.887714    2.542823    7.659055

 Multiplicity           Mult            ....    1
 Number of Electrons    NEL             ....   18
 Basis Dimension        Dim             ....  172

ORBITAL ENERGIES
----------------

  NO   OCC          E(Eh)            E(eV)
   0   2.0000     -19.228395      -523.2312
   1   2.0000     -10.323881      -280.9271
   2   2.0000      -1.143253       -31.1095
   3   2.0000      -0.791557       -21.5394
   4   2.0000      -0.613901       -16.7051
   5   2.0000      -0.543574       -14.7914
   6   2.0000      -0.526605       -14.3296
   7   2.0000      -0.427844       -11.6422
   8   2.0000      -0.371186       -10.1005
   9   0.0000       0.079896         2.1741
  10   0.0000       0.114370         3.1122
  11   0.0000       0.148907         4.0520
  12   0.0000       0.159351         4.3362
  13   0.0000       0.184181         5.0118

MULLIKEN ATOMIC CHARGES
-----------------------
   0 C :   -0.000104
   1 O :    0.000011
   2 H :   -0.000010
   3 H :   -0.000006
   4 H :    0.000008
   5 H :   -0.000068
   6 C :   -0.164914
   7 O :   -0.468720
   8 H :    0.315795
   9 H :    0.101934
  10 H :    0.119655
  11 H :    0.096418
Sum of atomic charges:   -0.0000000

LOEWDIN ATOMIC CHARGES
----------------------
   0 C :   -0.000258
   1 O :   -0.000020
   2 H :   -0.000014
   3 H :   -0.000004
   4 H :   -0.000039
   5 H :   -0.000062
   6 C :   -0.399135
   7 O :   -0.065283
   8 H :    0.155655
   9 H :    0.091740
  10 H :    0.114835
  11 H :    0.102586

  Mayer bond orders larger than 0.1
B(  6-C ,  7-O ) :   1.0011 B(  6-C ,  9-H ) :   0.9677 B(  6-C , 10-H ) :   0.9688
B(  6-C , 11-H ) :   0.9925 B(  7-O ,  8-H ) :   0.9010

Dispersion correction           -0.000248794
FINAL SINGLE POINT ENERGY      -115.729493509768

DIPOLE MOMENT
-------------
                                X             Y             Z
Electronic contribution:     -0.33800      -1.52596      -1.07566
Nuclear contribution   :      0.10754       2.14735       0.98812
                        -----------------------------------------
Total Dipole Moment    :     -0.23046       0.62140      -0.08754
                        -----------------------------------------
Magnitude (a.u.)       :      0.66851
Magnitude (Debye)      :      1.69922

Rotational constants in cm-1:     4.227132     0.831882     0.794215
Rotational constants in MHz : 126726.221283 24939.205177 23809.979910

                             ****ORCA TERMINATED NORMALLY****
TOTAL RUN TIME: 0 days 0 hours 0 minutes 59 seconds 927 msec
