                         Program Version 4.1.2  - RELEASE  -
|  1> #Run DFT-D3 single point of the dimer
|  2> ! wB97X-D3 def2-TZVP TIGHTSCF CHELPG PMODEL PAL8
|  3>
|  4> %base "7-37_DFT_AB"
|  5>
|  6> %scf
|  7> MaxIter 1000
|  8> end
|  9>
| 10> * xyz 0 1
| 11>   C                      4.287323             3.811473             -10.095497
| 12>   O                      5.437001             3.561698             -10.899745
| 13>   H                      5.610883             2.637790             -10.816381
| 14>   H                      3.601199             4.500166             -10.683801
| 15>   H                      3.740410             2.909689             -9.881101
| 16>   H                      4.471084             4.301608             -9.117160
| 17>   C                      6.671575             0.864832             -9.575396
| 18>   O                      5.502137             0.769810             -10.286720
| 19>   H                      5.410029             -0.072044            -10.730265
| 20>   H                      6.634025             0.216302             -8.719840
| 21>   H                      7.489950             0.358097             -10.100182
| 22>   H                      6.898265             1.942829             -9.426292
| 23> *
| 24>
| 25> #Run DFT-D3 single point of the molecule with dimer basis set
| 26> $new_job
| 27> %base "7-37_DFT_A"
| 28> ! wB97X-D3 def2-TZVP TIGHTSCF CHELPG PMODEL
| 29>
| 30> %scf
| 31> MaxIter 1000
| 32> end
| 33>
| 34> * xyz 0 1
| 35>   C                      4.287323             3.811473             -10.095497
| 36>   O                      5.437001             3.561698             -10.899745
| 37>   H                      5.610883             2.637790             -10.816381
| 38>   H                      3.601199             4.500166             -10.683801
| 39>   H                      3.740410             2.909689             -9.881101
| 40>   H                      4.471084             4.301608             -9.117160
| 41>   C                    : 6.671575             0.864832             -9.575396
| 42>   O                    : 5.502137             0.769810             -10.286720
| 43>   H                    : 5.410029             -0.072044            -10.730265
| 44>   H                    : 6.634025             0.216302             -8.719840
| 45>   H                    : 7.489950             0.358097             -10.100182
| 46>   H                    : 6.898265             1.942829             -9.426292
| 47> *
| 48>
| 49> #Run DFT-D3 single point of the particle with dimer basis set
| 50> $new_job
| 51> %base "7-37_DFT_B"
| 52> ! wB97X-D3 def2-TZVP TIGHTSCF CHELPG PMODEL
| 53>
| 54> %scf
| 55> MaxIter 1000
| 56> end
| 57>
| 58> * xyz 0 1
| 59>   C                    : 4.287323             3.811473             -10.095497
| 60>   O                    : 5.437001             3.561698             -10.899745
| 61>   H                    : 5.610883             2.637790             -10.816381
| 62>   H                    : 3.601199             4.500166             -10.683801
| 63>   H                    : 3.740410             2.909689             -9.881101
| 64>   H                    : 4.471084             4.301608             -9.117160
| 65>   C                      6.671575             0.864832             -9.575396
| 66>   O                      5.502137             0.769810             -10.286720
| 67>   H                      5.410029             -0.072044            -10.730265
| 68>   H                      6.634025             0.216302             -8.719840
| 69>   H                      7.489950             0.358097             -10.100182
| 70>   H                      6.898265             1.942829             -9.426292
| 71> *
| 72>
| 73>                          ****END OF INPUT****
 Total Charge           Charge          ....    0
 Multiplicity           Mult            ....    1
 Number of Electrons    NEL             ....   36
Dispersion correction           -0.002086703
FINAL SINGLE POINT ENERGY      -231.470887788262
Dispersion correction           -0.000258314
FINAL SINGLE POINT ENERGY      -115.734162881348

CARTESIAN COORDINATES (ANGSTROEM)
---------------------------------
  C      4.287323    3.811473  -10.095497
  O      5.437001    3.561698  -10.899745
  H      5.610883    2.637790  -10.816381
  H      3.601199    4.500166  -10.683801
  H      3.740410    2.909689   -9.881101
  H      4.471084    4.301608   -9.117160
  C      6.671575    0.864832   -9.575396
  O      5.502137    0.769810  -10.286720
  H      5.410029   -0.072044  -10.730265
  H      6.634025    0.216302   -8.719840
  H      7.489950    0.358097  -10.100182
  H      6.898265    1.942829   -9.426292

 Multiplicity           Mult            ....    1
 Number of Electrons    NEL             ....   18
 Basis Dimension        Dim             ....  172

ORBITAL ENERGIES
----------------

  NO   OCC          E(Eh)            E(eV)
   0   2.0000     -19.226319      -523.1747
   1   2.0000     -10.309686      -280.5408
   2   2.0000      -1.147587       -31.2274
   3   2.0000      -0.795927       -21.6583
   4   2.0000      -0.627348       -17.0710
   5   2.0000      -0.546427       -14.8690
   6   2.0000      -0.526152       -14.3173
   7   2.0000      -0.430981       -11.7276
   8   2.0000      -0.365322        -9.9409
   9   0.0000       0.098036         2.6677
  10   0.0000       0.124697         3.3932
  11   0.0000       0.157486         4.2854
  12   0.0000       0.185381         5.0445
  13   0.0000       0.198407         5.3989

MULLIKEN ATOMIC CHARGES
-----------------------
   0 C :    0.006413
   1 O :   -0.001801
   2 H :   -0.003376
   3 H :   -0.000212
   4 H :   -0.007918
   5 H :   -0.000444
   6 C :   -0.144169
   7 O :   -0.468436
   8 H :    0.311828
   9 H :    0.096244
  10 H :    0.091974
  11 H :    0.119897
Sum of atomic charges:   -0.0000000

LOEWDIN ATOMIC CHARGES
----------------------
   0 C :   -0.006804
   1 O :   -0.005828
   2 H :   -0.036796
   3 H :   -0.000029
   4 H :   -0.005066
   5 H :   -0.000102
   6 C :   -0.404495
   7 O :   -0.012060
   8 H :    0.167258
   9 H :    0.090561
  10 H :    0.093890
  11 H :    0.119471

  Mayer bond orders larger than 0.1
B(  6-C ,  7-O ) :   0.9843 B(  6-C ,  9-H ) :   0.9756 B(  6-C , 10-H ) :   0.9824
B(  6-C , 11-H ) :   0.9759 B(  7-O ,  8-H ) :   0.8949

Dispersion correction           -0.000216495
FINAL SINGLE POINT ENERGY      -115.729795603338

DIPOLE MOMENT
-------------
                                X             Y             Z
Electronic contribution:     -1.57508       0.11563      -0.80426
Nuclear contribution   :      1.97439      -0.65390       0.77433
                        -----------------------------------------
Total Dipole Moment    :      0.39931      -0.53827      -0.02993
                        -----------------------------------------
Magnitude (a.u.)       :      0.67088
Magnitude (Debye)      :      1.70524

Rotational constants in cm-1:     4.289619     0.883986     0.834059
Rotational constants in MHz : 128599.540657 26501.224467 25004.445073

                             ****ORCA TERMINATED NORMALLY****
TOTAL RUN TIME: 0 days 0 hours 1 minutes 3 seconds 74 msec
