                         Program Version 4.1.2  - RELEASE  -
|  1> #Run DFT-D3 single point of the dimer
|  2> ! wB97X-D3 def2-TZVP TIGHTSCF CHELPG PMODEL PAL8
|  3>
|  4> %base "3-155_DFT_AB"
|  5>
|  6> %scf
|  7> MaxIter 1000
|  8> end
|  9>
| 10> * xyz 0 1
| 11>   C                      6.369187             -9.904875            -6.703849
| 12>   O                      6.245421             -9.413843            -5.411142
| 13>   H                      6.942337             -9.718965            -4.856947
| 14>   H                      5.664437             -9.421000            -7.422368
| 15>   H                      7.396688             -9.835106            -7.022802
| 16>   H                      6.137889             -10.954571           -6.839164
| 17>   C                      7.824149             -6.541782            -2.938392
| 18>   O                      6.838613             -6.343580            -3.974668
| 19>   H                      6.273689             -7.114405            -3.803424
| 20>   H                      8.641501             -7.009749            -3.332158
| 21>   H                      8.094999             -5.546398            -2.500354
| 22>   H                      7.388448             -7.062077            -2.040342
| 23> *
| 24>
| 25> #Run DFT-D3 single point of the molecule with dimer basis set
| 26> $new_job
| 27> %base "3-155_DFT_A"
| 28> ! wB97X-D3 def2-TZVP TIGHTSCF CHELPG PMODEL
| 29>
| 30> %scf
| 31> MaxIter 1000
| 32> end
| 33>
| 34> * xyz 0 1
| 35>   C                      6.369187             -9.904875            -6.703849
| 36>   O                      6.245421             -9.413843            -5.411142
| 37>   H                      6.942337             -9.718965            -4.856947
| 38>   H                      5.664437             -9.421000            -7.422368
| 39>   H                      7.396688             -9.835106            -7.022802
| 40>   H                      6.137889             -10.954571           -6.839164
| 41>   C                    : 7.824149             -6.541782            -2.938392
| 42>   O                    : 6.838613             -6.343580            -3.974668
| 43>   H                    : 6.273689             -7.114405            -3.803424
| 44>   H                    : 8.641501             -7.009749            -3.332158
| 45>   H                    : 8.094999             -5.546398            -2.500354
| 46>   H                    : 7.388448             -7.062077            -2.040342
| 47> *
| 48>
| 49> #Run DFT-D3 single point of the particle with dimer basis set
| 50> $new_job
| 51> %base "3-155_DFT_B"
| 52> ! wB97X-D3 def2-TZVP TIGHTSCF CHELPG PMODEL
| 53>
| 54> %scf
| 55> MaxIter 1000
| 56> end
| 57>
| 58> * xyz 0 1
| 59>   C                    : 6.369187             -9.904875            -6.703849
| 60>   O                    : 6.245421             -9.413843            -5.411142
| 61>   H                    : 6.942337             -9.718965            -4.856947
| 62>   H                    : 5.664437             -9.421000            -7.422368
| 63>   H                    : 7.396688             -9.835106            -7.022802
| 64>   H                    : 6.137889             -10.954571           -6.839164
| 65>   C                      7.824149             -6.541782            -2.938392
| 66>   O                      6.838613             -6.343580            -3.974668
| 67>   H                      6.273689             -7.114405            -3.803424
| 68>   H                      8.641501             -7.009749            -3.332158
| 69>   H                      8.094999             -5.546398            -2.500354
| 70>   H                      7.388448             -7.062077            -2.040342
| 71> *
| 72>
| 73>                          ****END OF INPUT****
 Total Charge           Charge          ....    0
 Multiplicity           Mult            ....    1
 Number of Electrons    NEL             ....   36
Dispersion correction           -0.001340647
FINAL SINGLE POINT ENERGY      -231.462489300214
Dispersion correction           -0.000240114
FINAL SINGLE POINT ENERGY      -115.732886356634

CARTESIAN COORDINATES (ANGSTROEM)
---------------------------------
  C      6.369187   -9.904875   -6.703849
  O      6.245421   -9.413843   -5.411142
  H      6.942337   -9.718965   -4.856947
  H      5.664437   -9.421000   -7.422368
  H      7.396688   -9.835106   -7.022802
  H      6.137889  -10.954571   -6.839164
  C      7.824149   -6.541782   -2.938392
  O      6.838613   -6.343580   -3.974668
  H      6.273689   -7.114405   -3.803424
  H      8.641501   -7.009749   -3.332158
  H      8.094999   -5.546398   -2.500354
  H      7.388448   -7.062077   -2.040342

 Multiplicity           Mult            ....    1
 Number of Electrons    NEL             ....   18
 Basis Dimension        Dim             ....  172

ORBITAL ENERGIES
----------------

  NO   OCC          E(Eh)            E(eV)
   0   2.0000     -19.232506      -523.3431
   1   2.0000     -10.313540      -280.6457
   2   2.0000      -1.130678       -30.7673
   3   2.0000      -0.794157       -21.6101
   4   2.0000      -0.600040       -16.3279
   5   2.0000      -0.557576       -15.1724
   6   2.0000      -0.514784       -14.0080
   7   2.0000      -0.436439       -11.8761
   8   2.0000      -0.378766       -10.3067
   9   0.0000       0.079205         2.1553
  10   0.0000       0.117560         3.1990
  11   0.0000       0.152861         4.1596
  12   0.0000       0.171289         4.6610
  13   0.0000       0.191346         5.2068

MULLIKEN ATOMIC CHARGES
-----------------------
   0 C :   -0.001426
   1 O :   -0.001578
   2 H :   -0.000615
   3 H :    0.000139
   4 H :    0.000061
   5 H :   -0.000012
   6 C :   -0.182540
   7 O :   -0.463912
   8 H :    0.315729
   9 H :    0.119476
  10 H :    0.111394
  11 H :    0.103284
Sum of atomic charges:   -0.0000000

LOEWDIN ATOMIC CHARGES
----------------------
   0 C :   -0.000627
   1 O :   -0.003241
   2 H :   -0.001179
   3 H :   -0.000011
   4 H :   -0.000022
   5 H :   -0.000022
   6 C :   -0.365640
   7 O :   -0.099862
   8 H :    0.176059
   9 H :    0.079687
  10 H :    0.110723
  11 H :    0.104134

  Mayer bond orders larger than 0.1
B(  6-C ,  7-O ) :   1.0050 B(  6-C ,  9-H ) :   0.9734 B(  6-C , 10-H ) :   0.9757
B(  6-C , 11-H ) :   0.9848 B(  7-O ,  8-H ) :   0.9036

Dispersion correction           -0.000231092
FINAL SINGLE POINT ENERGY      -115.728056505495

DIPOLE MOMENT
-------------
                                X             Y             Z
Electronic contribution:     -1.05324       0.29271      -1.46703
Nuclear contribution   :      1.10336      -0.83343       1.99743
                        -----------------------------------------
Total Dipole Moment    :      0.05012      -0.54072       0.53040
                        -----------------------------------------
Magnitude (a.u.)       :      0.75909
Magnitude (Debye)      :      1.92944

Rotational constants in cm-1:     4.194896     0.815034     0.786660
Rotational constants in MHz : 125759.809956 24434.118526 23583.461463

                             ****ORCA TERMINATED NORMALLY****
TOTAL RUN TIME: 0 days 0 hours 6 minutes 23 seconds 148 msec
