                         Program Version 4.1.2  - RELEASE  -
|  1> #Run DFT-D3 single point of the dimer
|  2> ! wB97X-D3 def2-TZVP TIGHTSCF CHELPG PMODEL PAL8
|  3>
|  4> %base "22-114_DFT_AB"
|  5>
|  6> %scf
|  7> MaxIter 1000
|  8> end
|  9>
| 10> * xyz 0 1
| 11>   C                      2.728777             -5.694057            -8.740329
| 12>   O                      2.324008             -5.912598            -10.072786
| 13>   H                      2.987133             -6.439181            -10.468047
| 14>   H                      2.161046             -4.898734            -8.325374
| 15>   H                      2.535671             -6.576832            -8.025007
| 16>   H                      3.746550             -5.495858            -8.741357
| 17>   C                      -1.633696            -5.345142            -10.254065
| 18>   O                      -0.942246            -6.063928            -11.213519
| 19>   H                      -0.036436            -5.842456            -11.082899
| 20>   H                      -1.650345            -5.955789            -9.304963
| 21>   H                      -1.057373            -4.423185            -10.144738
| 22>   H                      -2.719474            -5.127904            -10.542702
| 23> *
| 24>
| 25> #Run DFT-D3 single point of the molecule with dimer basis set
| 26> $new_job
| 27> %base "22-114_DFT_A"
| 28> ! wB97X-D3 def2-TZVP TIGHTSCF CHELPG PMODEL
| 29>
| 30> %scf
| 31> MaxIter 1000
| 32> end
| 33>
| 34> * xyz 0 1
| 35>   C                      2.728777             -5.694057            -8.740329
| 36>   O                      2.324008             -5.912598            -10.072786
| 37>   H                      2.987133             -6.439181            -10.468047
| 38>   H                      2.161046             -4.898734            -8.325374
| 39>   H                      2.535671             -6.576832            -8.025007
| 40>   H                      3.746550             -5.495858            -8.741357
| 41>   C                    : -1.633696            -5.345142            -10.254065
| 42>   O                    : -0.942246            -6.063928            -11.213519
| 43>   H                    : -0.036436            -5.842456            -11.082899
| 44>   H                    : -1.650345            -5.955789            -9.304963
| 45>   H                    : -1.057373            -4.423185            -10.144738
| 46>   H                    : -2.719474            -5.127904            -10.542702
| 47> *
| 48>
| 49> #Run DFT-D3 single point of the particle with dimer basis set
| 50> $new_job
| 51> %base "22-114_DFT_B"
| 52> ! wB97X-D3 def2-TZVP TIGHTSCF CHELPG PMODEL
| 53>
| 54> %scf
| 55> MaxIter 1000
| 56> end
| 57>
| 58> * xyz 0 1
| 59>   C                    : 2.728777             -5.694057            -8.740329
| 60>   O                    : 2.324008             -5.912598            -10.072786
| 61>   H                    : 2.987133             -6.439181            -10.468047
| 62>   H                    : 2.161046             -4.898734            -8.325374
| 63>   H                    : 2.535671             -6.576832            -8.025007
| 64>   H                    : 3.746550             -5.495858            -8.741357
| 65>   C                      -1.633696            -5.345142            -10.254065
| 66>   O                      -0.942246            -6.063928            -11.213519
| 67>   H                      -0.036436            -5.842456            -11.082899
| 68>   H                      -1.650345            -5.955789            -9.304963
| 69>   H                      -1.057373            -4.423185            -10.144738
| 70>   H                      -2.719474            -5.127904            -10.542702
| 71> *
| 72>
| 73>                          ****END OF INPUT****
 Total Charge           Charge          ....    0
 Multiplicity           Mult            ....    1
 Number of Electrons    NEL             ....   36
Dispersion correction           -0.001433660
FINAL SINGLE POINT ENERGY      -231.466240793568
Dispersion correction           -0.000232302
FINAL SINGLE POINT ENERGY      -115.731208796623

CARTESIAN COORDINATES (ANGSTROEM)
---------------------------------
  C      2.728777   -5.694057   -8.740329
  O      2.324008   -5.912598  -10.072786
  H      2.987133   -6.439181  -10.468047
  H      2.161046   -4.898734   -8.325374
  H      2.535671   -6.576832   -8.025007
  H      3.746550   -5.495858   -8.741357
  C     -1.633696   -5.345142  -10.254065
  O     -0.942246   -6.063928  -11.213519
  H     -0.036436   -5.842456  -11.082899
  H     -1.650345   -5.955789   -9.304963
  H     -1.057373   -4.423185  -10.144738
  H     -2.719474   -5.127904  -10.542702

 Multiplicity           Mult            ....    1
 Number of Electrons    NEL             ....   18
 Basis Dimension        Dim             ....  172

ORBITAL ENERGIES
----------------

  NO   OCC          E(Eh)            E(eV)
   0   2.0000     -19.226366      -523.1760
   1   2.0000     -10.319937      -280.8198
   2   2.0000      -1.152238       -31.3540
   3   2.0000      -0.785839       -21.3838
   4   2.0000      -0.615973       -16.7615
   5   2.0000      -0.546656       -14.8753
   6   2.0000      -0.532471       -14.4893
   7   2.0000      -0.429239       -11.6802
   8   2.0000      -0.368922       -10.0389
   9   0.0000       0.069620         1.8944
  10   0.0000       0.123853         3.3702
  11   0.0000       0.142898         3.8885
  12   0.0000       0.174533         4.7493
  13   0.0000       0.184390         5.0175

MULLIKEN ATOMIC CHARGES
-----------------------
   0 C :   -0.000623
   1 O :   -0.000676
   2 H :   -0.000139
   3 H :   -0.000055
   4 H :   -0.000006
   5 H :    0.000004
   6 C :   -0.157452
   7 O :   -0.457652
   8 H :    0.311096
   9 H :    0.095324
  10 H :    0.096357
  11 H :    0.113820
Sum of atomic charges:    0.0000000

LOEWDIN ATOMIC CHARGES
----------------------
   0 C :   -0.000664
   1 O :   -0.003847
   2 H :   -0.000318
   3 H :   -0.000080
   4 H :   -0.000014
   5 H :   -0.000021
   6 C :   -0.413222
   7 O :   -0.050215
   8 H :    0.160352
   9 H :    0.098879
  10 H :    0.095459
  11 H :    0.113691

  Mayer bond orders larger than 0.1
B(  6-C ,  7-O ) :   0.9942 B(  6-C ,  9-H ) :   0.9726 B(  6-C , 10-H ) :   0.9944
B(  6-C , 11-H ) :   0.9691 B(  7-O ,  8-H ) :   0.9090

Dispersion correction           -0.000215401
FINAL SINGLE POINT ENERGY      -115.729246853191

DIPOLE MOMENT
-------------
                                X             Y             Z
Electronic contribution:      0.73946      -0.94486      -1.32352
Nuclear contribution   :     -0.41252       1.36712       1.74230
                        -----------------------------------------
Total Dipole Moment    :      0.32694       0.42226       0.41878
                        -----------------------------------------
Magnitude (a.u.)       :      0.67866
Magnitude (Debye)      :      1.72501

Rotational constants in cm-1:     4.069712     0.868676     0.836775
Rotational constants in MHz : 122006.903714 26042.250432 25085.883379

                             ****ORCA TERMINATED NORMALLY****
TOTAL RUN TIME: 0 days 0 hours 1 minutes 7 seconds 61 msec
