                         Program Version 4.1.2  - RELEASE  -
|  1> #Run DFT-D3 single point of the dimer
|  2> ! wB97X-D3 def2-TZVP TIGHTSCF CHELPG PMODEL PAL8
|  3>
|  4> %base "16-35_DFT_AB"
|  5>
|  6> %scf
|  7> MaxIter 1000
|  8> end
|  9>
| 10> * xyz 0 1
| 11>   C                      -9.948473            -1.812941            5.438624
| 12>   O                      -9.656483            -1.904055            6.869065
| 13>   H                      -8.898172            -2.436655            7.042660
| 14>   H                      -10.795136           -1.169837            5.194730
| 15>   H                      -9.039130            -1.454169            4.871001
| 16>   H                      -10.203844           -2.769139            4.921275
| 17>   C                      -10.552490           -1.297526            1.065318
| 18>   O                      -9.786420            -0.144467            1.203859
| 19>   H                      -10.338353           0.640395             1.205844
| 20>   H                      -10.625634           -1.588218            0.057080
| 21>   H                      -10.038204           -2.018390            1.649250
| 22>   H                      -11.536169           -1.009857            1.446093
| 23> *
| 24>
| 25> #Run DFT-D3 single point of the molecule with dimer basis set
| 26> $new_job
| 27> %base "16-35_DFT_A"
| 28> ! wB97X-D3 def2-TZVP TIGHTSCF CHELPG PMODEL
| 29>
| 30> %scf
| 31> MaxIter 1000
| 32> end
| 33>
| 34> * xyz 0 1
| 35>   C                      -9.948473            -1.812941            5.438624
| 36>   O                      -9.656483            -1.904055            6.869065
| 37>   H                      -8.898172            -2.436655            7.042660
| 38>   H                      -10.795136           -1.169837            5.194730
| 39>   H                      -9.039130            -1.454169            4.871001
| 40>   H                      -10.203844           -2.769139            4.921275
| 41>   C                    : -10.552490           -1.297526            1.065318
| 42>   O                    : -9.786420            -0.144467            1.203859
| 43>   H                    : -10.338353           0.640395             1.205844
| 44>   H                    : -10.625634           -1.588218            0.057080
| 45>   H                    : -10.038204           -2.018390            1.649250
| 46>   H                    : -11.536169           -1.009857            1.446093
| 47> *
| 48>
| 49> #Run DFT-D3 single point of the particle with dimer basis set
| 50> $new_job
| 51> %base "16-35_DFT_B"
| 52> ! wB97X-D3 def2-TZVP TIGHTSCF CHELPG PMODEL
| 53>
| 54> %scf
| 55> MaxIter 1000
| 56> end
| 57>
| 58> * xyz 0 1
| 59>   C                    : -9.948473            -1.812941            5.438624
| 60>   O                    : -9.656483            -1.904055            6.869065
| 61>   H                    : -8.898172            -2.436655            7.042660
| 62>   H                    : -10.795136           -1.169837            5.194730
| 63>   H                    : -9.039130            -1.454169            4.871001
| 64>   H                    : -10.203844           -2.769139            4.921275
| 65>   C                      -10.552490           -1.297526            1.065318
| 66>   O                      -9.786420            -0.144467            1.203859
| 67>   H                      -10.338353           0.640395             1.205844
| 68>   H                      -10.625634           -1.588218            0.057080
| 69>   H                      -10.038204           -2.018390            1.649250
| 70>   H                      -11.536169           -1.009857            1.446093
| 71> *
| 72>
| 73>                          ****END OF INPUT****
 Total Charge           Charge          ....    0
 Multiplicity           Mult            ....    1
 Number of Electrons    NEL             ....   36
Dispersion correction           -0.001159113
FINAL SINGLE POINT ENERGY      -231.461272614218
Dispersion correction           -0.000296861
FINAL SINGLE POINT ENERGY      -115.730279749753

CARTESIAN COORDINATES (ANGSTROEM)
---------------------------------
  C     -9.948473   -1.812941    5.438624
  O     -9.656483   -1.904055    6.869065
  H     -8.898172   -2.436655    7.042660
  H    -10.795136   -1.169837    5.194730
  H     -9.039130   -1.454169    4.871001
  H    -10.203844   -2.769139    4.921275
  C    -10.552490   -1.297526    1.065318
  O     -9.786420   -0.144467    1.203859
  H    -10.338353    0.640395    1.205844
  H    -10.625634   -1.588218    0.057080
  H    -10.038204   -2.018390    1.649250
  H    -11.536169   -1.009857    1.446093

 Multiplicity           Mult            ....    1
 Number of Electrons    NEL             ....   18
 Basis Dimension        Dim             ....  172

ORBITAL ENERGIES
----------------

  NO   OCC          E(Eh)            E(eV)
   0   2.0000     -19.220811      -523.0249
   1   2.0000     -10.302412      -280.3429
   2   2.0000      -1.139065       -30.9955
   3   2.0000      -0.798249       -21.7214
   4   2.0000      -0.613814       -16.7027
   5   2.0000      -0.551496       -15.0070
   6   2.0000      -0.535850       -14.5812
   7   2.0000      -0.425462       -11.5774
   8   2.0000      -0.368706       -10.0330
   9   0.0000       0.085411         2.3241
  10   0.0000       0.113179         3.0798
  11   0.0000       0.153185         4.1684
  12   0.0000       0.177300         4.8246
  13   0.0000       0.183023         4.9803

MULLIKEN ATOMIC CHARGES
-----------------------
   0 C :    0.000702
   1 O :    0.000006
   2 H :    0.000000
   3 H :   -0.000169
   4 H :   -0.000638
   5 H :   -0.000512
   6 C :   -0.133213
   7 O :   -0.489382
   8 H :    0.313920
   9 H :    0.102647
  10 H :    0.115484
  11 H :    0.091155
Sum of atomic charges:   -0.0000000

LOEWDIN ATOMIC CHARGES
----------------------
   0 C :   -0.000494
   1 O :   -0.000007
   2 H :   -0.000001
   3 H :   -0.000090
   4 H :   -0.000312
   5 H :   -0.000288
   6 C :   -0.381083
   7 O :   -0.069663
   8 H :    0.165989
   9 H :    0.086343
  10 H :    0.101148
  11 H :    0.098457

  Mayer bond orders larger than 0.1
B(  6-C ,  7-O ) :   0.9911 B(  6-C ,  9-H ) :   0.9731 B(  6-C , 10-H ) :   0.9792
B(  6-C , 11-H ) :   0.9987 B(  7-O ,  8-H ) :   0.9008

Dispersion correction           -0.000206888
FINAL SINGLE POINT ENERGY      -115.730098917593

DIPOLE MOMENT
-------------
                                X             Y             Z
Electronic contribution:      1.03270       1.21010       0.12408
Nuclear contribution   :     -1.69895      -1.15695      -0.17907
                        -----------------------------------------
Total Dipole Moment    :     -0.66625       0.05316      -0.05498
                        -----------------------------------------
Magnitude (a.u.)       :      0.67063
Magnitude (Debye)      :      1.70459

Rotational constants in cm-1:     4.323354     0.878163     0.839239
Rotational constants in MHz : 129610.902631 26326.673334 25159.751723

                             ****ORCA TERMINATED NORMALLY****
TOTAL RUN TIME: 0 days 0 hours 1 minutes 3 seconds 50 msec
