                         Program Version 4.1.2  - RELEASE  -
|  1> #Run DFT-D3 single point of the dimer
|  2> ! wB97X-D3 def2-TZVP TIGHTSCF CHELPG PMODEL PAL8
|  3>
|  4> %base "17-21_DFT_AB"
|  5>
|  6> %scf
|  7> MaxIter 1000
|  8> end
|  9>
| 10> * xyz 0 1
| 11>   C                      -1.552654            -0.347999            4.263472
| 12>   O                      -0.675985            -0.786314            3.238730
| 13>   H                      -1.311521            -0.903148            2.507645
| 14>   H                      -1.893925            0.644904             3.934240
| 15>   H                      -2.420135            -0.936720            4.503697
| 16>   H                      -1.047543            -0.169033            5.200596
| 17>   C                      -3.794272            2.293692             8.882736
| 18>   O                      -4.806415            2.716572             7.958103
| 19>   H                      -5.271343            1.986556             7.505574
| 20>   H                      -3.395406            1.318723             8.520923
| 21>   H                      -3.000333            2.959490             8.972679
| 22>   H                      -4.124509            2.106691             9.882683
| 23> *
| 24>
| 25> #Run DFT-D3 single point of the molecule with dimer basis set
| 26> $new_job
| 27> %base "17-21_DFT_A"
| 28> ! wB97X-D3 def2-TZVP TIGHTSCF CHELPG PMODEL
| 29>
| 30> %scf
| 31> MaxIter 1000
| 32> end
| 33>
| 34> * xyz 0 1
| 35>   C                      -1.552654            -0.347999            4.263472
| 36>   O                      -0.675985            -0.786314            3.238730
| 37>   H                      -1.311521            -0.903148            2.507645
| 38>   H                      -1.893925            0.644904             3.934240
| 39>   H                      -2.420135            -0.936720            4.503697
| 40>   H                      -1.047543            -0.169033            5.200596
| 41>   C                    : -3.794272            2.293692             8.882736
| 42>   O                    : -4.806415            2.716572             7.958103
| 43>   H                    : -5.271343            1.986556             7.505574
| 44>   H                    : -3.395406            1.318723             8.520923
| 45>   H                    : -3.000333            2.959490             8.972679
| 46>   H                    : -4.124509            2.106691             9.882683
| 47> *
| 48>
| 49> #Run DFT-D3 single point of the particle with dimer basis set
| 50> $new_job
| 51> %base "17-21_DFT_B"
| 52> ! wB97X-D3 def2-TZVP TIGHTSCF CHELPG PMODEL
| 53>
| 54> %scf
| 55> MaxIter 1000
| 56> end
| 57>
| 58> * xyz 0 1
| 59>   C                    : -1.552654            -0.347999            4.263472
| 60>   O                    : -0.675985            -0.786314            3.238730
| 61>   H                    : -1.311521            -0.903148            2.507645
| 62>   H                    : -1.893925            0.644904             3.934240
| 63>   H                    : -2.420135            -0.936720            4.503697
| 64>   H                    : -1.047543            -0.169033            5.200596
| 65>   C                      -3.794272            2.293692             8.882736
| 66>   O                      -4.806415            2.716572             7.958103
| 67>   H                      -5.271343            1.986556             7.505574
| 68>   H                      -3.395406            1.318723             8.520923
| 69>   H                      -3.000333            2.959490             8.972679
| 70>   H                      -4.124509            2.106691             9.882683
| 71> *
| 72>
| 73>                          ****END OF INPUT****
 Total Charge           Charge          ....    0
 Multiplicity           Mult            ....    1
 Number of Electrons    NEL             ....   36
Dispersion correction           -0.000635893
FINAL SINGLE POINT ENERGY      -231.460478785513
Dispersion correction           -0.000224197
FINAL SINGLE POINT ENERGY      -115.730798721203

CARTESIAN COORDINATES (ANGSTROEM)
---------------------------------
  C     -1.552654   -0.347999    4.263472
  O     -0.675985   -0.786314    3.238730
  H     -1.311521   -0.903148    2.507645
  H     -1.893925    0.644904    3.934240
  H     -2.420135   -0.936720    4.503697
  H     -1.047543   -0.169033    5.200596
  C     -3.794272    2.293692    8.882736
  O     -4.806415    2.716572    7.958103
  H     -5.271343    1.986556    7.505574
  H     -3.395406    1.318723    8.520923
  H     -3.000333    2.959490    8.972679
  H     -4.124509    2.106691    9.882683

 Multiplicity           Mult            ....    1
 Number of Electrons    NEL             ....   18
 Basis Dimension        Dim             ....  172

ORBITAL ENERGIES
----------------

  NO   OCC          E(Eh)            E(eV)
   0   2.0000     -19.228554      -523.2356
   1   2.0000     -10.310193      -280.5546
   2   2.0000      -1.121933       -30.5293
   3   2.0000      -0.804072       -21.8799
   4   2.0000      -0.607072       -16.5193
   5   2.0000      -0.538030       -14.6405
   6   2.0000      -0.534855       -14.5541
   7   2.0000      -0.424158       -11.5419
   8   2.0000      -0.373084       -10.1521
   9   0.0000       0.082795         2.2530
  10   0.0000       0.111654         3.0383
  11   0.0000       0.148068         4.0291
  12   0.0000       0.167735         4.5643
  13   0.0000       0.196358         5.3432

MULLIKEN ATOMIC CHARGES
-----------------------
   0 C :    0.000037
   1 O :    0.000000
   2 H :   -0.000000
   3 H :   -0.000016
   4 H :   -0.000013
   5 H :   -0.000055
   6 C :   -0.143048
   7 O :   -0.497230
   8 H :    0.322670
   9 H :    0.093711
  10 H :    0.123069
  11 H :    0.100874
Sum of atomic charges:    0.0000000

LOEWDIN ATOMIC CHARGES
----------------------
   0 C :   -0.000020
   1 O :   -0.000000
   2 H :   -0.000000
   3 H :   -0.000005
   4 H :   -0.000003
   5 H :   -0.000025
   6 C :   -0.358045
   7 O :   -0.103339
   8 H :    0.176709
   9 H :    0.101324
  10 H :    0.093265
  11 H :    0.090139

  Mayer bond orders larger than 0.1
B(  6-C ,  7-O ) :   1.0004 B(  6-C ,  9-H ) :   0.9920 B(  6-C , 10-H ) :   0.9747
B(  6-C , 11-H ) :   0.9722 B(  7-O ,  8-H ) :   0.8909

Dispersion correction           -0.000262525
FINAL SINGLE POINT ENERGY      -115.729652164155

DIPOLE MOMENT
-------------
                                X             Y             Z
Electronic contribution:     -1.24569       0.79271      -1.09456
Nuclear contribution   :      1.38535      -1.44769       1.19368
                        -----------------------------------------
Total Dipole Moment    :      0.13966      -0.65497       0.09913
                        -----------------------------------------
Magnitude (a.u.)       :      0.67699
Magnitude (Debye)      :      1.72078

Rotational constants in cm-1:     4.559677     0.803013     0.772714
Rotational constants in MHz : 136695.674578 24073.716345 23165.375079

                             ****ORCA TERMINATED NORMALLY****
TOTAL RUN TIME: 0 days 0 hours 0 minutes 57 seconds 224 msec
