                         Program Version 4.1.2  - RELEASE  -
|  1> #Run DFT-D3 single point of the dimer
|  2> ! wB97X-D3 def2-TZVP TIGHTSCF CHELPG PMODEL PAL8
|  3>
|  4> %base "9-26_DFT_AB"
|  5>
|  6> %scf
|  7> MaxIter 1000
|  8> end
|  9>
| 10> * xyz 0 1
| 11>   C                      -2.236262            -7.219065            -3.038028
| 12>   O                      -2.089203            -8.488530            -3.702297
| 13>   H                      -2.620605            -8.479153            -4.503310
| 14>   H                      -1.906942            -6.405743            -3.624474
| 15>   H                      -3.225869            -6.961767            -2.730361
| 16>   H                      -1.644495            -7.133655            -2.155844
| 17>   C                      -5.982742            -6.095501            1.316982
| 18>   O                      -6.760569            -4.916011            1.577320
| 19>   H                      -6.135223            -4.206989            1.780978
| 20>   H                      -5.438071            -6.346295            2.215708
| 21>   H                      -6.528076            -6.986041            1.068226
| 22>   H                      -5.230619            -5.928635            0.561390
| 23> *
| 24>
| 25> #Run DFT-D3 single point of the molecule with dimer basis set
| 26> $new_job
| 27> %base "9-26_DFT_A"
| 28> ! wB97X-D3 def2-TZVP TIGHTSCF CHELPG PMODEL
| 29>
| 30> %scf
| 31> MaxIter 1000
| 32> end
| 33>
| 34> * xyz 0 1
| 35>   C                      -2.236262            -7.219065            -3.038028
| 36>   O                      -2.089203            -8.488530            -3.702297
| 37>   H                      -2.620605            -8.479153            -4.503310
| 38>   H                      -1.906942            -6.405743            -3.624474
| 39>   H                      -3.225869            -6.961767            -2.730361
| 40>   H                      -1.644495            -7.133655            -2.155844
| 41>   C                    : -5.982742            -6.095501            1.316982
| 42>   O                    : -6.760569            -4.916011            1.577320
| 43>   H                    : -6.135223            -4.206989            1.780978
| 44>   H                    : -5.438071            -6.346295            2.215708
| 45>   H                    : -6.528076            -6.986041            1.068226
| 46>   H                    : -5.230619            -5.928635            0.561390
| 47> *
| 48>
| 49> #Run DFT-D3 single point of the particle with dimer basis set
| 50> $new_job
| 51> %base "9-26_DFT_B"
| 52> ! wB97X-D3 def2-TZVP TIGHTSCF CHELPG PMODEL
| 53>
| 54> %scf
| 55> MaxIter 1000
| 56> end
| 57>
| 58> * xyz 0 1
| 59>   C                    : -2.236262            -7.219065            -3.038028
| 60>   O                    : -2.089203            -8.488530            -3.702297
| 61>   H                    : -2.620605            -8.479153            -4.503310
| 62>   H                    : -1.906942            -6.405743            -3.624474
| 63>   H                    : -3.225869            -6.961767            -2.730361
| 64>   H                    : -1.644495            -7.133655            -2.155844
| 65>   C                      -5.982742            -6.095501            1.316982
| 66>   O                      -6.760569            -4.916011            1.577320
| 67>   H                      -6.135223            -4.206989            1.780978
| 68>   H                      -5.438071            -6.346295            2.215708
| 69>   H                      -6.528076            -6.986041            1.068226
| 70>   H                      -5.230619            -5.928635            0.561390
| 71> *
| 72>
| 73>                          ****END OF INPUT****
 Total Charge           Charge          ....    0
 Multiplicity           Mult            ....    1
 Number of Electrons    NEL             ....   36
Dispersion correction           -0.000623586
FINAL SINGLE POINT ENERGY      -231.465209061486
Dispersion correction           -0.000258077
FINAL SINGLE POINT ENERGY      -115.732150151961

CARTESIAN COORDINATES (ANGSTROEM)
---------------------------------
  C     -2.236262   -7.219065   -3.038028
  O     -2.089203   -8.488530   -3.702297
  H     -2.620605   -8.479153   -4.503310
  H     -1.906942   -6.405743   -3.624474
  H     -3.225869   -6.961767   -2.730361
  H     -1.644495   -7.133655   -2.155844
  C     -5.982742   -6.095501    1.316982
  O     -6.760569   -4.916011    1.577320
  H     -6.135223   -4.206989    1.780978
  H     -5.438071   -6.346295    2.215708
  H     -6.528076   -6.986041    1.068226
  H     -5.230619   -5.928635    0.561390

 Multiplicity           Mult            ....    1
 Number of Electrons    NEL             ....   18
 Basis Dimension        Dim             ....  172

ORBITAL ENERGIES
----------------

  NO   OCC          E(Eh)            E(eV)
   0   2.0000     -19.230268      -523.2822
   1   2.0000     -10.309917      -280.5471
   2   2.0000      -1.128070       -30.6964
   3   2.0000      -0.800340       -21.7784
   4   2.0000      -0.606002       -16.4901
   5   2.0000      -0.538376       -14.6499
   6   2.0000      -0.532563       -14.4918
   7   2.0000      -0.435952       -11.8629
   8   2.0000      -0.372306       -10.1310
   9   0.0000       0.082865         2.2549
  10   0.0000       0.114634         3.1194
  11   0.0000       0.144034         3.9194
  12   0.0000       0.164381         4.4730
  13   0.0000       0.187722         5.1082

MULLIKEN ATOMIC CHARGES
-----------------------
   0 C :    0.000087
   1 O :   -0.000001
   2 H :   -0.000001
   3 H :   -0.000008
   4 H :   -0.000175
   5 H :   -0.000018
   6 C :   -0.172566
   7 O :   -0.479865
   8 H :    0.315354
   9 H :    0.105131
  10 H :    0.126115
  11 H :    0.105947
Sum of atomic charges:   -0.0000000

LOEWDIN ATOMIC CHARGES
----------------------
   0 C :   -0.000037
   1 O :   -0.000001
   2 H :   -0.000000
   3 H :   -0.000000
   4 H :   -0.000103
   5 H :   -0.000005
   6 C :   -0.366142
   7 O :   -0.098046
   8 H :    0.172996
   9 H :    0.093876
  10 H :    0.104979
  11 H :    0.092483

  Mayer bond orders larger than 0.1
B(  6-C ,  7-O ) :   0.9907 B(  6-C ,  9-H ) :   0.9829 B(  6-C , 10-H ) :   0.9708
B(  6-C , 11-H ) :   0.9779 B(  7-O ,  8-H ) :   0.8986

Dispersion correction           -0.000237401
FINAL SINGLE POINT ENERGY      -115.732938803728

DIPOLE MOMENT
-------------
                                X             Y             Z
Electronic contribution:     -1.22182       1.39494       0.21841
Nuclear contribution   :      1.94267      -1.45216      -0.19214
                        -----------------------------------------
Total Dipole Moment    :      0.72086      -0.05722       0.02626
                        -----------------------------------------
Magnitude (a.u.)       :      0.72360
Magnitude (Debye)      :      1.83924

Rotational constants in cm-1:     4.461782     0.809177     0.778776
Rotational constants in MHz : 133760.859875 24258.516676 23347.125657

                             ****ORCA TERMINATED NORMALLY****
TOTAL RUN TIME: 0 days 0 hours 0 minutes 35 seconds 985 msec
