                         Program Version 4.1.2  - RELEASE  -
|  1> #Run DFT-D3 single point of the dimer
|  2> ! wB97X-D3 def2-TZVP TIGHTSCF CHELPG PMODEL PAL8
|  3>
|  4> %base "17-29_DFT_AB"
|  5>
|  6> %scf
|  7> MaxIter 1000
|  8> end
|  9>
| 10> * xyz 0 1
| 11>   C                      -1.552654            -0.347999            4.263472
| 12>   O                      -0.675985            -0.786314            3.238730
| 13>   H                      -1.311521            -0.903148            2.507645
| 14>   H                      -1.893925            0.644904             3.934240
| 15>   H                      -2.420135            -0.936720            4.503697
| 16>   H                      -1.047543            -0.169033            5.200596
| 17>   C                      -2.644680            -2.523456            7.864719
| 18>   O                      -1.227631            -2.639521            7.816541
| 19>   H                      -0.859863            -1.758251            7.755313
| 20>   H                      -3.047060            -2.468535            8.896333
| 21>   H                      -2.898018            -1.501371            7.539947
| 22>   H                      -3.096303            -3.360012            7.319345
| 23> *
| 24>
| 25> #Run DFT-D3 single point of the molecule with dimer basis set
| 26> $new_job
| 27> %base "17-29_DFT_A"
| 28> ! wB97X-D3 def2-TZVP TIGHTSCF CHELPG PMODEL
| 29>
| 30> %scf
| 31> MaxIter 1000
| 32> end
| 33>
| 34> * xyz 0 1
| 35>   C                      -1.552654            -0.347999            4.263472
| 36>   O                      -0.675985            -0.786314            3.238730
| 37>   H                      -1.311521            -0.903148            2.507645
| 38>   H                      -1.893925            0.644904             3.934240
| 39>   H                      -2.420135            -0.936720            4.503697
| 40>   H                      -1.047543            -0.169033            5.200596
| 41>   C                    : -2.644680            -2.523456            7.864719
| 42>   O                    : -1.227631            -2.639521            7.816541
| 43>   H                    : -0.859863            -1.758251            7.755313
| 44>   H                    : -3.047060            -2.468535            8.896333
| 45>   H                    : -2.898018            -1.501371            7.539947
| 46>   H                    : -3.096303            -3.360012            7.319345
| 47> *
| 48>
| 49> #Run DFT-D3 single point of the particle with dimer basis set
| 50> $new_job
| 51> %base "17-29_DFT_B"
| 52> ! wB97X-D3 def2-TZVP TIGHTSCF CHELPG PMODEL
| 53>
| 54> %scf
| 55> MaxIter 1000
| 56> end
| 57>
| 58> * xyz 0 1
| 59>   C                    : -1.552654            -0.347999            4.263472
| 60>   O                    : -0.675985            -0.786314            3.238730
| 61>   H                    : -1.311521            -0.903148            2.507645
| 62>   H                    : -1.893925            0.644904             3.934240
| 63>   H                    : -2.420135            -0.936720            4.503697
| 64>   H                    : -1.047543            -0.169033            5.200596
| 65>   C                      -2.644680            -2.523456            7.864719
| 66>   O                      -1.227631            -2.639521            7.816541
| 67>   H                      -0.859863            -1.758251            7.755313
| 68>   H                      -3.047060            -2.468535            8.896333
| 69>   H                      -2.898018            -1.501371            7.539947
| 70>   H                      -3.096303            -3.360012            7.319345
| 71> *
| 72>
| 73>                          ****END OF INPUT****
 Total Charge           Charge          ....    0
 Multiplicity           Mult            ....    1
 Number of Electrons    NEL             ....   36
Dispersion correction           -0.001337942
FINAL SINGLE POINT ENERGY      -231.462512022017
Dispersion correction           -0.000224197
FINAL SINGLE POINT ENERGY      -115.730827498862

CARTESIAN COORDINATES (ANGSTROEM)
---------------------------------
  C     -1.552654   -0.347999    4.263472
  O     -0.675985   -0.786314    3.238730
  H     -1.311521   -0.903148    2.507645
  H     -1.893925    0.644904    3.934240
  H     -2.420135   -0.936720    4.503697
  H     -1.047543   -0.169033    5.200596
  C     -2.644680   -2.523456    7.864719
  O     -1.227631   -2.639521    7.816541
  H     -0.859863   -1.758251    7.755313
  H     -3.047060   -2.468535    8.896333
  H     -2.898018   -1.501371    7.539947
  H     -3.096303   -3.360012    7.319345

 Multiplicity           Mult            ....    1
 Number of Electrons    NEL             ....   18
 Basis Dimension        Dim             ....  172

ORBITAL ENERGIES
----------------

  NO   OCC          E(Eh)            E(eV)
   0   2.0000     -19.228841      -523.2434
   1   2.0000     -10.317430      -280.7515
   2   2.0000      -1.134438       -30.8696
   3   2.0000      -0.793806       -21.6006
   4   2.0000      -0.614785       -16.7292
   5   2.0000      -0.535977       -14.5847
   6   2.0000      -0.526940       -14.3388
   7   2.0000      -0.435823       -11.8594
   8   2.0000      -0.369829       -10.0636
   9   0.0000       0.078969         2.1489
  10   0.0000       0.117300         3.1919
  11   0.0000       0.150197         4.0871
  12   0.0000       0.172541         4.6951
  13   0.0000       0.198815         5.4100

MULLIKEN ATOMIC CHARGES
-----------------------
   0 C :   -0.000162
   1 O :    0.000101
   2 H :    0.000011
   3 H :   -0.000031
   4 H :    0.000248
   5 H :   -0.002528
   6 C :   -0.164261
   7 O :   -0.471285
   8 H :    0.314978
   9 H :    0.100427
  10 H :    0.098123
  11 H :    0.124378
Sum of atomic charges:    0.0000000

LOEWDIN ATOMIC CHARGES
----------------------
   0 C :   -0.001539
   1 O :   -0.000014
   2 H :   -0.000001
   3 H :   -0.000038
   4 H :   -0.000552
   5 H :   -0.001069
   6 C :   -0.380858
   7 O :   -0.083815
   8 H :    0.165553
   9 H :    0.097016
  10 H :    0.097734
  11 H :    0.107583

  Mayer bond orders larger than 0.1
B(  6-C ,  7-O ) :   1.0015 B(  6-C ,  9-H ) :   0.9687 B(  6-C , 10-H ) :   0.9903
B(  6-C , 11-H ) :   0.9736 B(  7-O ,  8-H ) :   0.9025

Dispersion correction           -0.000242969
FINAL SINGLE POINT ENERGY      -115.731398718049

DIPOLE MOMENT
-------------
                                X             Y             Z
Electronic contribution:      1.76049      -0.41490      -0.14743
Nuclear contribution   :     -2.08944       1.04091       0.13259
                        -----------------------------------------
Total Dipole Moment    :     -0.32895       0.62601      -0.01484
                        -----------------------------------------
Magnitude (a.u.)       :      0.70733
Magnitude (Debye)      :      1.79790

Rotational constants in cm-1:     4.218301     0.832030     0.789413
Rotational constants in MHz : 126461.477697 24943.641091 23666.004994

                             ****ORCA TERMINATED NORMALLY****
TOTAL RUN TIME: 0 days 0 hours 1 minutes 9 seconds 136 msec
