                         Program Version 4.1.2  - RELEASE  -
|  1> #Run DFT-D3 single point of the dimer
|  2> ! wB97X-D3 def2-TZVP TIGHTSCF CHELPG PMODEL PAL8
|  3>
|  4> %base "4-45_DFT_AB"
|  5>
|  6> %scf
|  7> MaxIter 1000
|  8> end
|  9>
| 10> * xyz 0 1
| 11>   C                      -5.908820            9.914225             2.928473
| 12>   O                      -5.230822            9.218383             3.952010
| 13>   H                      -5.789429            8.456262             4.113283
| 14>   H                      -5.594980            9.513840             1.948550
| 15>   H                      -6.928582            9.598080             2.978379
| 16>   H                      -5.841982            11.018729            3.005331
| 17>   C                      -4.882683            6.632485             0.494128
| 18>   O                      -3.610325            6.722490             -0.101202
| 19>   H                      -3.030682            7.278502             0.443916
| 20>   H                      -5.590360            7.436227             0.262674
| 21>   H                      -5.379244            5.714653             0.160698
| 22>   H                      -4.821567            6.530011             1.589619
| 23> *
| 24>
| 25> #Run DFT-D3 single point of the molecule with dimer basis set
| 26> $new_job
| 27> %base "4-45_DFT_A"
| 28> ! wB97X-D3 def2-TZVP TIGHTSCF CHELPG PMODEL
| 29>
| 30> %scf
| 31> MaxIter 1000
| 32> end
| 33>
| 34> * xyz 0 1
| 35>   C                      -5.908820            9.914225             2.928473
| 36>   O                      -5.230822            9.218383             3.952010
| 37>   H                      -5.789429            8.456262             4.113283
| 38>   H                      -5.594980            9.513840             1.948550
| 39>   H                      -6.928582            9.598080             2.978379
| 40>   H                      -5.841982            11.018729            3.005331
| 41>   C                    : -4.882683            6.632485             0.494128
| 42>   O                    : -3.610325            6.722490             -0.101202
| 43>   H                    : -3.030682            7.278502             0.443916
| 44>   H                    : -5.590360            7.436227             0.262674
| 45>   H                    : -5.379244            5.714653             0.160698
| 46>   H                    : -4.821567            6.530011             1.589619
| 47> *
| 48>
| 49> #Run DFT-D3 single point of the particle with dimer basis set
| 50> $new_job
| 51> %base "4-45_DFT_B"
| 52> ! wB97X-D3 def2-TZVP TIGHTSCF CHELPG PMODEL
| 53>
| 54> %scf
| 55> MaxIter 1000
| 56> end
| 57>
| 58> * xyz 0 1
| 59>   C                    : -5.908820            9.914225             2.928473
| 60>   O                    : -5.230822            9.218383             3.952010
| 61>   H                    : -5.789429            8.456262             4.113283
| 62>   H                    : -5.594980            9.513840             1.948550
| 63>   H                    : -6.928582            9.598080             2.978379
| 64>   H                    : -5.841982            11.018729            3.005331
| 65>   C                      -4.882683            6.632485             0.494128
| 66>   O                      -3.610325            6.722490             -0.101202
| 67>   H                      -3.030682            7.278502             0.443916
| 68>   H                      -5.590360            7.436227             0.262674
| 69>   H                      -5.379244            5.714653             0.160698
| 70>   H                      -4.821567            6.530011             1.589619
| 71> *
| 72>
| 73>                          ****END OF INPUT****
 Total Charge           Charge          ....    0
 Multiplicity           Mult            ....    1
 Number of Electrons    NEL             ....   36
Dispersion correction           -0.001449654
FINAL SINGLE POINT ENERGY      -231.467828247804
Dispersion correction           -0.000218551
FINAL SINGLE POINT ENERGY      -115.730847936277

CARTESIAN COORDINATES (ANGSTROEM)
---------------------------------
  C     -5.908820    9.914225    2.928473
  O     -5.230822    9.218383    3.952010
  H     -5.789429    8.456262    4.113283
  H     -5.594980    9.513840    1.948550
  H     -6.928582    9.598080    2.978379
  H     -5.841982   11.018729    3.005331
  C     -4.882683    6.632485    0.494128
  O     -3.610325    6.722490   -0.101202
  H     -3.030682    7.278502    0.443916
  H     -5.590360    7.436227    0.262674
  H     -5.379244    5.714653    0.160698
  H     -4.821567    6.530011    1.589619

 Multiplicity           Mult            ....    1
 Number of Electrons    NEL             ....   18
 Basis Dimension        Dim             ....  172

ORBITAL ENERGIES
----------------

  NO   OCC          E(Eh)            E(eV)
   0   2.0000     -19.232992      -523.3563
   1   2.0000     -10.313508      -280.6448
   2   2.0000      -1.135853       -30.9081
   3   2.0000      -0.795608       -21.6496
   4   2.0000      -0.612468       -16.6661
   5   2.0000      -0.540316       -14.7027
   6   2.0000      -0.527378       -14.3507
   7   2.0000      -0.429212       -11.6794
   8   2.0000      -0.375290       -10.2122
   9   0.0000       0.079554         2.1648
  10   0.0000       0.118802         3.2328
  11   0.0000       0.150359         4.0915
  12   0.0000       0.159544         4.3414
  13   0.0000       0.189591         5.1590

MULLIKEN ATOMIC CHARGES
-----------------------
   0 C :   -0.002225
   1 O :    0.000190
   2 H :   -0.000233
   3 H :    0.001776
   4 H :    0.000340
   5 H :   -0.000047
   6 C :   -0.169965
   7 O :   -0.473656
   8 H :    0.318154
   9 H :    0.103706
  10 H :    0.118462
  11 H :    0.103499
Sum of atomic charges:   -0.0000000

LOEWDIN ATOMIC CHARGES
----------------------
   0 C :   -0.001443
   1 O :   -0.000129
   2 H :   -0.000435
   3 H :   -0.002257
   4 H :   -0.000059
   5 H :   -0.000010
   6 C :   -0.396082
   7 O :   -0.075033
   8 H :    0.175883
   9 H :    0.094647
  10 H :    0.107787
  11 H :    0.097132

  Mayer bond orders larger than 0.1
B(  6-C ,  7-O ) :   1.0086 B(  6-C ,  9-H ) :   0.9678 B(  6-C , 10-H ) :   0.9750
B(  6-C , 11-H ) :   0.9814 B(  7-O ,  8-H ) :   0.8957

Dispersion correction           -0.000259273
FINAL SINGLE POINT ENERGY      -115.735721608460

DIPOLE MOMENT
-------------
                                X             Y             Z
Electronic contribution:      1.66932       0.11326      -0.91609
Nuclear contribution   :     -1.79366       0.18402       1.50487
                        -----------------------------------------
Total Dipole Moment    :     -0.12434       0.29729       0.58877
                        -----------------------------------------
Magnitude (a.u.)       :      0.67119
Magnitude (Debye)      :      1.70602

Rotational constants in cm-1:     4.375256     0.824961     0.797829
Rotational constants in MHz : 131166.863531 24731.722232 23918.305538

                             ****ORCA TERMINATED NORMALLY****
TOTAL RUN TIME: 0 days 0 hours 1 minutes 26 seconds 44 msec
