                         Program Version 4.1.2  - RELEASE  -
|  1> #Run DFT-D3 single point of the dimer
|  2> ! wB97X-D3 def2-TZVP TIGHTSCF CHELPG PMODEL PAL8
|  3>
|  4> %base "1-39_DFT_AB"
|  5>
|  6> %scf
|  7> MaxIter 1000
|  8> end
|  9>
| 10> * xyz 0 1
| 11>   C                      -2.553089            -9.341690            7.829840
| 12>   O                      -3.202982            -9.262673            6.528423
| 13>   H                      -3.995979            -9.807772            6.501171
| 14>   H                      -1.675079            -8.720392            7.907150
| 15>   H                      -3.152298            -8.937749            8.646217
| 16>   H                      -2.217675            -10.345372           8.116701
| 17>   C                      -5.018804            -11.394211           4.335101
| 18>   O                      -4.125954            -10.858784           5.383765
| 19>   H                      -3.702437            -10.083851           5.035189
| 20>   H                      -5.527582            -10.505104           3.828122
| 21>   H                      -4.441818            -11.900742           3.519998
| 22>   H                      -5.719270            -12.198359           4.600835
| 23> *
| 24>
| 25> #Run DFT-D3 single point of the molecule with dimer basis set
| 26> $new_job
| 27> %base "1-39_DFT_A"
| 28> ! wB97X-D3 def2-TZVP TIGHTSCF CHELPG PMODEL
| 29>
| 30> %scf
| 31> MaxIter 1000
| 32> end
| 33>
| 34> * xyz 0 1
| 35>   C                      -2.553089            -9.341690            7.829840
| 36>   O                      -3.202982            -9.262673            6.528423
| 37>   H                      -3.995979            -9.807772            6.501171
| 38>   H                      -1.675079            -8.720392            7.907150
| 39>   H                      -3.152298            -8.937749            8.646217
| 40>   H                      -2.217675            -10.345372           8.116701
| 41>   C                    : -5.018804            -11.394211           4.335101
| 42>   O                    : -4.125954            -10.858784           5.383765
| 43>   H                    : -3.702437            -10.083851           5.035189
| 44>   H                    : -5.527582            -10.505104           3.828122
| 45>   H                    : -4.441818            -11.900742           3.519998
| 46>   H                    : -5.719270            -12.198359           4.600835
| 47> *
| 48>
| 49> #Run DFT-D3 single point of the particle with dimer basis set
| 50> $new_job
| 51> %base "1-39_DFT_B"
| 52> ! wB97X-D3 def2-TZVP TIGHTSCF CHELPG PMODEL
| 53>
| 54> %scf
| 55> MaxIter 1000
| 56> end
| 57>
| 58> * xyz 0 1
| 59>   C                    : -2.553089            -9.341690            7.829840
| 60>   O                    : -3.202982            -9.262673            6.528423
| 61>   H                    : -3.995979            -9.807772            6.501171
| 62>   H                    : -1.675079            -8.720392            7.907150
| 63>   H                    : -3.152298            -8.937749            8.646217
| 64>   H                    : -2.217675            -10.345372           8.116701
| 65>   C                      -5.018804            -11.394211           4.335101
| 66>   O                      -4.125954            -10.858784           5.383765
| 67>   H                      -3.702437            -10.083851           5.035189
| 68>   H                      -5.527582            -10.505104           3.828122
| 69>   H                      -4.441818            -11.900742           3.519998
| 70>   H                      -5.719270            -12.198359           4.600835
| 71> *
| 72>
| 73>                          ****END OF INPUT****
 Total Charge           Charge          ....    0
 Multiplicity           Mult            ....    1
 Number of Electrons    NEL             ....   36
Dispersion correction           -0.001610129
FINAL SINGLE POINT ENERGY      -231.442641476478
Dispersion correction           -0.000288248
FINAL SINGLE POINT ENERGY      -115.733201081334

CARTESIAN COORDINATES (ANGSTROEM)
---------------------------------
  C     -2.553089   -9.341690    7.829840
  O     -3.202982   -9.262673    6.528423
  H     -3.995979   -9.807772    6.501171
  H     -1.675079   -8.720392    7.907150
  H     -3.152298   -8.937749    8.646217
  H     -2.217675  -10.345372    8.116701
  C     -5.018804  -11.394211    4.335101
  O     -4.125954  -10.858784    5.383765
  H     -3.702437  -10.083851    5.035189
  H     -5.527582  -10.505104    3.828122
  H     -4.441818  -11.900742    3.519998
  H     -5.719270  -12.198359    4.600835

 Multiplicity           Mult            ....    1
 Number of Electrons    NEL             ....   18
 Basis Dimension        Dim             ....  172

ORBITAL ENERGIES
----------------

  NO   OCC          E(Eh)            E(eV)
   0   2.0000     -19.233302      -523.3648
   1   2.0000     -10.329928      -281.0916
   2   2.0000      -1.122666       -30.5493
   3   2.0000      -0.795591       -21.6491
   4   2.0000      -0.600198       -16.3322
   5   2.0000      -0.538113       -14.6428
   6   2.0000      -0.518463       -14.1081
   7   2.0000      -0.436279       -11.8718
   8   2.0000      -0.374285       -10.1848
   9   0.0000       0.093501         2.5443
  10   0.0000       0.122823         3.3422
  11   0.0000       0.145702         3.9648
  12   0.0000       0.193839         5.2746
  13   0.0000       0.195203         5.3117

MULLIKEN ATOMIC CHARGES
-----------------------
   0 C :   -0.000091
   1 O :   -0.001759
   2 H :   -0.019925
   3 H :    0.000018
   4 H :   -0.000153
   5 H :   -0.001384
   6 C :   -0.203637
   7 O :   -0.447117
   8 H :    0.315675
   9 H :    0.109941
  10 H :    0.109693
  11 H :    0.138739
Sum of atomic charges:    0.0000000

LOEWDIN ATOMIC CHARGES
----------------------
   0 C :   -0.005137
   1 O :   -0.053588
   2 H :   -0.094746
   3 H :   -0.000076
   4 H :   -0.000077
   5 H :   -0.000686
   6 C :   -0.350568
   7 O :   -0.002999
   8 H :    0.188889
   9 H :    0.107506
  10 H :    0.100920
  11 H :    0.110562

  Mayer bond orders larger than 0.1
B(  6-C ,  7-O ) :   0.9886 B(  6-C ,  9-H ) :   0.9804 B(  6-C , 10-H ) :   0.9681
B(  6-C , 11-H ) :   0.9695 B(  7-O ,  8-H ) :   0.8984

Dispersion correction           -0.000282966
FINAL SINGLE POINT ENERGY      -115.726840117588

DIPOLE MOMENT
-------------
                                X             Y             Z
Electronic contribution:      0.99163       0.49757       1.55998
Nuclear contribution   :     -1.10566      -0.27081      -2.24921
                        -----------------------------------------
Total Dipole Moment    :     -0.11403       0.22676      -0.68922
                        -----------------------------------------
Magnitude (a.u.)       :      0.73447
Magnitude (Debye)      :      1.86688

Rotational constants in cm-1:     4.248413     0.764634     0.733441
Rotational constants in MHz : 127364.231492 22923.140987 21988.020872

                             ****ORCA TERMINATED NORMALLY****
TOTAL RUN TIME: 0 days 0 hours 6 minutes 17 seconds 348 msec
