                         Program Version 4.1.2  - RELEASE  -
|  1> #Run DFT-D3 single point of the dimer
|  2> ! wB97X-D3 def2-TZVP TIGHTSCF CHELPG PMODEL PAL8
|  3>
|  4> %base "5-78_DFT_AB"
|  5>
|  6> %scf
|  7> MaxIter 1000
|  8> end
|  9>
| 10> * xyz 0 1
| 11>   C                      -1.179900            -8.638037            -6.948018
| 12>   O                      -1.535437            -7.599694            -7.826611
| 13>   H                      -1.999492            -7.996814            -8.546439
| 14>   H                      -1.140443            -8.346784            -5.893805
| 15>   H                      -1.993029            -9.398908            -7.027883
| 16>   H                      -0.248926            -9.165004            -7.282007
| 17>   C                      2.770674             -11.001014           -7.496947
| 18>   O                      1.885739             -10.686951           -6.429571
| 19>   H                      1.847713             -11.404450           -5.817277
| 20>   H                      2.872721             -12.018237           -7.737227
| 21>   H                      2.463922             -10.638104           -8.449007
| 22>   H                      3.724667             -10.506499           -7.250203
| 23> *
| 24>
| 25> #Run DFT-D3 single point of the molecule with dimer basis set
| 26> $new_job
| 27> %base "5-78_DFT_A"
| 28> ! wB97X-D3 def2-TZVP TIGHTSCF CHELPG PMODEL
| 29>
| 30> %scf
| 31> MaxIter 1000
| 32> end
| 33>
| 34> * xyz 0 1
| 35>   C                      -1.179900            -8.638037            -6.948018
| 36>   O                      -1.535437            -7.599694            -7.826611
| 37>   H                      -1.999492            -7.996814            -8.546439
| 38>   H                      -1.140443            -8.346784            -5.893805
| 39>   H                      -1.993029            -9.398908            -7.027883
| 40>   H                      -0.248926            -9.165004            -7.282007
| 41>   C                    : 2.770674             -11.001014           -7.496947
| 42>   O                    : 1.885739             -10.686951           -6.429571
| 43>   H                    : 1.847713             -11.404450           -5.817277
| 44>   H                    : 2.872721             -12.018237           -7.737227
| 45>   H                    : 2.463922             -10.638104           -8.449007
| 46>   H                    : 3.724667             -10.506499           -7.250203
| 47> *
| 48>
| 49> #Run DFT-D3 single point of the particle with dimer basis set
| 50> $new_job
| 51> %base "5-78_DFT_B"
| 52> ! wB97X-D3 def2-TZVP TIGHTSCF CHELPG PMODEL
| 53>
| 54> %scf
| 55> MaxIter 1000
| 56> end
| 57>
| 58> * xyz 0 1
| 59>   C                    : -1.179900            -8.638037            -6.948018
| 60>   O                    : -1.535437            -7.599694            -7.826611
| 61>   H                    : -1.999492            -7.996814            -8.546439
| 62>   H                    : -1.140443            -8.346784            -5.893805
| 63>   H                    : -1.993029            -9.398908            -7.027883
| 64>   H                    : -0.248926            -9.165004            -7.282007
| 65>   C                      2.770674             -11.001014           -7.496947
| 66>   O                      1.885739             -10.686951           -6.429571
| 67>   H                      1.847713             -11.404450           -5.817277
| 68>   H                      2.872721             -12.018237           -7.737227
| 69>   H                      2.463922             -10.638104           -8.449007
| 70>   H                      3.724667             -10.506499           -7.250203
| 71> *
| 72>
| 73>                          ****END OF INPUT****
 Total Charge           Charge          ....    0
 Multiplicity           Mult            ....    1
 Number of Electrons    NEL             ....   36
Dispersion correction           -0.001255940
FINAL SINGLE POINT ENERGY      -231.463774566734
Dispersion correction           -0.000232871
FINAL SINGLE POINT ENERGY      -115.732637657002

CARTESIAN COORDINATES (ANGSTROEM)
---------------------------------
  C     -1.179900   -8.638037   -6.948018
  O     -1.535437   -7.599694   -7.826611
  H     -1.999492   -7.996814   -8.546439
  H     -1.140443   -8.346784   -5.893805
  H     -1.993029   -9.398908   -7.027883
  H     -0.248926   -9.165004   -7.282007
  C      2.770674  -11.001014   -7.496947
  O      1.885739  -10.686951   -6.429571
  H      1.847713  -11.404450   -5.817277
  H      2.872721  -12.018237   -7.737227
  H      2.463922  -10.638104   -8.449007
  H      3.724667  -10.506499   -7.250203

 Multiplicity           Mult            ....    1
 Number of Electrons    NEL             ....   18
 Basis Dimension        Dim             ....  172

ORBITAL ENERGIES
----------------

  NO   OCC          E(Eh)            E(eV)
   0   2.0000     -19.228114      -523.2236
   1   2.0000     -10.306694      -280.4594
   2   2.0000      -1.135286       -30.8927
   3   2.0000      -0.805670       -21.9234
   4   2.0000      -0.616424       -16.7737
   5   2.0000      -0.544565       -14.8184
   6   2.0000      -0.526365       -14.3231
   7   2.0000      -0.432075       -11.7574
   8   2.0000      -0.374120       -10.1803
   9   0.0000       0.098826         2.6892
  10   0.0000       0.122413         3.3310
  11   0.0000       0.152061         4.1378
  12   0.0000       0.181632         4.9425
  13   0.0000       0.194915         5.3039

MULLIKEN ATOMIC CHARGES
-----------------------
   0 C :   -0.000531
   1 O :   -0.000024
   2 H :   -0.000006
   3 H :   -0.000338
   4 H :   -0.000127
   5 H :   -0.003893
   6 C :   -0.158649
   7 O :   -0.474001
   8 H :    0.312329
   9 H :    0.109649
  10 H :    0.111570
  11 H :    0.104019
Sum of atomic charges:    0.0000000

LOEWDIN ATOMIC CHARGES
----------------------
   0 C :   -0.003969
   1 O :   -0.000029
   2 H :   -0.000004
   3 H :   -0.000197
   4 H :   -0.000076
   5 H :   -0.006484
   6 C :   -0.371782
   7 O :   -0.066306
   8 H :    0.157550
   9 H :    0.089070
  10 H :    0.099411
  11 H :    0.102817

  Mayer bond orders larger than 0.1
B(  6-C ,  7-O ) :   1.0005 B(  6-C ,  9-H ) :   0.9740 B(  6-C , 10-H ) :   0.9738
B(  6-C , 11-H ) :   0.9854 B(  7-O ,  8-H ) :   0.9016

Dispersion correction           -0.000250237
FINAL SINGLE POINT ENERGY      -115.729894051465

DIPOLE MOMENT
-------------
                                X             Y             Z
Electronic contribution:     -1.18392       0.42049       1.32674
Nuclear contribution   :      1.50927      -1.04782      -1.39043
                        -----------------------------------------
Total Dipole Moment    :      0.32535      -0.62733      -0.06369
                        -----------------------------------------
Magnitude (a.u.)       :      0.70954
Magnitude (Debye)      :      1.80351

Rotational constants in cm-1:     4.579498     0.815045     0.798277
Rotational constants in MHz : 137289.887917 24434.442209 23931.746004

                             ****ORCA TERMINATED NORMALLY****
TOTAL RUN TIME: 0 days 0 hours 1 minutes 3 seconds 945 msec
