                         Program Version 4.1.2  - RELEASE  -
|  1> #Run DFT-D3 single point of the dimer
|  2> ! wB97X-D3 def2-TZVP TIGHTSCF CHELPG PMODEL PAL8
|  3>
|  4> %base "18-62_DFT_AB"
|  5>
|  6> %scf
|  7> MaxIter 1000
|  8> end
|  9>
| 10> * xyz 0 1
| 11>   C                      1.360282             -4.777872            -0.154041
| 12>   O                      0.112124             -4.454516            0.466890
| 13>   H                      0.255263             -3.645348            0.929075
| 14>   H                      1.579164             -4.006664            -0.829384
| 15>   H                      2.089112             -4.804114            0.602860
| 16>   H                      1.466500             -5.741228            -0.685839
| 17>   C                      -2.769662            -2.607001            -1.720003
| 18>   O                      -3.415459            -1.368921            -1.945144
| 19>   H                      -3.397194            -1.181797            -2.930573
| 20>   H                      -1.645633            -2.601264            -1.937558
| 21>   H                      -2.958031            -2.867113            -0.615470
| 22>   H                      -3.102810            -3.427437            -2.374166
| 23> *
| 24>
| 25> #Run DFT-D3 single point of the molecule with dimer basis set
| 26> $new_job
| 27> %base "18-62_DFT_A"
| 28> ! wB97X-D3 def2-TZVP TIGHTSCF CHELPG PMODEL
| 29>
| 30> %scf
| 31> MaxIter 1000
| 32> end
| 33>
| 34> * xyz 0 1
| 35>   C                      1.360282             -4.777872            -0.154041
| 36>   O                      0.112124             -4.454516            0.466890
| 37>   H                      0.255263             -3.645348            0.929075
| 38>   H                      1.579164             -4.006664            -0.829384
| 39>   H                      2.089112             -4.804114            0.602860
| 40>   H                      1.466500             -5.741228            -0.685839
| 41>   C                    : -2.769662            -2.607001            -1.720003
| 42>   O                    : -3.415459            -1.368921            -1.945144
| 43>   H                    : -3.397194            -1.181797            -2.930573
| 44>   H                    : -1.645633            -2.601264            -1.937558
| 45>   H                    : -2.958031            -2.867113            -0.615470
| 46>   H                    : -3.102810            -3.427437            -2.374166
| 47> *
| 48>
| 49> #Run DFT-D3 single point of the particle with dimer basis set
| 50> $new_job
| 51> %base "18-62_DFT_B"
| 52> ! wB97X-D3 def2-TZVP TIGHTSCF CHELPG PMODEL
| 53>
| 54> %scf
| 55> MaxIter 1000
| 56> end
| 57>
| 58> * xyz 0 1
| 59>   C                    : 1.360282             -4.777872            -0.154041
| 60>   O                    : 0.112124             -4.454516            0.466890
| 61>   H                    : 0.255263             -3.645348            0.929075
| 62>   H                    : 1.579164             -4.006664            -0.829384
| 63>   H                    : 2.089112             -4.804114            0.602860
| 64>   H                    : 1.466500             -5.741228            -0.685839
| 65>   C                      -2.769662            -2.607001            -1.720003
| 66>   O                      -3.415459            -1.368921            -1.945144
| 67>   H                      -3.397194            -1.181797            -2.930573
| 68>   H                      -1.645633            -2.601264            -1.937558
| 69>   H                      -2.958031            -2.867113            -0.615470
| 70>   H                      -3.102810            -3.427437            -2.374166
| 71> *
| 72>
| 73>                          ****END OF INPUT****
 Total Charge           Charge          ....    0
 Multiplicity           Mult            ....    1
 Number of Electrons    NEL             ....   36
Dispersion correction           -0.001078925
FINAL SINGLE POINT ENERGY      -231.460427320468
Dispersion correction           -0.000217386
FINAL SINGLE POINT ENERGY      -115.728703157202

CARTESIAN COORDINATES (ANGSTROEM)
---------------------------------
  C      1.360282   -4.777872   -0.154041
  O      0.112124   -4.454516    0.466890
  H      0.255263   -3.645348    0.929075
  H      1.579164   -4.006664   -0.829384
  H      2.089112   -4.804114    0.602860
  H      1.466500   -5.741228   -0.685839
  C     -2.769662   -2.607001   -1.720003
  O     -3.415459   -1.368921   -1.945144
  H     -3.397194   -1.181797   -2.930573
  H     -1.645633   -2.601264   -1.937558
  H     -2.958031   -2.867113   -0.615470
  H     -3.102810   -3.427437   -2.374166

 Multiplicity           Mult            ....    1
 Number of Electrons    NEL             ....   18
 Basis Dimension        Dim             ....  172

ORBITAL ENERGIES
----------------

  NO   OCC          E(Eh)            E(eV)
   0   2.0000     -19.237737      -523.4854
   1   2.0000     -10.324945      -280.9560
   2   2.0000      -1.130410       -30.7600
   3   2.0000      -0.783890       -21.3307
   4   2.0000      -0.611889       -16.6503
   5   2.0000      -0.526640       -14.3306
   6   2.0000      -0.519526       -14.1370
   7   2.0000      -0.437049       -11.8927
   8   2.0000      -0.370765       -10.0890
   9   0.0000       0.082759         2.2520
  10   0.0000       0.109593         2.9822
  11   0.0000       0.142120         3.8673
  12   0.0000       0.168682         4.5901
  13   0.0000       0.184911         5.0317

MULLIKEN ATOMIC CHARGES
-----------------------
   0 C :    0.000081
   1 O :    0.000039
   2 H :   -0.000227
   3 H :   -0.000230
   4 H :   -0.000011
   5 H :   -0.000002
   6 C :   -0.172207
   7 O :   -0.467985
   8 H :    0.315883
   9 H :    0.097366
  10 H :    0.122656
  11 H :    0.104636
Sum of atomic charges:   -0.0000000

LOEWDIN ATOMIC CHARGES
----------------------
   0 C :   -0.000369
   1 O :   -0.000318
   2 H :   -0.000258
   3 H :   -0.000191
   4 H :   -0.000005
   5 H :   -0.000004
   6 C :   -0.408592
   7 O :   -0.094236
   8 H :    0.192862
   9 H :    0.098550
  10 H :    0.120481
  11 H :    0.092080

  Mayer bond orders larger than 0.1
B(  6-C ,  7-O ) :   1.0042 B(  6-C ,  9-H ) :   0.9676 B(  6-C , 10-H ) :   0.9714
B(  6-C , 11-H ) :   0.9685 B(  7-O ,  8-H ) :   0.8920

Dispersion correction           -0.000269330
FINAL SINGLE POINT ENERGY      -115.730647275128

DIPOLE MOMENT
-------------
                                X             Y             Z
Electronic contribution:     -0.95069       1.66255      -0.15899
Nuclear contribution   :      1.18479      -2.02352      -0.38123
                        -----------------------------------------
Total Dipole Moment    :      0.23410      -0.36096      -0.54022
                        -----------------------------------------
Magnitude (a.u.)       :      0.69060
Magnitude (Debye)      :      1.75537

Rotational constants in cm-1:     4.033462     0.824012     0.780700
Rotational constants in MHz : 120920.159014 24703.247480 23404.792375

                             ****ORCA TERMINATED NORMALLY****
TOTAL RUN TIME: 0 days 0 hours 0 minutes 53 seconds 518 msec
