                         Program Version 4.1.2  - RELEASE  -
|  1> #Run DFT-D3 single point of the dimer
|  2> ! wB97X-D3 def2-TZVP TIGHTSCF CHELPG PMODEL PAL8
|  3>
|  4> %base "21-204_DFT_AB"
|  5>
|  6> %scf
|  7> MaxIter 1000
|  8> end
|  9>
| 10> * xyz 0 1
| 11>   C                      -2.832736            1.034180             7.154251
| 12>   O                      -2.230653            1.418563             8.352736
| 13>   H                      -1.523829            0.825899             8.486310
| 14>   H                      -3.188711            1.935277             6.626943
| 15>   H                      -2.262248            0.407505             6.481360
| 16>   H                      -3.804278            0.576429             7.324600
| 17>   C                      1.092669             3.256761             10.282271
| 18>   O                      -0.323301            3.204230             10.477573
| 19>   H                      -0.614453            2.407768             10.082326
| 20>   H                      1.454039             4.279143             10.030922
| 21>   H                      1.616951             2.812471             11.087171
| 22>   H                      1.296782             2.522550             9.503206
| 23> *
| 24>
| 25> #Run DFT-D3 single point of the molecule with dimer basis set
| 26> $new_job
| 27> %base "21-204_DFT_A"
| 28> ! wB97X-D3 def2-TZVP TIGHTSCF CHELPG PMODEL
| 29>
| 30> %scf
| 31> MaxIter 1000
| 32> end
| 33>
| 34> * xyz 0 1
| 35>   C                      -2.832736            1.034180             7.154251
| 36>   O                      -2.230653            1.418563             8.352736
| 37>   H                      -1.523829            0.825899             8.486310
| 38>   H                      -3.188711            1.935277             6.626943
| 39>   H                      -2.262248            0.407505             6.481360
| 40>   H                      -3.804278            0.576429             7.324600
| 41>   C                    : 1.092669             3.256761             10.282271
| 42>   O                    : -0.323301            3.204230             10.477573
| 43>   H                    : -0.614453            2.407768             10.082326
| 44>   H                    : 1.454039             4.279143             10.030922
| 45>   H                    : 1.616951             2.812471             11.087171
| 46>   H                    : 1.296782             2.522550             9.503206
| 47> *
| 48>
| 49> #Run DFT-D3 single point of the particle with dimer basis set
| 50> $new_job
| 51> %base "21-204_DFT_B"
| 52> ! wB97X-D3 def2-TZVP TIGHTSCF CHELPG PMODEL
| 53>
| 54> %scf
| 55> MaxIter 1000
| 56> end
| 57>
| 58> * xyz 0 1
| 59>   C                    : -2.832736            1.034180             7.154251
| 60>   O                    : -2.230653            1.418563             8.352736
| 61>   H                    : -1.523829            0.825899             8.486310
| 62>   H                    : -3.188711            1.935277             6.626943
| 63>   H                    : -2.262248            0.407505             6.481360
| 64>   H                    : -3.804278            0.576429             7.324600
| 65>   C                      1.092669             3.256761             10.282271
| 66>   O                      -0.323301            3.204230             10.477573
| 67>   H                      -0.614453            2.407768             10.082326
| 68>   H                      1.454039             4.279143             10.030922
| 69>   H                      1.616951             2.812471             11.087171
| 70>   H                      1.296782             2.522550             9.503206
| 71> *
| 72>
| 73>                          ****END OF INPUT****
 Total Charge           Charge          ....    0
 Multiplicity           Mult            ....    1
 Number of Electrons    NEL             ....   36
Dispersion correction           -0.001266845
FINAL SINGLE POINT ENERGY      -231.460807884074
Dispersion correction           -0.000244901
FINAL SINGLE POINT ENERGY      -115.731635834180

CARTESIAN COORDINATES (ANGSTROEM)
---------------------------------
  C     -2.832736    1.034180    7.154251
  O     -2.230653    1.418563    8.352736
  H     -1.523829    0.825899    8.486310
  H     -3.188711    1.935277    6.626943
  H     -2.262248    0.407505    6.481360
  H     -3.804278    0.576429    7.324600
  C      1.092669    3.256761   10.282271
  O     -0.323301    3.204230   10.477573
  H     -0.614453    2.407768   10.082326
  H      1.454039    4.279143   10.030922
  H      1.616951    2.812471   11.087171
  H      1.296782    2.522550    9.503206

 Multiplicity           Mult            ....    1
 Number of Electrons    NEL             ....   18
 Basis Dimension        Dim             ....  172

ORBITAL ENERGIES
----------------

  NO   OCC          E(Eh)            E(eV)
   0   2.0000     -19.225900      -523.1633
   1   2.0000     -10.313438      -280.6429
   2   2.0000      -1.136993       -30.9392
   3   2.0000      -0.798852       -21.7379
   4   2.0000      -0.614240       -16.7143
   5   2.0000      -0.541299       -14.7295
   6   2.0000      -0.529298       -14.4029
   7   2.0000      -0.434149       -11.8138
   8   2.0000      -0.373736       -10.1699
   9   0.0000       0.075314         2.0494
  10   0.0000       0.117066         3.1855
  11   0.0000       0.152872         4.1599
  12   0.0000       0.183912         5.0045
  13   0.0000       0.197856         5.3839

MULLIKEN ATOMIC CHARGES
-----------------------
   0 C :   -0.000349
   1 O :   -0.000753
   2 H :   -0.001137
   3 H :    0.000046
   4 H :    0.000003
   5 H :    0.000018
   6 C :   -0.164011
   7 O :   -0.469868
   8 H :    0.308200
   9 H :    0.119582
  10 H :    0.109966
  11 H :    0.098302
Sum of atomic charges:   -0.0000000

LOEWDIN ATOMIC CHARGES
----------------------
   0 C :   -0.000260
   1 O :   -0.003671
   2 H :   -0.002112
   3 H :   -0.000009
   4 H :   -0.000004
   5 H :   -0.000006
   6 C :   -0.365379
   7 O :   -0.077077
   8 H :    0.151475
   9 H :    0.110037
  10 H :    0.089234
  11 H :    0.097773

  Mayer bond orders larger than 0.1
B(  6-C ,  7-O ) :   0.9940 B(  6-C ,  9-H ) :   0.9703 B(  6-C , 10-H ) :   0.9725
B(  6-C , 11-H ) :   0.9961 B(  7-O ,  8-H ) :   0.9120

Dispersion correction           -0.000228983
FINAL SINGLE POINT ENERGY      -115.729445511578

DIPOLE MOMENT
-------------
                                X             Y             Z
Electronic contribution:     -1.73469       0.20951       0.37296
Nuclear contribution   :      2.13671      -0.72580      -0.71324
                        -----------------------------------------
Total Dipole Moment    :      0.40202      -0.51629      -0.34028
                        -----------------------------------------
Magnitude (a.u.)       :      0.73754
Magnitude (Debye)      :      1.87468

Rotational constants in cm-1:     4.332862     0.829198     0.790814
Rotational constants in MHz : 129895.934548 24858.731612 23708.012351

                             ****ORCA TERMINATED NORMALLY****
TOTAL RUN TIME: 0 days 0 hours 1 minutes 3 seconds 103 msec
