                         Program Version 4.1.2  - RELEASE  -
|  1> #Run DFT-D3 single point of the dimer
|  2> ! wB97X-D3 def2-TZVP TIGHTSCF CHELPG PMODEL PAL8
|  3>
|  4> %base "7-163_DFT_AB"
|  5>
|  6> %scf
|  7> MaxIter 1000
|  8> end
|  9>
| 10> * xyz 0 1
| 11>   C                      4.180189             2.958385             8.920042
| 12>   O                      3.642566             3.049578             7.658122
| 13>   H                      2.858319             2.567582             7.724482
| 14>   H                      5.314890             3.177197             8.823541
| 15>   H                      3.721327             3.587053             9.702145
| 16>   H                      4.083614             1.915289             9.254281
| 17>   C                      0.951974             2.416142             4.191653
| 18>   O                      1.141761             2.891847             5.490232
| 19>   H                      1.060901             2.174047             6.127462
| 20>   H                      1.329369             3.066310             3.438177
| 21>   H                      1.284872             1.400295             3.955974
| 22>   H                      -0.073623            2.426151             3.974505
| 23> *
| 24>
| 25> #Run DFT-D3 single point of the molecule with dimer basis set
| 26> $new_job
| 27> %base "7-163_DFT_A"
| 28> ! wB97X-D3 def2-TZVP TIGHTSCF CHELPG PMODEL
| 29>
| 30> %scf
| 31> MaxIter 1000
| 32> end
| 33>
| 34> * xyz 0 1
| 35>   C                      4.180189             2.958385             8.920042
| 36>   O                      3.642566             3.049578             7.658122
| 37>   H                      2.858319             2.567582             7.724482
| 38>   H                      5.314890             3.177197             8.823541
| 39>   H                      3.721327             3.587053             9.702145
| 40>   H                      4.083614             1.915289             9.254281
| 41>   C                    : 0.951974             2.416142             4.191653
| 42>   O                    : 1.141761             2.891847             5.490232
| 43>   H                    : 1.060901             2.174047             6.127462
| 44>   H                    : 1.329369             3.066310             3.438177
| 45>   H                    : 1.284872             1.400295             3.955974
| 46>   H                    : -0.073623            2.426151             3.974505
| 47> *
| 48>
| 49> #Run DFT-D3 single point of the particle with dimer basis set
| 50> $new_job
| 51> %base "7-163_DFT_B"
| 52> ! wB97X-D3 def2-TZVP TIGHTSCF CHELPG PMODEL
| 53>
| 54> %scf
| 55> MaxIter 1000
| 56> end
| 57>
| 58> * xyz 0 1
| 59>   C                    : 4.180189             2.958385             8.920042
| 60>   O                    : 3.642566             3.049578             7.658122
| 61>   H                    : 2.858319             2.567582             7.724482
| 62>   H                    : 5.314890             3.177197             8.823541
| 63>   H                    : 3.721327             3.587053             9.702145
| 64>   H                    : 4.083614             1.915289             9.254281
| 65>   C                      0.951974             2.416142             4.191653
| 66>   O                      1.141761             2.891847             5.490232
| 67>   H                      1.060901             2.174047             6.127462
| 68>   H                      1.329369             3.066310             3.438177
| 69>   H                      1.284872             1.400295             3.955974
| 70>   H                      -0.073623            2.426151             3.974505
| 71> *
| 72>
| 73>                          ****END OF INPUT****
 Total Charge           Charge          ....    0
 Multiplicity           Mult            ....    1
 Number of Electrons    NEL             ....   36
Dispersion correction           -0.001177285
FINAL SINGLE POINT ENERGY      -231.458273748713
Dispersion correction           -0.000219000
FINAL SINGLE POINT ENERGY      -115.729722376977

CARTESIAN COORDINATES (ANGSTROEM)
---------------------------------
  C      4.180189    2.958385    8.920042
  O      3.642566    3.049578    7.658122
  H      2.858319    2.567582    7.724482
  H      5.314890    3.177197    8.823541
  H      3.721327    3.587053    9.702145
  H      4.083614    1.915289    9.254281
  C      0.951974    2.416142    4.191653
  O      1.141761    2.891847    5.490232
  H      1.060901    2.174047    6.127462
  H      1.329369    3.066310    3.438177
  H      1.284872    1.400295    3.955974
  H     -0.073623    2.426151    3.974505

 Multiplicity           Mult            ....    1
 Number of Electrons    NEL             ....   18
 Basis Dimension        Dim             ....  172

ORBITAL ENERGIES
----------------

  NO   OCC          E(Eh)            E(eV)
   0   2.0000     -19.231818      -523.3244
   1   2.0000     -10.302860      -280.3551
   2   2.0000      -1.140186       -31.0261
   3   2.0000      -0.804556       -21.8931
   4   2.0000      -0.618186       -16.8217
   5   2.0000      -0.540269       -14.7015
   6   2.0000      -0.535453       -14.5704
   7   2.0000      -0.434697       -11.8287
   8   2.0000      -0.370995       -10.0953
   9   0.0000       0.088344         2.4040
  10   0.0000       0.120015         3.2658
  11   0.0000       0.151338         4.1181
  12   0.0000       0.195620         5.3231
  13   0.0000       0.202154         5.5009

MULLIKEN ATOMIC CHARGES
-----------------------
   0 C :    0.000754
   1 O :    0.000148
   2 H :   -0.007496
   3 H :    0.000041
   4 H :   -0.000060
   5 H :   -0.000052
   6 C :   -0.162035
   7 O :   -0.471788
   8 H :    0.320956
   9 H :    0.117684
  10 H :    0.097731
  11 H :    0.104117
Sum of atomic charges:   -0.0000000

LOEWDIN ATOMIC CHARGES
----------------------
   0 C :   -0.000157
   1 O :   -0.003163
   2 H :   -0.005960
   3 H :   -0.000003
   4 H :   -0.000006
   5 H :   -0.000005
   6 C :   -0.395221
   7 O :   -0.056471
   8 H :    0.174488
   9 H :    0.102832
  10 H :    0.095896
  11 H :    0.087770

  Mayer bond orders larger than 0.1
B(  6-C ,  7-O ) :   1.0072 B(  6-C ,  9-H ) :   0.9751 B(  6-C , 10-H ) :   0.9767
B(  6-C , 11-H ) :   0.9834 B(  7-O ,  8-H ) :   0.8924

Dispersion correction           -0.000244381
FINAL SINGLE POINT ENERGY      -115.731172322986

DIPOLE MOMENT
-------------
                                X             Y             Z
Electronic contribution:      0.37529       0.73391       1.69794
Nuclear contribution   :     -0.52337      -1.37780      -1.82569
                        -----------------------------------------
Total Dipole Moment    :     -0.14808      -0.64389      -0.12775
                        -----------------------------------------
Magnitude (a.u.)       :      0.67294
Magnitude (Debye)      :      1.71047

Rotational constants in cm-1:     4.644534     0.843409     0.806625
Rotational constants in MHz : 139239.637807 25284.759907 24182.018323

                             ****ORCA TERMINATED NORMALLY****
TOTAL RUN TIME: 0 days 0 hours 1 minutes 13 seconds 285 msec
