                         Program Version 4.1.2  - RELEASE  -
|  1> #Run DFT-D3 single point of the dimer
|  2> ! wB97X-D3 def2-TZVP TIGHTSCF CHELPG PMODEL PAL8
|  3>
|  4> %base "21-163_DFT_AB"
|  5>
|  6> %scf
|  7> MaxIter 1000
|  8> end
|  9>
| 10> * xyz 0 1
| 11>   C                      7.864650             8.323932             0.801968
| 12>   O                      6.679575             8.348322             1.593540
| 13>   H                      6.951194             8.365626             2.475880
| 14>   H                      8.453539             7.464341             1.079208
| 15>   H                      7.598967             8.207350             -0.210237
| 16>   H                      8.404368             9.332742             0.941453
| 17>   C                      4.636242             10.241333            -0.168985
| 18>   O                      5.247859             10.550946            1.085915
| 19>   H                      5.687021             9.727331             1.357490
| 20>   H                      4.510501             11.202798            -0.790874
| 21>   H                      5.400138             9.598197             -0.761799
| 22>   H                      3.711608             9.682024             -0.079434
| 23> *
| 24>
| 25> #Run DFT-D3 single point of the molecule with dimer basis set
| 26> $new_job
| 27> %base "21-163_DFT_A"
| 28> ! wB97X-D3 def2-TZVP TIGHTSCF CHELPG PMODEL
| 29>
| 30> %scf
| 31> MaxIter 1000
| 32> end
| 33>
| 34> * xyz 0 1
| 35>   C                      7.864650             8.323932             0.801968
| 36>   O                      6.679575             8.348322             1.593540
| 37>   H                      6.951194             8.365626             2.475880
| 38>   H                      8.453539             7.464341             1.079208
| 39>   H                      7.598967             8.207350             -0.210237
| 40>   H                      8.404368             9.332742             0.941453
| 41>   C                    : 4.636242             10.241333            -0.168985
| 42>   O                    : 5.247859             10.550946            1.085915
| 43>   H                    : 5.687021             9.727331             1.357490
| 44>   H                    : 4.510501             11.202798            -0.790874
| 45>   H                    : 5.400138             9.598197             -0.761799
| 46>   H                    : 3.711608             9.682024             -0.079434
| 47> *
| 48>
| 49> #Run DFT-D3 single point of the particle with dimer basis set
| 50> $new_job
| 51> %base "21-163_DFT_B"
| 52> ! wB97X-D3 def2-TZVP TIGHTSCF CHELPG PMODEL
| 53>
| 54> %scf
| 55> MaxIter 1000
| 56> end
| 57>
| 58> * xyz 0 1
| 59>   C                    : 7.864650             8.323932             0.801968
| 60>   O                    : 6.679575             8.348322             1.593540
| 61>   H                    : 6.951194             8.365626             2.475880
| 62>   H                    : 8.453539             7.464341             1.079208
| 63>   H                    : 7.598967             8.207350             -0.210237
| 64>   H                    : 8.404368             9.332742             0.941453
| 65>   C                      4.636242             10.241333            -0.168985
| 66>   O                      5.247859             10.550946            1.085915
| 67>   H                      5.687021             9.727331             1.357490
| 68>   H                      4.510501             11.202798            -0.790874
| 69>   H                      5.400138             9.598197             -0.761799
| 70>   H                      3.711608             9.682024             -0.079434
| 71> *
| 72>
| 73>                          ****END OF INPUT****
 Total Charge           Charge          ....    0
 Multiplicity           Mult            ....    1
 Number of Electrons    NEL             ....   36
Dispersion correction           -0.002116651
FINAL SINGLE POINT ENERGY      -231.471834112417
Dispersion correction           -0.000224518
FINAL SINGLE POINT ENERGY      -115.732655533251

CARTESIAN COORDINATES (ANGSTROEM)
---------------------------------
  C      7.864650    8.323932    0.801968
  O      6.679575    8.348322    1.593540
  H      6.951194    8.365626    2.475880
  H      8.453539    7.464341    1.079208
  H      7.598967    8.207350   -0.210237
  H      8.404368    9.332742    0.941453
  C      4.636242   10.241333   -0.168985
  O      5.247859   10.550946    1.085915
  H      5.687021    9.727331    1.357490
  H      4.510501   11.202798   -0.790874
  H      5.400138    9.598197   -0.761799
  H      3.711608    9.682024   -0.079434

 Multiplicity           Mult            ....    1
 Number of Electrons    NEL             ....   18
 Basis Dimension        Dim             ....  172

ORBITAL ENERGIES
----------------

  NO   OCC          E(Eh)            E(eV)
   0   2.0000     -19.234202      -523.3892
   1   2.0000     -10.327655      -281.0298
   2   2.0000      -1.132865       -30.8268
   3   2.0000      -0.784969       -21.3601
   4   2.0000      -0.604655       -16.4535
   5   2.0000      -0.542578       -14.7643
   6   2.0000      -0.519825       -14.1452
   7   2.0000      -0.430590       -11.7170
   8   2.0000      -0.376030       -10.2323
   9   0.0000       0.069284         1.8853
  10   0.0000       0.136497         3.7143
  11   0.0000       0.141805         3.8587
  12   0.0000       0.170307         4.6343
  13   0.0000       0.189331         5.1520

MULLIKEN ATOMIC CHARGES
-----------------------
   0 C :   -0.005337
   1 O :   -0.004965
   2 H :   -0.000946
   3 H :   -0.000229
   4 H :    0.000137
   5 H :   -0.000234
   6 C :   -0.180373
   7 O :   -0.462131
   8 H :    0.319656
   9 H :    0.121405
  10 H :    0.096466
  11 H :    0.116553
Sum of atomic charges:   -0.0000000

LOEWDIN ATOMIC CHARGES
----------------------
   0 C :   -0.009474
   1 O :   -0.034156
   2 H :   -0.003082
   3 H :   -0.000182
   4 H :   -0.001837
   5 H :   -0.001161
   6 C :   -0.385395
   7 O :   -0.075442
   8 H :    0.194469
   9 H :    0.118263
  10 H :    0.106186
  11 H :    0.091812

  Mayer bond orders larger than 0.1
B(  6-C ,  7-O ) :   0.9923 B(  6-C ,  9-H ) :   0.9694 B(  6-C , 10-H ) :   0.9817
B(  6-C , 11-H ) :   0.9677 B(  7-O ,  8-H ) :   0.9031

Dispersion correction           -0.000249398
FINAL SINGLE POINT ENERGY      -115.730899040247

DIPOLE MOMENT
-------------
                                X             Y             Z
Electronic contribution:      0.54248       0.57749       1.69356
Nuclear contribution   :     -0.51504      -1.19668      -2.01316
                        -----------------------------------------
Total Dipole Moment    :      0.02744      -0.61919      -0.31961
                        -----------------------------------------
Magnitude (a.u.)       :      0.69735
Magnitude (Debye)      :      1.77252

Rotational constants in cm-1:     3.983291     0.815102     0.784182
Rotational constants in MHz : 119416.066145 24436.157596 23509.170134

                             ****ORCA TERMINATED NORMALLY****
TOTAL RUN TIME: 0 days 0 hours 1 minutes 8 seconds 634 msec
