                         Program Version 4.1.2  - RELEASE  -
|  1> #Run DFT-D3 single point of the dimer
|  2> ! wB97X-D3 def2-TZVP TIGHTSCF CHELPG PMODEL PAL8
|  3>
|  4> %base "17-32_DFT_AB"
|  5>
|  6> %scf
|  7> MaxIter 1000
|  8> end
|  9>
| 10> * xyz 0 1
| 11>   C                      -1.552654            -0.347999            4.263472
| 12>   O                      -0.675985            -0.786314            3.238730
| 13>   H                      -1.311521            -0.903148            2.507645
| 14>   H                      -1.893925            0.644904             3.934240
| 15>   H                      -2.420135            -0.936720            4.503697
| 16>   H                      -1.047543            -0.169033            5.200596
| 17>   C                      -0.129809            -3.981997            -1.892115
| 18>   O                      0.402196             -3.215885            -0.827790
| 19>   H                      0.200411             -3.568113            0.056737
| 20>   H                      -0.677656            -3.346531            -2.575738
| 21>   H                      0.677087             -4.486422            -2.377197
| 22>   H                      -0.876734            -4.661249            -1.505775
| 23> *
| 24>
| 25> #Run DFT-D3 single point of the molecule with dimer basis set
| 26> $new_job
| 27> %base "17-32_DFT_A"
| 28> ! wB97X-D3 def2-TZVP TIGHTSCF CHELPG PMODEL
| 29>
| 30> %scf
| 31> MaxIter 1000
| 32> end
| 33>
| 34> * xyz 0 1
| 35>   C                      -1.552654            -0.347999            4.263472
| 36>   O                      -0.675985            -0.786314            3.238730
| 37>   H                      -1.311521            -0.903148            2.507645
| 38>   H                      -1.893925            0.644904             3.934240
| 39>   H                      -2.420135            -0.936720            4.503697
| 40>   H                      -1.047543            -0.169033            5.200596
| 41>   C                    : -0.129809            -3.981997            -1.892115
| 42>   O                    : 0.402196             -3.215885            -0.827790
| 43>   H                    : 0.200411             -3.568113            0.056737
| 44>   H                    : -0.677656            -3.346531            -2.575738
| 45>   H                    : 0.677087             -4.486422            -2.377197
| 46>   H                    : -0.876734            -4.661249            -1.505775
| 47> *
| 48>
| 49> #Run DFT-D3 single point of the particle with dimer basis set
| 50> $new_job
| 51> %base "17-32_DFT_B"
| 52> ! wB97X-D3 def2-TZVP TIGHTSCF CHELPG PMODEL
| 53>
| 54> %scf
| 55> MaxIter 1000
| 56> end
| 57>
| 58> * xyz 0 1
| 59>   C                    : -1.552654            -0.347999            4.263472
| 60>   O                    : -0.675985            -0.786314            3.238730
| 61>   H                    : -1.311521            -0.903148            2.507645
| 62>   H                    : -1.893925            0.644904             3.934240
| 63>   H                    : -2.420135            -0.936720            4.503697
| 64>   H                    : -1.047543            -0.169033            5.200596
| 65>   C                      -0.129809            -3.981997            -1.892115
| 66>   O                      0.402196             -3.215885            -0.827790
| 67>   H                      0.200411             -3.568113            0.056737
| 68>   H                      -0.677656            -3.346531            -2.575738
| 69>   H                      0.677087             -4.486422            -2.377197
| 70>   H                      -0.876734            -4.661249            -1.505775
| 71> *
| 72>
| 73>                          ****END OF INPUT****
 Total Charge           Charge          ....    0
 Multiplicity           Mult            ....    1
 Number of Electrons    NEL             ....   36
Dispersion correction           -0.000611424
FINAL SINGLE POINT ENERGY      -231.464426554684
Dispersion correction           -0.000224197
FINAL SINGLE POINT ENERGY      -115.730831306685

CARTESIAN COORDINATES (ANGSTROEM)
---------------------------------
  C     -1.552654   -0.347999    4.263472
  O     -0.675985   -0.786314    3.238730
  H     -1.311521   -0.903148    2.507645
  H     -1.893925    0.644904    3.934240
  H     -2.420135   -0.936720    4.503697
  H     -1.047543   -0.169033    5.200596
  C     -0.129809   -3.981997   -1.892115
  O      0.402196   -3.215885   -0.827790
  H      0.200411   -3.568113    0.056737
  H     -0.677656   -3.346531   -2.575738
  H      0.677087   -4.486422   -2.377197
  H     -0.876734   -4.661249   -1.505775

 Multiplicity           Mult            ....    1
 Number of Electrons    NEL             ....   18
 Basis Dimension        Dim             ....  172

ORBITAL ENERGIES
----------------

  NO   OCC          E(Eh)            E(eV)
   0   2.0000     -19.223968      -523.1108
   1   2.0000     -10.307698      -280.4867
   2   2.0000      -1.126976       -30.6666
   3   2.0000      -0.798949       -21.7405
   4   2.0000      -0.608669       -16.5627
   5   2.0000      -0.549352       -14.9486
   6   2.0000      -0.527416       -14.3517
   7   2.0000      -0.421877       -11.4798
   8   2.0000      -0.371824       -10.1178
   9   0.0000       0.085958         2.3390
  10   0.0000       0.111600         3.0368
  11   0.0000       0.153527         4.1777
  12   0.0000       0.175411         4.7732
  13   0.0000       0.197695         5.3795

MULLIKEN ATOMIC CHARGES
-----------------------
   0 C :    0.000068
   1 O :    0.000034
   2 H :   -0.000479
   3 H :   -0.000005
   4 H :   -0.000006
   5 H :    0.000002
   6 C :   -0.145521
   7 O :   -0.499472
   8 H :    0.320935
   9 H :    0.109965
  10 H :    0.110729
  11 H :    0.103750
Sum of atomic charges:    0.0000000

LOEWDIN ATOMIC CHARGES
----------------------
   0 C :   -0.000006
   1 O :   -0.000013
   2 H :   -0.000246
   3 H :   -0.000000
   4 H :   -0.000000
   5 H :   -0.000001
   6 C :   -0.371244
   7 O :   -0.093236
   8 H :    0.173770
   9 H :    0.100674
  10 H :    0.094807
  11 H :    0.095496

  Mayer bond orders larger than 0.1
B(  6-C ,  7-O ) :   0.9962 B(  6-C ,  9-H ) :   0.9732 B(  6-C , 10-H ) :   0.9783
B(  6-C , 11-H ) :   0.9875 B(  7-O ,  8-H ) :   0.8928

Dispersion correction           -0.000242906
FINAL SINGLE POINT ENERGY      -115.733336830302

DIPOLE MOMENT
-------------
                                X             Y             Z
Electronic contribution:      0.74384       0.97958       1.17532
Nuclear contribution   :     -1.12214      -1.53995      -1.03031
                        -----------------------------------------
Total Dipole Moment    :     -0.37830      -0.56037       0.14501
                        -----------------------------------------
Magnitude (a.u.)       :      0.69149
Magnitude (Debye)      :      1.75762

Rotational constants in cm-1:     4.393897     0.828663     0.805327
Rotational constants in MHz : 131725.719965 24842.682413 24143.092144

                             ****ORCA TERMINATED NORMALLY****
TOTAL RUN TIME: 0 days 0 hours 1 minutes 9 seconds 643 msec
