                         Program Version 4.1.2  - RELEASE  -
|  1> #Run DFT-D3 single point of the dimer
|  2> ! wB97X-D3 def2-TZVP TIGHTSCF CHELPG PMODEL PAL8
|  3>
|  4> %base "20-10_DFT_AB"
|  5>
|  6> %scf
|  7> MaxIter 1000
|  8> end
|  9>
| 10> * xyz 0 1
| 11>   C                      -3.541612            8.218738             -6.097579
| 12>   O                      -2.500026            7.841059             -5.165467
| 13>   H                      -2.808424            8.091062             -4.276652
| 14>   H                      -4.504519            8.175344             -5.636522
| 15>   H                      -3.270904            9.255707             -6.480989
| 16>   H                      -3.586497            7.616042             -6.948879
| 17>   C                      0.659082             8.615269             -3.643497
| 18>   O                      0.571755             9.841283             -3.042450
| 19>   H                      0.633439             10.539445            -3.712564
| 20>   H                      1.490287             8.549697             -4.355124
| 21>   H                      0.762765             7.880298             -2.852222
| 22>   H                      -0.254403            8.351689             -4.285406
| 23> *
| 24>
| 25> #Run DFT-D3 single point of the molecule with dimer basis set
| 26> $new_job
| 27> %base "20-10_DFT_A"
| 28> ! wB97X-D3 def2-TZVP TIGHTSCF CHELPG PMODEL
| 29>
| 30> %scf
| 31> MaxIter 1000
| 32> end
| 33>
| 34> * xyz 0 1
| 35>   C                      -3.541612            8.218738             -6.097579
| 36>   O                      -2.500026            7.841059             -5.165467
| 37>   H                      -2.808424            8.091062             -4.276652
| 38>   H                      -4.504519            8.175344             -5.636522
| 39>   H                      -3.270904            9.255707             -6.480989
| 40>   H                      -3.586497            7.616042             -6.948879
| 41>   C                    : 0.659082             8.615269             -3.643497
| 42>   O                    : 0.571755             9.841283             -3.042450
| 43>   H                    : 0.633439             10.539445            -3.712564
| 44>   H                    : 1.490287             8.549697             -4.355124
| 45>   H                    : 0.762765             7.880298             -2.852222
| 46>   H                    : -0.254403            8.351689             -4.285406
| 47> *
| 48>
| 49> #Run DFT-D3 single point of the particle with dimer basis set
| 50> $new_job
| 51> %base "20-10_DFT_B"
| 52> ! wB97X-D3 def2-TZVP TIGHTSCF CHELPG PMODEL
| 53>
| 54> %scf
| 55> MaxIter 1000
| 56> end
| 57>
| 58> * xyz 0 1
| 59>   C                    : -3.541612            8.218738             -6.097579
| 60>   O                    : -2.500026            7.841059             -5.165467
| 61>   H                    : -2.808424            8.091062             -4.276652
| 62>   H                    : -4.504519            8.175344             -5.636522
| 63>   H                    : -3.270904            9.255707             -6.480989
| 64>   H                    : -3.586497            7.616042             -6.948879
| 65>   C                      0.659082             8.615269             -3.643497
| 66>   O                      0.571755             9.841283             -3.042450
| 67>   H                      0.633439             10.539445            -3.712564
| 68>   H                      1.490287             8.549697             -4.355124
| 69>   H                      0.762765             7.880298             -2.852222
| 70>   H                      -0.254403            8.351689             -4.285406
| 71> *
| 72>
| 73>                          ****END OF INPUT****
 Total Charge           Charge          ....    0
 Multiplicity           Mult            ....    1
 Number of Electrons    NEL             ....   36
Dispersion correction           -0.001291174
FINAL SINGLE POINT ENERGY      -231.466941247170
Dispersion correction           -0.000249729
FINAL SINGLE POINT ENERGY      -115.730945897739

CARTESIAN COORDINATES (ANGSTROEM)
---------------------------------
  C     -3.541612    8.218738   -6.097579
  O     -2.500026    7.841059   -5.165467
  H     -2.808424    8.091062   -4.276652
  H     -4.504519    8.175344   -5.636522
  H     -3.270904    9.255707   -6.480989
  H     -3.586497    7.616042   -6.948879
  C      0.659082    8.615269   -3.643497
  O      0.571755    9.841283   -3.042450
  H      0.633439   10.539445   -3.712564
  H      1.490287    8.549697   -4.355124
  H      0.762765    7.880298   -2.852222
  H     -0.254403    8.351689   -4.285406

 Multiplicity           Mult            ....    1
 Number of Electrons    NEL             ....   18
 Basis Dimension        Dim             ....  172

ORBITAL ENERGIES
----------------

  NO   OCC          E(Eh)            E(eV)
   0   2.0000     -19.232152      -523.3335
   1   2.0000     -10.314161      -280.6626
   2   2.0000      -1.149827       -31.2884
   3   2.0000      -0.790838       -21.5198
   4   2.0000      -0.622044       -16.9267
   5   2.0000      -0.535822       -14.5805
   6   2.0000      -0.534758       -14.5515
   7   2.0000      -0.434078       -11.8119
   8   2.0000      -0.367846       -10.0096
   9   0.0000       0.084209         2.2915
  10   0.0000       0.116813         3.1787
  11   0.0000       0.151429         4.1206
  12   0.0000       0.175279         4.7696
  13   0.0000       0.188377         5.1260

MULLIKEN ATOMIC CHARGES
-----------------------
   0 C :   -0.000551
   1 O :    0.001951
   2 H :    0.000858
   3 H :   -0.000021
   4 H :    0.000057
   5 H :   -0.000039
   6 C :   -0.139494
   7 O :   -0.464296
   8 H :    0.316950
   9 H :    0.097204
  10 H :    0.115754
  11 H :    0.071626
Sum of atomic charges:   -0.0000000

LOEWDIN ATOMIC CHARGES
----------------------
   0 C :   -0.000793
   1 O :   -0.008392
   2 H :   -0.002368
   3 H :   -0.000021
   4 H :   -0.000055
   5 H :   -0.000024
   6 C :   -0.424543
   7 O :   -0.044117
   8 H :    0.177888
   9 H :    0.091163
  10 H :    0.107364
  11 H :    0.103900

  Mayer bond orders larger than 0.1
B(  6-C ,  7-O ) :   1.0056 B(  6-C ,  9-H ) :   0.9792 B(  6-C , 10-H ) :   0.9749
B(  6-C , 11-H ) :   0.9705 B(  7-O ,  8-H ) :   0.8946

Dispersion correction           -0.000234560
FINAL SINGLE POINT ENERGY      -115.734285036539

DIPOLE MOMENT
-------------
                                X             Y             Z
Electronic contribution:     -0.06309       1.59314       1.01169
Nuclear contribution   :      0.15951      -1.58325      -1.63925
                        -----------------------------------------
Total Dipole Moment    :      0.09641       0.00989      -0.62756
                        -----------------------------------------
Magnitude (a.u.)       :      0.63500
Magnitude (Debye)      :      1.61405

Rotational constants in cm-1:     4.213674     0.873224     0.835486
Rotational constants in MHz : 126322.755365 26178.592027 25047.249689

                             ****ORCA TERMINATED NORMALLY****
TOTAL RUN TIME: 0 days 0 hours 1 minutes 6 seconds 66 msec
