                         Program Version 4.1.2  - RELEASE  -
|  1> #Run DFT-D3 single point of the dimer
|  2> ! wB97X-D3 def2-TZVP TIGHTSCF CHELPG PMODEL PAL8
|  3>
|  4> %base "15-71_DFT_AB"
|  5>
|  6> %scf
|  7> MaxIter 1000
|  8> end
|  9>
| 10> * xyz 0 1
| 11>   C                      0.395747             0.499302             3.166637
| 12>   O                      -0.741435            1.109411             2.820772
| 13>   H                      -1.443136            0.800324             3.428644
| 14>   H                      0.572906             0.753819             4.234277
| 15>   H                      0.320529             -0.597235            3.056164
| 16>   H                      1.203881             0.845296             2.442496
| 17>   C                      1.918780             2.986730             6.589430
| 18>   O                      3.201652             2.894976             7.072531
| 19>   H                      3.187460             2.280706             7.784691
| 20>   H                      1.668543             2.053616             6.116004
| 21>   H                      1.153862             3.206322             7.372300
| 22>   H                      1.929504             3.733102             5.815521
| 23> *
| 24>
| 25> #Run DFT-D3 single point of the molecule with dimer basis set
| 26> $new_job
| 27> %base "15-71_DFT_A"
| 28> ! wB97X-D3 def2-TZVP TIGHTSCF CHELPG PMODEL
| 29>
| 30> %scf
| 31> MaxIter 1000
| 32> end
| 33>
| 34> * xyz 0 1
| 35>   C                      0.395747             0.499302             3.166637
| 36>   O                      -0.741435            1.109411             2.820772
| 37>   H                      -1.443136            0.800324             3.428644
| 38>   H                      0.572906             0.753819             4.234277
| 39>   H                      0.320529             -0.597235            3.056164
| 40>   H                      1.203881             0.845296             2.442496
| 41>   C                    : 1.918780             2.986730             6.589430
| 42>   O                    : 3.201652             2.894976             7.072531
| 43>   H                    : 3.187460             2.280706             7.784691
| 44>   H                    : 1.668543             2.053616             6.116004
| 45>   H                    : 1.153862             3.206322             7.372300
| 46>   H                    : 1.929504             3.733102             5.815521
| 47> *
| 48>
| 49> #Run DFT-D3 single point of the particle with dimer basis set
| 50> $new_job
| 51> %base "15-71_DFT_B"
| 52> ! wB97X-D3 def2-TZVP TIGHTSCF CHELPG PMODEL
| 53>
| 54> %scf
| 55> MaxIter 1000
| 56> end
| 57>
| 58> * xyz 0 1
| 59>   C                    : 0.395747             0.499302             3.166637
| 60>   O                    : -0.741435            1.109411             2.820772
| 61>   H                    : -1.443136            0.800324             3.428644
| 62>   H                    : 0.572906             0.753819             4.234277
| 63>   H                    : 0.320529             -0.597235            3.056164
| 64>   H                    : 1.203881             0.845296             2.442496
| 65>   C                      1.918780             2.986730             6.589430
| 66>   O                      3.201652             2.894976             7.072531
| 67>   H                      3.187460             2.280706             7.784691
| 68>   H                      1.668543             2.053616             6.116004
| 69>   H                      1.153862             3.206322             7.372300
| 70>   H                      1.929504             3.733102             5.815521
| 71> *
| 72>
| 73>                          ****END OF INPUT****
 Total Charge           Charge          ....    0
 Multiplicity           Mult            ....    1
 Number of Electrons    NEL             ....   36
Dispersion correction           -0.000996794
FINAL SINGLE POINT ENERGY      -231.462849118980
Dispersion correction           -0.000199292
FINAL SINGLE POINT ENERGY      -115.728174234755

CARTESIAN COORDINATES (ANGSTROEM)
---------------------------------
  C      0.395747    0.499302    3.166637
  O     -0.741435    1.109411    2.820772
  H     -1.443136    0.800324    3.428644
  H      0.572906    0.753819    4.234277
  H      0.320529   -0.597235    3.056164
  H      1.203881    0.845296    2.442496
  C      1.918780    2.986730    6.589430
  O      3.201652    2.894976    7.072531
  H      3.187460    2.280706    7.784691
  H      1.668543    2.053616    6.116004
  H      1.153862    3.206322    7.372300
  H      1.929504    3.733102    5.815521

 Multiplicity           Mult            ....    1
 Number of Electrons    NEL             ....   18
 Basis Dimension        Dim             ....  172

ORBITAL ENERGIES
----------------

  NO   OCC          E(Eh)            E(eV)
   0   2.0000     -19.226652      -523.1838
   1   2.0000     -10.307676      -280.4861
   2   2.0000      -1.153341       -31.3840
   3   2.0000      -0.796008       -21.6605
   4   2.0000      -0.619903       -16.8684
   5   2.0000      -0.547268       -14.8919
   6   2.0000      -0.533578       -14.5194
   7   2.0000      -0.434853       -11.8329
   8   2.0000      -0.370365       -10.0781
   9   0.0000       0.086393         2.3509
  10   0.0000       0.118355         3.2206
  11   0.0000       0.159402         4.3375
  12   0.0000       0.166651         4.5348
  13   0.0000       0.189229         5.1492

MULLIKEN ATOMIC CHARGES
-----------------------
   0 C :    0.001070
   1 O :    0.000019
   2 H :   -0.000015
   3 H :   -0.002446
   4 H :   -0.000106
   5 H :   -0.000058
   6 C :   -0.143350
   7 O :   -0.463805
   8 H :    0.310244
   9 H :    0.094006
  10 H :    0.093284
  11 H :    0.111159
Sum of atomic charges:   -0.0000000

LOEWDIN ATOMIC CHARGES
----------------------
   0 C :   -0.001119
   1 O :   -0.000008
   2 H :   -0.000003
   3 H :   -0.004089
   4 H :   -0.000008
   5 H :   -0.000023
   6 C :   -0.409375
   7 O :   -0.038022
   8 H :    0.158969
   9 H :    0.091427
  10 H :    0.096783
  11 H :    0.105468

  Mayer bond orders larger than 0.1
B(  6-C ,  7-O ) :   0.9926 B(  6-C ,  9-H ) :   0.9870 B(  6-C , 10-H ) :   0.9724
B(  6-C , 11-H ) :   0.9731 B(  7-O ,  8-H ) :   0.9046

Dispersion correction           -0.000209660
FINAL SINGLE POINT ENERGY      -115.734321553434

DIPOLE MOMENT
-------------
                                X             Y             Z
Electronic contribution:      1.70287       0.02014       0.56445
Nuclear contribution   :     -2.17772      -0.38052      -0.30264
                        -----------------------------------------
Total Dipole Moment    :     -0.47485      -0.36038       0.26181
                        -----------------------------------------
Magnitude (a.u.)       :      0.65108
Magnitude (Debye)      :      1.65491

Rotational constants in cm-1:     4.304910     0.881295     0.846341
Rotational constants in MHz : 129057.953463 26420.556880 25372.675107

                             ****ORCA TERMINATED NORMALLY****
TOTAL RUN TIME: 0 days 0 hours 1 minutes 1 seconds 24 msec
