                         Program Version 4.1.2  - RELEASE  -
|  1> #Run DFT-D3 single point of the dimer
|  2> ! wB97X-D3 def2-TZVP TIGHTSCF CHELPG PMODEL PAL8
|  3>
|  4> %base "19-48_DFT_AB"
|  5>
|  6> %scf
|  7> MaxIter 1000
|  8> end
|  9>
| 10> * xyz 0 1
| 11>   C                      -5.106868            5.364977             4.076705
| 12>   O                      -4.860362            6.614453             3.509791
| 13>   H                      -4.817998            6.497377             2.536860
| 14>   H                      -6.164157            5.347365             4.411321
| 15>   H                      -4.952286            4.468046             3.431176
| 16>   H                      -4.499261            5.272901             4.938925
| 17>   C                      -1.171793            5.934240             5.579448
| 18>   O                      -0.309131            4.850648             5.364397
| 19>   H                      -0.566829            4.437277             4.482448
| 20>   H                      -1.154150            6.680770             4.732149
| 21>   H                      -2.241465            5.558941             5.543396
| 22>   H                      -0.988504            6.613440             6.458835
| 23> *
| 24>
| 25> #Run DFT-D3 single point of the molecule with dimer basis set
| 26> $new_job
| 27> %base "19-48_DFT_A"
| 28> ! wB97X-D3 def2-TZVP TIGHTSCF CHELPG PMODEL
| 29>
| 30> %scf
| 31> MaxIter 1000
| 32> end
| 33>
| 34> * xyz 0 1
| 35>   C                      -5.106868            5.364977             4.076705
| 36>   O                      -4.860362            6.614453             3.509791
| 37>   H                      -4.817998            6.497377             2.536860
| 38>   H                      -6.164157            5.347365             4.411321
| 39>   H                      -4.952286            4.468046             3.431176
| 40>   H                      -4.499261            5.272901             4.938925
| 41>   C                    : -1.171793            5.934240             5.579448
| 42>   O                    : -0.309131            4.850648             5.364397
| 43>   H                    : -0.566829            4.437277             4.482448
| 44>   H                    : -1.154150            6.680770             4.732149
| 45>   H                    : -2.241465            5.558941             5.543396
| 46>   H                    : -0.988504            6.613440             6.458835
| 47> *
| 48>
| 49> #Run DFT-D3 single point of the particle with dimer basis set
| 50> $new_job
| 51> %base "19-48_DFT_B"
| 52> ! wB97X-D3 def2-TZVP TIGHTSCF CHELPG PMODEL
| 53>
| 54> %scf
| 55> MaxIter 1000
| 56> end
| 57>
| 58> * xyz 0 1
| 59>   C                    : -5.106868            5.364977             4.076705
| 60>   O                    : -4.860362            6.614453             3.509791
| 61>   H                    : -4.817998            6.497377             2.536860
| 62>   H                    : -6.164157            5.347365             4.411321
| 63>   H                    : -4.952286            4.468046             3.431176
| 64>   H                    : -4.499261            5.272901             4.938925
| 65>   C                      -1.171793            5.934240             5.579448
| 66>   O                      -0.309131            4.850648             5.364397
| 67>   H                      -0.566829            4.437277             4.482448
| 68>   H                      -1.154150            6.680770             4.732149
| 69>   H                      -2.241465            5.558941             5.543396
| 70>   H                      -0.988504            6.613440             6.458835
| 71> *
| 72>
| 73>                          ****END OF INPUT****
 Total Charge           Charge          ....    0
 Multiplicity           Mult            ....    1
 Number of Electrons    NEL             ....   36
Dispersion correction           -0.001340535
FINAL SINGLE POINT ENERGY      -231.460478087214
Dispersion correction           -0.000245977
FINAL SINGLE POINT ENERGY      -115.733248364532

CARTESIAN COORDINATES (ANGSTROEM)
---------------------------------
  C     -5.106868    5.364977    4.076705
  O     -4.860362    6.614453    3.509791
  H     -4.817998    6.497377    2.536860
  H     -6.164157    5.347365    4.411321
  H     -4.952286    4.468046    3.431176
  H     -4.499261    5.272901    4.938925
  C     -1.171793    5.934240    5.579448
  O     -0.309131    4.850648    5.364397
  H     -0.566829    4.437277    4.482448
  H     -1.154150    6.680770    4.732149
  H     -2.241465    5.558941    5.543396
  H     -0.988504    6.613440    6.458835

 Multiplicity           Mult            ....    1
 Number of Electrons    NEL             ....   18
 Basis Dimension        Dim             ....  172

ORBITAL ENERGIES
----------------

  NO   OCC          E(Eh)            E(eV)
   0   2.0000     -19.237835      -523.4881
   1   2.0000     -10.324410      -280.9415
   2   2.0000      -1.134522       -30.8719
   3   2.0000      -0.784151       -21.3378
   4   2.0000      -0.608888       -16.5687
   5   2.0000      -0.541025       -14.7220
   6   2.0000      -0.522156       -14.2086
   7   2.0000      -0.429957       -11.6997
   8   2.0000      -0.367742       -10.0068
   9   0.0000       0.078434         2.1343
  10   0.0000       0.112292         3.0556
  11   0.0000       0.147674         4.0184
  12   0.0000       0.159312         4.3351
  13   0.0000       0.190146         5.1741

MULLIKEN ATOMIC CHARGES
-----------------------
   0 C :    0.000295
   1 O :    0.000080
   2 H :   -0.000008
   3 H :    0.000013
   4 H :   -0.000159
   5 H :   -0.001462
   6 C :   -0.182054
   7 O :   -0.467586
   8 H :    0.324402
   9 H :    0.097553
  10 H :    0.100644
  11 H :    0.128282
Sum of atomic charges:    0.0000000

LOEWDIN ATOMIC CHARGES
----------------------
   0 C :   -0.003055
   1 O :   -0.000116
   2 H :   -0.000028
   3 H :   -0.000012
   4 H :   -0.000054
   5 H :   -0.005563
   6 C :   -0.419397
   7 O :   -0.088812
   8 H :    0.202017
   9 H :    0.095882
  10 H :    0.103773
  11 H :    0.115366

  Mayer bond orders larger than 0.1
B(  6-C ,  7-O ) :   0.9935 B(  6-C ,  9-H ) :   0.9747 B(  6-C , 10-H ) :   0.9836
B(  6-C , 11-H ) :   0.9637 B(  7-O ,  8-H ) :   0.8857

Dispersion correction           -0.000251791
FINAL SINGLE POINT ENERGY      -115.726510406178

DIPOLE MOMENT
-------------
                                X             Y             Z
Electronic contribution:      1.35864      -1.49125       0.03400
Nuclear contribution   :     -1.82625       1.65638      -0.50105
                        -----------------------------------------
Total Dipole Moment    :     -0.46761       0.16513      -0.46704
                        -----------------------------------------
Magnitude (a.u.)       :      0.68122
Magnitude (Debye)      :      1.73151

Rotational constants in cm-1:     4.135161     0.827520     0.789831
Rotational constants in MHz : 123969.000669 24808.427322 23678.526902

                             ****ORCA TERMINATED NORMALLY****
TOTAL RUN TIME: 0 days 0 hours 0 minutes 42 seconds 318 msec
