                         Program Version 4.1.2  - RELEASE  -
|  1> #Run DFT-D3 single point of the dimer
|  2> ! wB97X-D3 def2-TZVP TIGHTSCF CHELPG PMODEL PAL8
|  3>
|  4> %base "1-11_DFT_AB"
|  5>
|  6> %scf
|  7> MaxIter 1000
|  8> end
|  9>
| 10> * xyz 0 1
| 11>   C                      9.259421             10.062301            8.811759
| 12>   O                      8.381720             10.141234            7.690191
| 13>   H                      7.835794             9.333430             7.697897
| 14>   H                      9.945951             9.205096             8.643888
| 15>   H                      9.913457             10.956592            8.943988
| 16>   H                      8.689230             10.048208            9.744641
| 17>   C                      8.916772             5.652893             5.606210
| 18>   O                      9.738335             6.552833             4.876664
| 19>   H                      10.631280            6.597577             5.261094
| 20>   H                      8.636874             5.976055             6.645396
| 21>   H                      7.890918             5.599432             5.142243
| 22>   H                      9.367213             4.647505             5.684970
| 23> *
| 24>
| 25> #Run DFT-D3 single point of the molecule with dimer basis set
| 26> $new_job
| 27> %base "1-11_DFT_A"
| 28> ! wB97X-D3 def2-TZVP TIGHTSCF CHELPG PMODEL
| 29>
| 30> %scf
| 31> MaxIter 1000
| 32> end
| 33>
| 34> * xyz 0 1
| 35>   C                      9.259421             10.062301            8.811759
| 36>   O                      8.381720             10.141234            7.690191
| 37>   H                      7.835794             9.333430             7.697897
| 38>   H                      9.945951             9.205096             8.643888
| 39>   H                      9.913457             10.956592            8.943988
| 40>   H                      8.689230             10.048208            9.744641
| 41>   C                    : 8.916772             5.652893             5.606210
| 42>   O                    : 9.738335             6.552833             4.876664
| 43>   H                    : 10.631280            6.597577             5.261094
| 44>   H                    : 8.636874             5.976055             6.645396
| 45>   H                    : 7.890918             5.599432             5.142243
| 46>   H                    : 9.367213             4.647505             5.684970
| 47> *
| 48>
| 49> #Run DFT-D3 single point of the particle with dimer basis set
| 50> $new_job
| 51> %base "1-11_DFT_B"
| 52> ! wB97X-D3 def2-TZVP TIGHTSCF CHELPG PMODEL
| 53>
| 54> %scf
| 55> MaxIter 1000
| 56> end
| 57>
| 58> * xyz 0 1
| 59>   C                    : 9.259421             10.062301            8.811759
| 60>   O                    : 8.381720             10.141234            7.690191
| 61>   H                    : 7.835794             9.333430             7.697897
| 62>   H                    : 9.945951             9.205096             8.643888
| 63>   H                    : 9.913457             10.956592            8.943988
| 64>   H                    : 8.689230             10.048208            9.744641
| 65>   C                      8.916772             5.652893             5.606210
| 66>   O                      9.738335             6.552833             4.876664
| 67>   H                      10.631280            6.597577             5.261094
| 68>   H                      8.636874             5.976055             6.645396
| 69>   H                      7.890918             5.599432             5.142243
| 70>   H                      9.367213             4.647505             5.684970
| 71> *
| 72>
| 73>                          ****END OF INPUT****
 Total Charge           Charge          ....    0
 Multiplicity           Mult            ....    1
 Number of Electrons    NEL             ....   36
Dispersion correction           -0.000883393
FINAL SINGLE POINT ENERGY      -231.466427310366
Dispersion correction           -0.000244237
FINAL SINGLE POINT ENERGY      -115.732980049361

CARTESIAN COORDINATES (ANGSTROEM)
---------------------------------
  C      9.259421   10.062301    8.811759
  O      8.381720   10.141234    7.690191
  H      7.835794    9.333430    7.697897
  H      9.945951    9.205096    8.643888
  H      9.913457   10.956592    8.943988
  H      8.689230   10.048208    9.744641
  C      8.916772    5.652893    5.606210
  O      9.738335    6.552833    4.876664
  H     10.631280    6.597577    5.261094
  H      8.636874    5.976055    6.645396
  H      7.890918    5.599432    5.142243
  H      9.367213    4.647505    5.684970

 Multiplicity           Mult            ....    1
 Number of Electrons    NEL             ....   18
 Basis Dimension        Dim             ....  172

ORBITAL ENERGIES
----------------

  NO   OCC          E(Eh)            E(eV)
   0   2.0000     -19.234050      -523.3851
   1   2.0000     -10.321514      -280.8627
   2   2.0000      -1.131456       -30.7885
   3   2.0000      -0.791699       -21.5432
   4   2.0000      -0.609827       -16.5942
   5   2.0000      -0.540506       -14.7079
   6   2.0000      -0.517920       -14.0933
   7   2.0000      -0.429247       -11.6804
   8   2.0000      -0.374100       -10.1798
   9   0.0000       0.083282         2.2662
  10   0.0000       0.117404         3.1947
  11   0.0000       0.144797         3.9401
  12   0.0000       0.167537         4.5589
  13   0.0000       0.188429         5.1274

MULLIKEN ATOMIC CHARGES
-----------------------
   0 C :   -0.000038
   1 O :   -0.000014
   2 H :    0.000079
   3 H :   -0.000104
   4 H :   -0.000001
   5 H :    0.000007
   6 C :   -0.166484
   7 O :   -0.474959
   8 H :    0.318160
   9 H :    0.095490
  10 H :    0.121207
  11 H :    0.106657
Sum of atomic charges:   -0.0000000

LOEWDIN ATOMIC CHARGES
----------------------
   0 C :   -0.000063
   1 O :   -0.000022
   2 H :   -0.000112
   3 H :   -0.000054
   4 H :   -0.000000
   5 H :   -0.000002
   6 C :   -0.396560
   7 O :   -0.086378
   8 H :    0.175855
   9 H :    0.095778
  10 H :    0.115961
  11 H :    0.095596

  Mayer bond orders larger than 0.1
B(  6-C ,  7-O ) :   1.0050 B(  6-C ,  9-H ) :   0.9679 B(  6-C , 10-H ) :   0.9719
B(  6-C , 11-H ) :   0.9755 B(  7-O ,  8-H ) :   0.8931

Dispersion correction           -0.000275878
FINAL SINGLE POINT ENERGY      -115.733606826532

DIPOLE MOMENT
-------------
                                X             Y             Z
Electronic contribution:      1.06487       1.18414      -1.08354
Nuclear contribution   :     -0.82910      -1.50832       1.61477
                        -----------------------------------------
Total Dipole Moment    :      0.23577      -0.32418       0.53122
                        -----------------------------------------
Magnitude (a.u.)       :      0.66549
Magnitude (Debye)      :      1.69154

Rotational constants in cm-1:     4.255711     0.808797     0.778946
Rotational constants in MHz : 127583.003730 24247.123014 23352.227747

                             ****ORCA TERMINATED NORMALLY****
TOTAL RUN TIME: 0 days 0 hours 4 minutes 15 seconds 36 msec
