                         Program Version 4.1.2  - RELEASE  -
|  1> #Run DFT-D3 single point of the dimer
|  2> ! wB97X-D3 def2-TZVP TIGHTSCF CHELPG PMODEL PAL8
|  3>
|  4> %base "8-143_DFT_AB"
|  5>
|  6> %scf
|  7> MaxIter 1000
|  8> end
|  9>
| 10> * xyz 0 1
| 11>   C                      3.227038             0.299315             2.583247
| 12>   O                      2.666419             0.055697             1.319139
| 13>   H                      2.532418             -0.879725            1.086573
| 14>   H                      4.019190             -0.355166            2.838296
| 15>   H                      3.630524             1.336282             2.668777
| 16>   H                      2.489073             0.331264             3.443880
| 17>   C                      3.730995             2.317189             -1.471593
| 18>   O                      3.017207             2.651686             -0.297520
| 19>   H                      2.945211             1.813269             0.187518
| 20>   H                      4.037266             3.179614             -2.126624
| 21>   H                      4.642441             1.821646             -1.217812
| 22>   H                      3.195638             1.613887             -2.159709
| 23> *
| 24>
| 25> #Run DFT-D3 single point of the molecule with dimer basis set
| 26> $new_job
| 27> %base "8-143_DFT_A"
| 28> ! wB97X-D3 def2-TZVP TIGHTSCF CHELPG PMODEL
| 29>
| 30> %scf
| 31> MaxIter 1000
| 32> end
| 33>
| 34> * xyz 0 1
| 35>   C                      3.227038             0.299315             2.583247
| 36>   O                      2.666419             0.055697             1.319139
| 37>   H                      2.532418             -0.879725            1.086573
| 38>   H                      4.019190             -0.355166            2.838296
| 39>   H                      3.630524             1.336282             2.668777
| 40>   H                      2.489073             0.331264             3.443880
| 41>   C                    : 3.730995             2.317189             -1.471593
| 42>   O                    : 3.017207             2.651686             -0.297520
| 43>   H                    : 2.945211             1.813269             0.187518
| 44>   H                    : 4.037266             3.179614             -2.126624
| 45>   H                    : 4.642441             1.821646             -1.217812
| 46>   H                    : 3.195638             1.613887             -2.159709
| 47> *
| 48>
| 49> #Run DFT-D3 single point of the particle with dimer basis set
| 50> $new_job
| 51> %base "8-143_DFT_B"
| 52> ! wB97X-D3 def2-TZVP TIGHTSCF CHELPG PMODEL
| 53>
| 54> %scf
| 55> MaxIter 1000
| 56> end
| 57>
| 58> * xyz 0 1
| 59>   C                    : 3.227038             0.299315             2.583247
| 60>   O                    : 2.666419             0.055697             1.319139
| 61>   H                    : 2.532418             -0.879725            1.086573
| 62>   H                    : 4.019190             -0.355166            2.838296
| 63>   H                    : 3.630524             1.336282             2.668777
| 64>   H                    : 2.489073             0.331264             3.443880
| 65>   C                      3.730995             2.317189             -1.471593
| 66>   O                      3.017207             2.651686             -0.297520
| 67>   H                      2.945211             1.813269             0.187518
| 68>   H                      4.037266             3.179614             -2.126624
| 69>   H                      4.642441             1.821646             -1.217812
| 70>   H                      3.195638             1.613887             -2.159709
| 71> *
| 72>
| 73>                          ****END OF INPUT****
 Total Charge           Charge          ....    0
 Multiplicity           Mult            ....    1
 Number of Electrons    NEL             ....   36
Dispersion correction           -0.001705935
FINAL SINGLE POINT ENERGY      -231.472278171666
Dispersion correction           -0.000278452
FINAL SINGLE POINT ENERGY      -115.731290796573

CARTESIAN COORDINATES (ANGSTROEM)
---------------------------------
  C      3.227038    0.299315    2.583247
  O      2.666419    0.055697    1.319139
  H      2.532418   -0.879725    1.086573
  H      4.019190   -0.355166    2.838296
  H      3.630524    1.336282    2.668777
  H      2.489073    0.331264    3.443880
  C      3.730995    2.317189   -1.471593
  O      3.017207    2.651686   -0.297520
  H      2.945211    1.813269    0.187518
  H      4.037266    3.179614   -2.126624
  H      4.642441    1.821646   -1.217812
  H      3.195638    1.613887   -2.159709

 Multiplicity           Mult            ....    1
 Number of Electrons    NEL             ....   18
 Basis Dimension        Dim             ....  172

ORBITAL ENERGIES
----------------

  NO   OCC          E(Eh)            E(eV)
   0   2.0000     -19.236270      -523.4455
   1   2.0000     -10.316976      -280.7392
   2   2.0000      -1.138610       -30.9832
   3   2.0000      -0.792688       -21.5701
   4   2.0000      -0.611620       -16.6430
   5   2.0000      -0.539061       -14.6686
   6   2.0000      -0.527885       -14.3645
   7   2.0000      -0.435657       -11.8548
   8   2.0000      -0.374647       -10.1947
   9   0.0000       0.069503         1.8913
  10   0.0000       0.130363         3.5474
  11   0.0000       0.151271         4.1163
  12   0.0000       0.159332         4.3356
  13   0.0000       0.191740         5.2175

MULLIKEN ATOMIC CHARGES
-----------------------
   0 C :   -0.001375
   1 O :   -0.000447
   2 H :    0.000023
   3 H :    0.000182
   4 H :   -0.002439
   5 H :   -0.000092
   6 C :   -0.180112
   7 O :   -0.461448
   8 H :    0.315385
   9 H :    0.121847
  10 H :    0.108427
  11 H :    0.100049
Sum of atomic charges:   -0.0000000

LOEWDIN ATOMIC CHARGES
----------------------
   0 C :   -0.004572
   1 O :   -0.012168
   2 H :   -0.000595
   3 H :   -0.000047
   4 H :   -0.001881
   5 H :   -0.000066
   6 C :   -0.397774
   7 O :   -0.070471
   8 H :    0.186236
   9 H :    0.115111
  10 H :    0.088986
  11 H :    0.097242

  Mayer bond orders larger than 0.1
B(  6-C ,  7-O ) :   0.9942 B(  6-C ,  9-H ) :   0.9708 B(  6-C , 10-H ) :   0.9788
B(  6-C , 11-H ) :   0.9739 B(  7-O ,  8-H ) :   0.9044

Dispersion correction           -0.000244687
FINAL SINGLE POINT ENERGY      -115.732711657401

DIPOLE MOMENT
-------------
                                X             Y             Z
Electronic contribution:     -0.99009       0.66719       1.57039
Nuclear contribution   :      1.24742      -1.31309      -1.72426
                        -----------------------------------------
Total Dipole Moment    :      0.25733      -0.64590      -0.15387
                        -----------------------------------------
Magnitude (a.u.)       :      0.71210
Magnitude (Debye)      :      1.81001

Rotational constants in cm-1:     4.324998     0.822580     0.789909
Rotational constants in MHz : 129660.174321 24660.340986 23680.889639

                             ****ORCA TERMINATED NORMALLY****
TOTAL RUN TIME: 0 days 0 hours 0 minutes 47 seconds 636 msec
