                         Program Version 4.1.2  - RELEASE  -
|  1> #Run DFT-D3 single point of the dimer
|  2> ! wB97X-D3 def2-TZVP TIGHTSCF CHELPG PMODEL PAL8
|  3>
|  4> %base "12-90_DFT_AB"
|  5>
|  6> %scf
|  7> MaxIter 1000
|  8> end
|  9>
| 10> * xyz 0 1
| 11>   C                      -8.330021            -3.936850            9.780098
| 12>   O                      -7.082873            -4.366825            9.301597
| 13>   H                      -6.330123            -4.091510            9.880843
| 14>   H                      -9.113728            -4.603709            9.450616
| 15>   H                      -8.289771            -4.009567            10.862791
| 16>   H                      -8.578552            -2.883557            9.468591
| 17>   C                      -5.535434            -7.265024            10.706028
| 18>   O                      -4.300322            -6.619161            10.970741
| 19>   H                      -3.704640            -7.276469            10.740639
| 20>   H                      -5.820015            -7.945253            11.487688
| 21>   H                      -6.413249            -6.635410            10.581916
| 22>   H                      -5.440893            -7.870168            9.772601
| 23> *
| 24>
| 25> #Run DFT-D3 single point of the molecule with dimer basis set
| 26> $new_job
| 27> %base "12-90_DFT_A"
| 28> ! wB97X-D3 def2-TZVP TIGHTSCF CHELPG PMODEL
| 29>
| 30> %scf
| 31> MaxIter 1000
| 32> end
| 33>
| 34> * xyz 0 1
| 35>   C                      -8.330021            -3.936850            9.780098
| 36>   O                      -7.082873            -4.366825            9.301597
| 37>   H                      -6.330123            -4.091510            9.880843
| 38>   H                      -9.113728            -4.603709            9.450616
| 39>   H                      -8.289771            -4.009567            10.862791
| 40>   H                      -8.578552            -2.883557            9.468591
| 41>   C                    : -5.535434            -7.265024            10.706028
| 42>   O                    : -4.300322            -6.619161            10.970741
| 43>   H                    : -3.704640            -7.276469            10.740639
| 44>   H                    : -5.820015            -7.945253            11.487688
| 45>   H                    : -6.413249            -6.635410            10.581916
| 46>   H                    : -5.440893            -7.870168            9.772601
| 47> *
| 48>
| 49> #Run DFT-D3 single point of the particle with dimer basis set
| 50> $new_job
| 51> %base "12-90_DFT_B"
| 52> ! wB97X-D3 def2-TZVP TIGHTSCF CHELPG PMODEL
| 53>
| 54> %scf
| 55> MaxIter 1000
| 56> end
| 57>
| 58> * xyz 0 1
| 59>   C                    : -8.330021            -3.936850            9.780098
| 60>   O                    : -7.082873            -4.366825            9.301597
| 61>   H                    : -6.330123            -4.091510            9.880843
| 62>   H                    : -9.113728            -4.603709            9.450616
| 63>   H                    : -8.289771            -4.009567            10.862791
| 64>   H                    : -8.578552            -2.883557            9.468591
| 65>   C                      -5.535434            -7.265024            10.706028
| 66>   O                      -4.300322            -6.619161            10.970741
| 67>   H                      -3.704640            -7.276469            10.740639
| 68>   H                      -5.820015            -7.945253            11.487688
| 69>   H                      -6.413249            -6.635410            10.581916
| 70>   H                      -5.440893            -7.870168            9.772601
| 71> *
| 72>
| 73>                          ****END OF INPUT****
 Total Charge           Charge          ....    0
 Multiplicity           Mult            ....    1
 Number of Electrons    NEL             ....   36
Dispersion correction           -0.001537270
FINAL SINGLE POINT ENERGY      -231.466553904487
Dispersion correction           -0.000246037
FINAL SINGLE POINT ENERGY      -115.733805446069

CARTESIAN COORDINATES (ANGSTROEM)
---------------------------------
  C     -8.330021   -3.936850    9.780098
  O     -7.082873   -4.366825    9.301597
  H     -6.330123   -4.091510    9.880843
  H     -9.113728   -4.603709    9.450616
  H     -8.289771   -4.009567   10.862791
  H     -8.578552   -2.883557    9.468591
  C     -5.535434   -7.265024   10.706028
  O     -4.300322   -6.619161   10.970741
  H     -3.704640   -7.276469   10.740639
  H     -5.820015   -7.945253   11.487688
  H     -6.413249   -6.635410   10.581916
  H     -5.440893   -7.870168    9.772601

 Multiplicity           Mult            ....    1
 Number of Electrons    NEL             ....   18
 Basis Dimension        Dim             ....  172

ORBITAL ENERGIES
----------------

  NO   OCC          E(Eh)            E(eV)
   0   2.0000     -19.229967      -523.2740
   1   2.0000     -10.314254      -280.6651
   2   2.0000      -1.150167       -31.2976
   3   2.0000      -0.798583       -21.7306
   4   2.0000      -0.614324       -16.7166
   5   2.0000      -0.542004       -14.7487
   6   2.0000      -0.534277       -14.5384
   7   2.0000      -0.440220       -11.9790
   8   2.0000      -0.376364       -10.2414
   9   0.0000       0.087475         2.3803
  10   0.0000       0.119663         3.2562
  11   0.0000       0.155737         4.2378
  12   0.0000       0.173572         4.7231
  13   0.0000       0.191702         5.2165

MULLIKEN ATOMIC CHARGES
-----------------------
   0 C :   -0.000173
   1 O :    0.000528
   2 H :    0.000327
   3 H :   -0.000268
   4 H :    0.000008
   5 H :    0.000020
   6 C :   -0.189576
   7 O :   -0.451765
   8 H :    0.307273
   9 H :    0.110782
  10 H :    0.120961
  11 H :    0.101883
Sum of atomic charges:    0.0000000

LOEWDIN ATOMIC CHARGES
----------------------
   0 C :   -0.001744
   1 O :   -0.002555
   2 H :   -0.001461
   3 H :   -0.000107
   4 H :   -0.000258
   5 H :   -0.000023
   6 C :   -0.383040
   7 O :   -0.054548
   8 H :    0.144448
   9 H :    0.091204
  10 H :    0.106866
  11 H :    0.101219

  Mayer bond orders larger than 0.1
B(  6-C ,  7-O ) :   0.9983 B(  6-C ,  9-H ) :   0.9739 B(  6-C , 10-H ) :   0.9736
B(  6-C , 11-H ) :   0.9886 B(  7-O ,  8-H ) :   0.9128

Dispersion correction           -0.000227322
FINAL SINGLE POINT ENERGY      -115.730132477119

DIPOLE MOMENT
-------------
                                X             Y             Z
Electronic contribution:      1.56362       1.08527       0.44452
Nuclear contribution   :     -1.67983      -1.75230      -0.69181
                        -----------------------------------------
Total Dipole Moment    :     -0.11621      -0.66703      -0.24729
                        -----------------------------------------
Magnitude (a.u.)       :      0.72082
Magnitude (Debye)      :      1.83218

Rotational constants in cm-1:     4.439579     0.829034     0.797850
Rotational constants in MHz : 133095.218976 24853.809241 23918.945657

                             ****ORCA TERMINATED NORMALLY****
TOTAL RUN TIME: 0 days 0 hours 1 minutes 4 seconds 725 msec
