                         Program Version 4.1.2  - RELEASE  -
|  1> #Run DFT-D3 single point of the dimer
|  2> ! wB97X-D3 def2-TZVP TIGHTSCF CHELPG PMODEL PAL8
|  3>
|  4> %base "3-181_DFT_AB"
|  5>
|  6> %scf
|  7> MaxIter 1000
|  8> end
|  9>
| 10> * xyz 0 1
| 11>   C                      4.116040             3.646797             5.150770
| 12>   O                      5.314399             3.405780             4.517782
| 13>   H                      5.522391             4.067591             3.865315
| 14>   H                      4.059715             4.503963             5.810762
| 15>   H                      3.306977             3.937152             4.436309
| 16>   H                      3.812589             2.736741             5.676938
| 17>   C                      4.848953             1.340181             0.947350
| 18>   O                      5.001859             0.304335             1.898292
| 19>   H                      4.510432             0.503316             2.714036
| 20>   H                      5.085861             2.371400             1.327019
| 21>   H                      5.514428             1.175361             0.105309
| 22>   H                      3.768077             1.411287             0.618758
| 23> *
| 24>
| 25> #Run DFT-D3 single point of the molecule with dimer basis set
| 26> $new_job
| 27> %base "3-181_DFT_A"
| 28> ! wB97X-D3 def2-TZVP TIGHTSCF CHELPG PMODEL
| 29>
| 30> %scf
| 31> MaxIter 1000
| 32> end
| 33>
| 34> * xyz 0 1
| 35>   C                      4.116040             3.646797             5.150770
| 36>   O                      5.314399             3.405780             4.517782
| 37>   H                      5.522391             4.067591             3.865315
| 38>   H                      4.059715             4.503963             5.810762
| 39>   H                      3.306977             3.937152             4.436309
| 40>   H                      3.812589             2.736741             5.676938
| 41>   C                    : 4.848953             1.340181             0.947350
| 42>   O                    : 5.001859             0.304335             1.898292
| 43>   H                    : 4.510432             0.503316             2.714036
| 44>   H                    : 5.085861             2.371400             1.327019
| 45>   H                    : 5.514428             1.175361             0.105309
| 46>   H                    : 3.768077             1.411287             0.618758
| 47> *
| 48>
| 49> #Run DFT-D3 single point of the particle with dimer basis set
| 50> $new_job
| 51> %base "3-181_DFT_B"
| 52> ! wB97X-D3 def2-TZVP TIGHTSCF CHELPG PMODEL
| 53>
| 54> %scf
| 55> MaxIter 1000
| 56> end
| 57>
| 58> * xyz 0 1
| 59>   C                    : 4.116040             3.646797             5.150770
| 60>   O                    : 5.314399             3.405780             4.517782
| 61>   H                    : 5.522391             4.067591             3.865315
| 62>   H                    : 4.059715             4.503963             5.810762
| 63>   H                    : 3.306977             3.937152             4.436309
| 64>   H                    : 3.812589             2.736741             5.676938
| 65>   C                      4.848953             1.340181             0.947350
| 66>   O                      5.001859             0.304335             1.898292
| 67>   H                      4.510432             0.503316             2.714036
| 68>   H                      5.085861             2.371400             1.327019
| 69>   H                      5.514428             1.175361             0.105309
| 70>   H                      3.768077             1.411287             0.618758
| 71> *
| 72>
| 73>                          ****END OF INPUT****
 Total Charge           Charge          ....    0
 Multiplicity           Mult            ....    1
 Number of Electrons    NEL             ....   36
Dispersion correction           -0.001330595
FINAL SINGLE POINT ENERGY      -231.469622101365
Dispersion correction           -0.000245258
FINAL SINGLE POINT ENERGY      -115.733569330082

CARTESIAN COORDINATES (ANGSTROEM)
---------------------------------
  C      4.116040    3.646797    5.150770
  O      5.314399    3.405780    4.517782
  H      5.522391    4.067591    3.865315
  H      4.059715    4.503963    5.810762
  H      3.306977    3.937152    4.436309
  H      3.812589    2.736741    5.676938
  C      4.848953    1.340181    0.947350
  O      5.001859    0.304335    1.898292
  H      4.510432    0.503316    2.714036
  H      5.085861    2.371400    1.327019
  H      5.514428    1.175361    0.105309
  H      3.768077    1.411287    0.618758

 Multiplicity           Mult            ....    1
 Number of Electrons    NEL             ....   18
 Basis Dimension        Dim             ....  172

ORBITAL ENERGIES
----------------

  NO   OCC          E(Eh)            E(eV)
   0   2.0000     -19.232412      -523.3405
   1   2.0000     -10.319840      -280.8171
   2   2.0000      -1.132732       -30.8232
   3   2.0000      -0.792113       -21.5545
   4   2.0000      -0.610544       -16.6137
   5   2.0000      -0.537360       -14.6223
   6   2.0000      -0.523590       -14.2476
   7   2.0000      -0.433004       -11.7826
   8   2.0000      -0.370899       -10.0927
   9   0.0000       0.070945         1.9305
  10   0.0000       0.124092         3.3767
  11   0.0000       0.141366         3.8468
  12   0.0000       0.164208         4.4683
  13   0.0000       0.193844         5.2748

MULLIKEN ATOMIC CHARGES
-----------------------
   0 C :   -0.000342
   1 O :    0.000124
   2 H :   -0.000119
   3 H :   -0.000004
   4 H :   -0.000044
   5 H :    0.000055
   6 C :   -0.161952
   7 O :   -0.476392
   8 H :    0.318319
   9 H :    0.096254
  10 H :    0.126492
  11 H :    0.097608
Sum of atomic charges:   -0.0000000

LOEWDIN ATOMIC CHARGES
----------------------
   0 C :   -0.000417
   1 O :   -0.000351
   2 H :   -0.000706
   3 H :   -0.000015
   4 H :   -0.000035
   5 H :   -0.000050
   6 C :   -0.393406
   7 O :   -0.083051
   8 H :    0.175490
   9 H :    0.096109
  10 H :    0.106783
  11 H :    0.099647

  Mayer bond orders larger than 0.1
B(  6-C ,  7-O ) :   1.0019 B(  6-C ,  9-H ) :   0.9697 B(  6-C , 10-H ) :   0.9715
B(  6-C , 11-H ) :   0.9770 B(  7-O ,  8-H ) :   0.8939

Dispersion correction           -0.000262337
FINAL SINGLE POINT ENERGY      -115.734782392328

DIPOLE MOMENT
-------------
                                X             Y             Z
Electronic contribution:      0.35444      -1.48296       1.12048
Nuclear contribution   :     -0.70915       2.01576      -0.97505
                        -----------------------------------------
Total Dipole Moment    :     -0.35471       0.53281       0.14543
                        -----------------------------------------
Magnitude (a.u.)       :      0.65640
Magnitude (Debye)      :      1.66843

Rotational constants in cm-1:     4.220339     0.819736     0.789245
Rotational constants in MHz : 126522.566549 24575.052618 23660.976472

                             ****ORCA TERMINATED NORMALLY****
TOTAL RUN TIME: 0 days 0 hours 5 minutes 58 seconds 764 msec
