                         Program Version 4.1.2  - RELEASE  -
|  1> #Run DFT-D3 single point of the dimer
|  2> ! wB97X-D3 def2-TZVP TIGHTSCF CHELPG PMODEL PAL8
|  3>
|  4> %base "14-45_DFT_AB"
|  5>
|  6> %scf
|  7> MaxIter 1000
|  8> end
|  9>
| 10> * xyz 0 1
| 11>   C                      10.841088            -7.127061            -6.891285
| 12>   O                      10.495546            -7.092162            -5.484353
| 13>   H                      9.956987             -6.291068            -5.245316
| 14>   H                      9.927392             -6.872766            -7.502368
| 15>   H                      11.640231            -6.359361            -7.120319
| 16>   H                      11.277844            -8.122326            -7.267426
| 17>   C                      5.199033             -9.097002            -3.574988
| 18>   O                      6.451183             -8.695826            -4.091905
| 19>   H                      6.443825             -8.843585            -5.019329
| 20>   H                      5.190633             -9.018108            -2.425357
| 21>   H                      4.430538             -8.410827            -3.947022
| 22>   H                      4.918615             -10.093391           -3.951193
| 23> *
| 24>
| 25> #Run DFT-D3 single point of the molecule with dimer basis set
| 26> $new_job
| 27> %base "14-45_DFT_A"
| 28> ! wB97X-D3 def2-TZVP TIGHTSCF CHELPG PMODEL
| 29>
| 30> %scf
| 31> MaxIter 1000
| 32> end
| 33>
| 34> * xyz 0 1
| 35>   C                      10.841088            -7.127061            -6.891285
| 36>   O                      10.495546            -7.092162            -5.484353
| 37>   H                      9.956987             -6.291068            -5.245316
| 38>   H                      9.927392             -6.872766            -7.502368
| 39>   H                      11.640231            -6.359361            -7.120319
| 40>   H                      11.277844            -8.122326            -7.267426
| 41>   C                    : 5.199033             -9.097002            -3.574988
| 42>   O                    : 6.451183             -8.695826            -4.091905
| 43>   H                    : 6.443825             -8.843585            -5.019329
| 44>   H                    : 5.190633             -9.018108            -2.425357
| 45>   H                    : 4.430538             -8.410827            -3.947022
| 46>   H                    : 4.918615             -10.093391           -3.951193
| 47> *
| 48>
| 49> #Run DFT-D3 single point of the particle with dimer basis set
| 50> $new_job
| 51> %base "14-45_DFT_B"
| 52> ! wB97X-D3 def2-TZVP TIGHTSCF CHELPG PMODEL
| 53>
| 54> %scf
| 55> MaxIter 1000
| 56> end
| 57>
| 58> * xyz 0 1
| 59>   C                    : 10.841088            -7.127061            -6.891285
| 60>   O                    : 10.495546            -7.092162            -5.484353
| 61>   H                    : 9.956987             -6.291068            -5.245316
| 62>   H                    : 9.927392             -6.872766            -7.502368
| 63>   H                    : 11.640231            -6.359361            -7.120319
| 64>   H                    : 11.277844            -8.122326            -7.267426
| 65>   C                      5.199033             -9.097002            -3.574988
| 66>   O                      6.451183             -8.695826            -4.091905
| 67>   H                      6.443825             -8.843585            -5.019329
| 68>   H                      5.190633             -9.018108            -2.425357
| 69>   H                      4.430538             -8.410827            -3.947022
| 70>   H                      4.918615             -10.093391           -3.951193
| 71> *
| 72>
| 73>                          ****END OF INPUT****
 Total Charge           Charge          ....    0
 Multiplicity           Mult            ....    1
 Number of Electrons    NEL             ....   36
Dispersion correction           -0.000690967
FINAL SINGLE POINT ENERGY      -231.461135874824
Dispersion correction           -0.000287305
FINAL SINGLE POINT ENERGY      -115.728208615122

CARTESIAN COORDINATES (ANGSTROEM)
---------------------------------
  C     10.841088   -7.127061   -6.891285
  O     10.495546   -7.092162   -5.484353
  H      9.956987   -6.291068   -5.245316
  H      9.927392   -6.872766   -7.502368
  H     11.640231   -6.359361   -7.120319
  H     11.277844   -8.122326   -7.267426
  C      5.199033   -9.097002   -3.574988
  O      6.451183   -8.695826   -4.091905
  H      6.443825   -8.843585   -5.019329
  H      5.190633   -9.018108   -2.425357
  H      4.430538   -8.410827   -3.947022
  H      4.918615  -10.093391   -3.951193

 Multiplicity           Mult            ....    1
 Number of Electrons    NEL             ....   18
 Basis Dimension        Dim             ....  172

ORBITAL ENERGIES
----------------

  NO   OCC          E(Eh)            E(eV)
   0   2.0000     -19.227111      -523.1963
   1   2.0000     -10.320508      -280.8353
   2   2.0000      -1.140813       -31.0431
   3   2.0000      -0.791432       -21.5359
   4   2.0000      -0.614271       -16.7152
   5   2.0000      -0.539373       -14.6771
   6   2.0000      -0.524121       -14.2621
   7   2.0000      -0.434728       -11.8295
   8   2.0000      -0.370936       -10.0937
   9   0.0000       0.087450         2.3796
  10   0.0000       0.116543         3.1713
  11   0.0000       0.152104         4.1390
  12   0.0000       0.170979         4.6526
  13   0.0000       0.195666         5.3243

MULLIKEN ATOMIC CHARGES
-----------------------
   0 C :    0.000005
   1 O :   -0.000024
   2 H :   -0.000183
   3 H :   -0.000010
   4 H :   -0.000001
   5 H :    0.000003
   6 C :   -0.163465
   7 O :   -0.469132
   8 H :    0.310543
   9 H :    0.120749
  10 H :    0.102494
  11 H :    0.099021
Sum of atomic charges:   -0.0000000

LOEWDIN ATOMIC CHARGES
----------------------
   0 C :   -0.000010
   1 O :   -0.000028
   2 H :   -0.000111
   3 H :   -0.000003
   4 H :   -0.000000
   5 H :   -0.000000
   6 C :   -0.391156
   7 O :   -0.070164
   8 H :    0.154747
   9 H :    0.120353
  10 H :    0.092628
  11 H :    0.093744

  Mayer bond orders larger than 0.1
B(  6-C ,  7-O ) :   0.9937 B(  6-C ,  9-H ) :   0.9695 B(  6-C , 10-H ) :   0.9776
B(  6-C , 11-H ) :   0.9768 B(  7-O ,  8-H ) :   0.9033

Dispersion correction           -0.000233672
FINAL SINGLE POINT ENERGY      -115.733111467221

DIPOLE MOMENT
-------------
                                X             Y             Z
Electronic contribution:      1.67804       0.48344      -0.51253
Nuclear contribution   :     -2.18331      -0.73063       0.10990
                        -----------------------------------------
Total Dipole Moment    :     -0.50527      -0.24719      -0.40263
                        -----------------------------------------
Magnitude (a.u.)       :      0.69174
Magnitude (Debye)      :      1.75827

Rotational constants in cm-1:     4.161319     0.836968     0.797465
Rotational constants in MHz : 124753.199683 25091.665622 23907.410161

                             ****ORCA TERMINATED NORMALLY****
TOTAL RUN TIME: 0 days 0 hours 0 minutes 57 seconds 977 msec
