                         Program Version 4.1.2  - RELEASE  -
|  1> #Run DFT-D3 single point of the dimer
|  2> ! wB97X-D3 def2-TZVP TIGHTSCF CHELPG PMODEL PAL8
|  3>
|  4> %base "14-118_DFT_AB"
|  5>
|  6> %scf
|  7> MaxIter 1000
|  8> end
|  9>
| 10> * xyz 0 1
| 11>   C                      -3.307224            -8.265760            -8.116430
| 12>   O                      -2.245746            -8.230731            -7.104452
| 13>   H                      -2.675553            -8.615451            -6.387941
| 14>   H                      -3.365377            -9.278434            -8.597574
| 15>   H                      -4.354667            -8.109546            -7.761746
| 16>   H                      -3.089242            -7.494867            -8.978860
| 17>   C                      -1.615258            -7.812127            -3.187670
| 18>   O                      -1.642978            -8.634937            -4.312714
| 19>   H                      -0.824361            -9.154320            -4.280424
| 20>   H                      -1.920320            -8.314791            -2.223420
| 21>   H                      -0.692830            -7.435265            -2.963186
| 22>   H                      -2.304978            -6.980117            -3.242377
| 23> *
| 24>
| 25> #Run DFT-D3 single point of the molecule with dimer basis set
| 26> $new_job
| 27> %base "14-118_DFT_A"
| 28> ! wB97X-D3 def2-TZVP TIGHTSCF CHELPG PMODEL
| 29>
| 30> %scf
| 31> MaxIter 1000
| 32> end
| 33>
| 34> * xyz 0 1
| 35>   C                      -3.307224            -8.265760            -8.116430
| 36>   O                      -2.245746            -8.230731            -7.104452
| 37>   H                      -2.675553            -8.615451            -6.387941
| 38>   H                      -3.365377            -9.278434            -8.597574
| 39>   H                      -4.354667            -8.109546            -7.761746
| 40>   H                      -3.089242            -7.494867            -8.978860
| 41>   C                    : -1.615258            -7.812127            -3.187670
| 42>   O                    : -1.642978            -8.634937            -4.312714
| 43>   H                    : -0.824361            -9.154320            -4.280424
| 44>   H                    : -1.920320            -8.314791            -2.223420
| 45>   H                    : -0.692830            -7.435265            -2.963186
| 46>   H                    : -2.304978            -6.980117            -3.242377
| 47> *
| 48>
| 49> #Run DFT-D3 single point of the particle with dimer basis set
| 50> $new_job
| 51> %base "14-118_DFT_B"
| 52> ! wB97X-D3 def2-TZVP TIGHTSCF CHELPG PMODEL
| 53>
| 54> %scf
| 55> MaxIter 1000
| 56> end
| 57>
| 58> * xyz 0 1
| 59>   C                    : -3.307224            -8.265760            -8.116430
| 60>   O                    : -2.245746            -8.230731            -7.104452
| 61>   H                    : -2.675553            -8.615451            -6.387941
| 62>   H                    : -3.365377            -9.278434            -8.597574
| 63>   H                    : -4.354667            -8.109546            -7.761746
| 64>   H                    : -3.089242            -7.494867            -8.978860
| 65>   C                      -1.615258            -7.812127            -3.187670
| 66>   O                      -1.642978            -8.634937            -4.312714
| 67>   H                      -0.824361            -9.154320            -4.280424
| 68>   H                      -1.920320            -8.314791            -2.223420
| 69>   H                      -0.692830            -7.435265            -2.963186
| 70>   H                      -2.304978            -6.980117            -3.242377
| 71> *
| 72>
| 73>                          ****END OF INPUT****
 Total Charge           Charge          ....    0
 Multiplicity           Mult            ....    1
 Number of Electrons    NEL             ....   36
Dispersion correction           -0.001350061
FINAL SINGLE POINT ENERGY      -231.458938186412
Dispersion correction           -0.000281296
FINAL SINGLE POINT ENERGY      -115.725587935238

CARTESIAN COORDINATES (ANGSTROEM)
---------------------------------
  C     -3.307224   -8.265760   -8.116430
  O     -2.245746   -8.230731   -7.104452
  H     -2.675553   -8.615451   -6.387941
  H     -3.365377   -9.278434   -8.597574
  H     -4.354667   -8.109546   -7.761746
  H     -3.089242   -7.494867   -8.978860
  C     -1.615258   -7.812127   -3.187670
  O     -1.642978   -8.634937   -4.312714
  H     -0.824361   -9.154320   -4.280424
  H     -1.920320   -8.314791   -2.223420
  H     -0.692830   -7.435265   -2.963186
  H     -2.304978   -6.980117   -3.242377

 Multiplicity           Mult            ....    1
 Number of Electrons    NEL             ....   18
 Basis Dimension        Dim             ....  172

ORBITAL ENERGIES
----------------

  NO   OCC          E(Eh)            E(eV)
   0   2.0000     -19.236381      -523.4485
   1   2.0000     -10.305934      -280.4387
   2   2.0000      -1.144256       -31.1368
   3   2.0000      -0.800619       -21.7860
   4   2.0000      -0.622185       -16.9305
   5   2.0000      -0.538762       -14.6605
   6   2.0000      -0.531138       -14.4530
   7   2.0000      -0.441312       -12.0087
   8   2.0000      -0.372192       -10.1279
   9   0.0000       0.098224         2.6728
  10   0.0000       0.116858         3.1799
  11   0.0000       0.152265         4.1433
  12   0.0000       0.191375         5.2076
  13   0.0000       0.203910         5.5487

MULLIKEN ATOMIC CHARGES
-----------------------
   0 C :    0.000704
   1 O :    0.000436
   2 H :   -0.010618
   3 H :   -0.000044
   4 H :   -0.000024
   5 H :    0.000017
   6 C :   -0.159620
   7 O :   -0.452750
   8 H :    0.315801
   9 H :    0.083770
  10 H :    0.105961
  11 H :    0.116368
Sum of atomic charges:    0.0000000

LOEWDIN ATOMIC CHARGES
----------------------
   0 C :   -0.000445
   1 O :   -0.008736
   2 H :   -0.018639
   3 H :   -0.000009
   4 H :   -0.000007
   5 H :   -0.000009
   6 C :   -0.399621
   7 O :   -0.036923
   8 H :    0.180898
   9 H :    0.099273
  10 H :    0.078073
  11 H :    0.106145

  Mayer bond orders larger than 0.1
B(  6-C ,  7-O ) :   1.0077 B(  6-C ,  9-H ) :   0.9726 B(  6-C , 10-H ) :   0.9788
B(  6-C , 11-H ) :   0.9787 B(  7-O ,  8-H ) :   0.8956

Dispersion correction           -0.000238697
FINAL SINGLE POINT ENERGY      -115.730189813505

DIPOLE MOMENT
-------------
                                X             Y             Z
Electronic contribution:     -0.08241      -0.99933      -1.68723
Nuclear contribution   :      0.64069       1.01438       2.13358
                        -----------------------------------------
Total Dipole Moment    :      0.55828       0.01505       0.44635
                        -----------------------------------------
Magnitude (a.u.)       :      0.71493
Magnitude (Debye)      :      1.81722

Rotational constants in cm-1:     4.536171     0.843840     0.810449
Rotational constants in MHz : 135990.972898 25297.675440 24296.653280

                             ****ORCA TERMINATED NORMALLY****
TOTAL RUN TIME: 0 days 0 hours 1 minutes 8 seconds 646 msec
