                         Program Version 4.1.2  - RELEASE  -
|  1> #Run DFT-D3 single point of the dimer
|  2> ! wB97X-D3 def2-TZVP TIGHTSCF CHELPG PMODEL PAL8
|  3>
|  4> %base "13-221_DFT_AB"
|  5>
|  6> %scf
|  7> MaxIter 1000
|  8> end
|  9>
| 10> * xyz 0 1
| 11>   C                      -0.316816            10.860609            -6.244306
| 12>   O                      -1.055440            9.657415             -6.546950
| 13>   H                      -1.742806            9.931847             -7.157922
| 14>   H                      0.683747             10.665189            -5.796682
| 15>   H                      -0.178979            11.554960            -7.172475
| 16>   H                      -0.941176            11.557905            -5.681207
| 17>   C                      0.332821             8.735795             -10.091909
| 18>   O                      0.024232             9.938775             -9.422900
| 19>   H                      -0.857401            10.133524            -9.670572
| 20>   H                      0.095557             8.793640             -11.184364
| 21>   H                      1.368245             8.455373             -9.889445
| 22>   H                      -0.206357            7.921460             -9.630460
| 23> *
| 24>
| 25> #Run DFT-D3 single point of the molecule with dimer basis set
| 26> $new_job
| 27> %base "13-221_DFT_A"
| 28> ! wB97X-D3 def2-TZVP TIGHTSCF CHELPG PMODEL
| 29>
| 30> %scf
| 31> MaxIter 1000
| 32> end
| 33>
| 34> * xyz 0 1
| 35>   C                      -0.316816            10.860609            -6.244306
| 36>   O                      -1.055440            9.657415             -6.546950
| 37>   H                      -1.742806            9.931847             -7.157922
| 38>   H                      0.683747             10.665189            -5.796682
| 39>   H                      -0.178979            11.554960            -7.172475
| 40>   H                      -0.941176            11.557905            -5.681207
| 41>   C                    : 0.332821             8.735795             -10.091909
| 42>   O                    : 0.024232             9.938775             -9.422900
| 43>   H                    : -0.857401            10.133524            -9.670572
| 44>   H                    : 0.095557             8.793640             -11.184364
| 45>   H                    : 1.368245             8.455373             -9.889445
| 46>   H                    : -0.206357            7.921460             -9.630460
| 47> *
| 48>
| 49> #Run DFT-D3 single point of the particle with dimer basis set
| 50> $new_job
| 51> %base "13-221_DFT_B"
| 52> ! wB97X-D3 def2-TZVP TIGHTSCF CHELPG PMODEL
| 53>
| 54> %scf
| 55> MaxIter 1000
| 56> end
| 57>
| 58> * xyz 0 1
| 59>   C                    : -0.316816            10.860609            -6.244306
| 60>   O                    : -1.055440            9.657415             -6.546950
| 61>   H                    : -1.742806            9.931847             -7.157922
| 62>   H                    : 0.683747             10.665189            -5.796682
| 63>   H                    : -0.178979            11.554960            -7.172475
| 64>   H                    : -0.941176            11.557905            -5.681207
| 65>   C                      0.332821             8.735795             -10.091909
| 66>   O                      0.024232             9.938775             -9.422900
| 67>   H                      -0.857401            10.133524            -9.670572
| 68>   H                      0.095557             8.793640             -11.184364
| 69>   H                      1.368245             8.455373             -9.889445
| 70>   H                      -0.206357            7.921460             -9.630460
| 71> *
| 72>
| 73>                          ****END OF INPUT****
 Total Charge           Charge          ....    0
 Multiplicity           Mult            ....    1
 Number of Electrons    NEL             ....   36
Dispersion correction           -0.001925010
FINAL SINGLE POINT ENERGY      -231.461236330673
Dispersion correction           -0.000259408
FINAL SINGLE POINT ENERGY      -115.728083136969

CARTESIAN COORDINATES (ANGSTROEM)
---------------------------------
  C     -0.316816   10.860609   -6.244306
  O     -1.055440    9.657415   -6.546950
  H     -1.742806    9.931847   -7.157922
  H      0.683747   10.665189   -5.796682
  H     -0.178979   11.554960   -7.172475
  H     -0.941176   11.557905   -5.681207
  C      0.332821    8.735795  -10.091909
  O      0.024232    9.938775   -9.422900
  H     -0.857401   10.133524   -9.670572
  H      0.095557    8.793640  -11.184364
  H      1.368245    8.455373   -9.889445
  H     -0.206357    7.921460   -9.630460

 Multiplicity           Mult            ....    1
 Number of Electrons    NEL             ....   18
 Basis Dimension        Dim             ....  172

ORBITAL ENERGIES
----------------

  NO   OCC          E(Eh)            E(eV)
   0   2.0000     -19.229464      -523.2603
   1   2.0000     -10.314086      -280.6606
   2   2.0000      -1.144843       -31.1528
   3   2.0000      -0.796135       -21.6639
   4   2.0000      -0.612119       -16.6566
   5   2.0000      -0.547373       -14.8948
   6   2.0000      -0.527300       -14.3486
   7   2.0000      -0.437822       -11.9138
   8   2.0000      -0.374145       -10.1810
   9   0.0000       0.093557         2.5458
  10   0.0000       0.127884         3.4799
  11   0.0000       0.157154         4.2764
  12   0.0000       0.175949         4.7878
  13   0.0000       0.195486         5.3194

MULLIKEN ATOMIC CHARGES
-----------------------
   0 C :    0.003843
   1 O :    0.000330
   2 H :   -0.006796
   3 H :   -0.000369
   4 H :   -0.005513
   5 H :   -0.000372
   6 C :   -0.165264
   7 O :   -0.460379
   8 H :    0.311050
   9 H :    0.104014
  10 H :    0.118027
  11 H :    0.101429
Sum of atomic charges:   -0.0000000

LOEWDIN ATOMIC CHARGES
----------------------
   0 C :   -0.009903
   1 O :   -0.004855
   2 H :   -0.005040
   3 H :   -0.000303
   4 H :   -0.005251
   5 H :   -0.000119
   6 C :   -0.388406
   7 O :   -0.044157
   8 H :    0.155950
   9 H :    0.101407
  10 H :    0.108681
  11 H :    0.091997

  Mayer bond orders larger than 0.1
B(  6-C ,  7-O ) :   0.9935 B(  6-C ,  9-H ) :   0.9740 B(  6-C , 10-H ) :   0.9756
B(  6-C , 11-H ) :   0.9777 B(  7-O ,  8-H ) :   0.9040

Dispersion correction           -0.000224684
FINAL SINGLE POINT ENERGY      -115.734608310520

DIPOLE MOMENT
-------------
                                X             Y             Z
Electronic contribution:     -0.23949       1.58330       0.84156
Nuclear contribution   :     -0.18735      -1.94946      -1.25452
                        -----------------------------------------
Total Dipole Moment    :     -0.42684      -0.36616      -0.41297
                        -----------------------------------------
Magnitude (a.u.)       :      0.69772
Magnitude (Debye)      :      1.77346

Rotational constants in cm-1:     4.266396     0.842214     0.808853
Rotational constants in MHz : 127903.345838 25248.951848 24248.801453

                             ****ORCA TERMINATED NORMALLY****
TOTAL RUN TIME: 0 days 0 hours 1 minutes 9 seconds 500 msec
