                         Program Version 4.1.2  - RELEASE  -
|  1> #Run DFT-D3 single point of the dimer
|  2> ! wB97X-D3 def2-TZVP TIGHTSCF CHELPG PMODEL PAL8
|  3>
|  4> %base "6-67_DFT_AB"
|  5>
|  6> %scf
|  7> MaxIter 1000
|  8> end
|  9>
| 10> * xyz 0 1
| 11>   C                      -6.106169            -7.139025            5.478536
| 12>   O                      -7.250673            -6.358448            5.904261
| 13>   H                      -7.580413            -5.854131            5.158850
| 14>   H                      -5.225424            -6.537199            5.228452
| 15>   H                      -5.853161            -7.888103            6.266709
| 16>   H                      -6.381485            -7.683977            4.536477
| 17>   C                      -3.036641            -11.175041           4.824527
| 18>   O                      -4.159061            -10.417482           5.185010
| 19>   H                      -3.842979            -9.495012            5.362892
| 20>   H                      -2.410356            -10.592629           4.129413
| 21>   H                      -2.444468            -11.534738           5.656551
| 22>   H                      -3.286201            -12.045561           4.257328
| 23> *
| 24>
| 25> #Run DFT-D3 single point of the molecule with dimer basis set
| 26> $new_job
| 27> %base "6-67_DFT_A"
| 28> ! wB97X-D3 def2-TZVP TIGHTSCF CHELPG PMODEL
| 29>
| 30> %scf
| 31> MaxIter 1000
| 32> end
| 33>
| 34> * xyz 0 1
| 35>   C                      -6.106169            -7.139025            5.478536
| 36>   O                      -7.250673            -6.358448            5.904261
| 37>   H                      -7.580413            -5.854131            5.158850
| 38>   H                      -5.225424            -6.537199            5.228452
| 39>   H                      -5.853161            -7.888103            6.266709
| 40>   H                      -6.381485            -7.683977            4.536477
| 41>   C                    : -3.036641            -11.175041           4.824527
| 42>   O                    : -4.159061            -10.417482           5.185010
| 43>   H                    : -3.842979            -9.495012            5.362892
| 44>   H                    : -2.410356            -10.592629           4.129413
| 45>   H                    : -2.444468            -11.534738           5.656551
| 46>   H                    : -3.286201            -12.045561           4.257328
| 47> *
| 48>
| 49> #Run DFT-D3 single point of the particle with dimer basis set
| 50> $new_job
| 51> %base "6-67_DFT_B"
| 52> ! wB97X-D3 def2-TZVP TIGHTSCF CHELPG PMODEL
| 53>
| 54> %scf
| 55> MaxIter 1000
| 56> end
| 57>
| 58> * xyz 0 1
| 59>   C                    : -6.106169            -7.139025            5.478536
| 60>   O                    : -7.250673            -6.358448            5.904261
| 61>   H                    : -7.580413            -5.854131            5.158850
| 62>   H                    : -5.225424            -6.537199            5.228452
| 63>   H                    : -5.853161            -7.888103            6.266709
| 64>   H                    : -6.381485            -7.683977            4.536477
| 65>   C                      -3.036641            -11.175041           4.824527
| 66>   O                      -4.159061            -10.417482           5.185010
| 67>   H                      -3.842979            -9.495012            5.362892
| 68>   H                      -2.410356            -10.592629           4.129413
| 69>   H                      -2.444468            -11.534738           5.656551
| 70>   H                      -3.286201            -12.045561           4.257328
| 71> *
| 72>
| 73>                          ****END OF INPUT****
 Total Charge           Charge          ....    0
 Multiplicity           Mult            ....    1
 Number of Electrons    NEL             ....   36
Dispersion correction           -0.001224757
FINAL SINGLE POINT ENERGY      -231.468986302096
Dispersion correction           -0.000261243
FINAL SINGLE POINT ENERGY      -115.734702683523

CARTESIAN COORDINATES (ANGSTROEM)
---------------------------------
  C     -6.106169   -7.139025    5.478536
  O     -7.250673   -6.358448    5.904261
  H     -7.580413   -5.854131    5.158850
  H     -5.225424   -6.537199    5.228452
  H     -5.853161   -7.888103    6.266709
  H     -6.381485   -7.683977    4.536477
  C     -3.036641  -11.175041    4.824527
  O     -4.159061  -10.417482    5.185010
  H     -3.842979   -9.495012    5.362892
  H     -2.410356  -10.592629    4.129413
  H     -2.444468  -11.534738    5.656551
  H     -3.286201  -12.045561    4.257328

 Multiplicity           Mult            ....    1
 Number of Electrons    NEL             ....   18
 Basis Dimension        Dim             ....  172

ORBITAL ENERGIES
----------------

  NO   OCC          E(Eh)            E(eV)
   0   2.0000     -19.234115      -523.3869
   1   2.0000     -10.308769      -280.5159
   2   2.0000      -1.135443       -30.8970
   3   2.0000      -0.795632       -21.6503
   4   2.0000      -0.608358       -16.5543
   5   2.0000      -0.546168       -14.8620
   6   2.0000      -0.532389       -14.4871
   7   2.0000      -0.428230       -11.6527
   8   2.0000      -0.374767       -10.1979
   9   0.0000       0.079548         2.1646
  10   0.0000       0.120236         3.2718
  11   0.0000       0.149429         4.0662
  12   0.0000       0.187510         5.1024
  13   0.0000       0.195588         5.3222

MULLIKEN ATOMIC CHARGES
-----------------------
   0 C :   -0.000396
   1 O :   -0.000013
   2 H :   -0.000007
   3 H :   -0.000009
   4 H :   -0.001453
   5 H :   -0.000878
   6 C :   -0.165617
   7 O :   -0.472463
   8 H :    0.323226
   9 H :    0.097343
  10 H :    0.101139
  11 H :    0.119127
Sum of atomic charges:   -0.0000000

LOEWDIN ATOMIC CHARGES
----------------------
   0 C :   -0.002505
   1 O :   -0.000021
   2 H :   -0.000004
   3 H :   -0.000161
   4 H :   -0.001331
   5 H :   -0.000719
   6 C :   -0.397616
   7 O :   -0.079531
   8 H :    0.191433
   9 H :    0.096947
  10 H :    0.091805
  11 H :    0.101703

  Mayer bond orders larger than 0.1
B(  6-C ,  7-O ) :   1.0082 B(  6-C ,  9-H ) :   0.9884 B(  6-C , 10-H ) :   0.9717
B(  6-C , 11-H ) :   0.9735 B(  7-O ,  8-H ) :   0.8899

Dispersion correction           -0.000238825
FINAL SINGLE POINT ENERGY      -115.733839712489

DIPOLE MOMENT
-------------
                                X             Y             Z
Electronic contribution:     -1.59720       0.83051       0.53263
Nuclear contribution   :      2.22810      -0.56782      -0.58421
                        -----------------------------------------
Total Dipole Moment    :      0.63089       0.26270      -0.05158
                        -----------------------------------------
Magnitude (a.u.)       :      0.68534
Magnitude (Debye)      :      1.74200

Rotational constants in cm-1:     4.371495     0.836793     0.810390
Rotational constants in MHz : 131054.135469 25086.421033 24294.893896

                             ****ORCA TERMINATED NORMALLY****
TOTAL RUN TIME: 0 days 0 hours 1 minutes 4 seconds 125 msec
