                         Program Version 4.1.2  - RELEASE  -
|  1> #Run DFT-D3 single point of the dimer
|  2> ! wB97X-D3 def2-TZVP TIGHTSCF CHELPG PMODEL PAL8
|  3>
|  4> %base "11-163_DFT_AB"
|  5>
|  6> %scf
|  7> MaxIter 1000
|  8> end
|  9>
| 10> * xyz 0 1
| 11>   C                      2.929683             7.565886             6.186065
| 12>   O                      1.994438             8.151976             5.350054
| 13>   H                      2.221781             9.017770             4.981318
| 14>   H                      3.621932             7.006439             5.536390
| 15>   H                      3.616853             8.303369             6.650891
| 16>   H                      2.525832             6.884103             6.957979
| 17>   C                      4.793840             7.418470             2.811903
| 18>   O                      4.656899             8.783272             3.233300
| 19>   H                      3.764442             9.009522             3.134224
| 20>   H                      5.710245             7.339293             2.221049
| 21>   H                      4.829713             6.712218             3.625068
| 22>   H                      3.924075             7.075925             2.209920
| 23> *
| 24>
| 25> #Run DFT-D3 single point of the molecule with dimer basis set
| 26> $new_job
| 27> %base "11-163_DFT_A"
| 28> ! wB97X-D3 def2-TZVP TIGHTSCF CHELPG PMODEL
| 29>
| 30> %scf
| 31> MaxIter 1000
| 32> end
| 33>
| 34> * xyz 0 1
| 35>   C                      2.929683             7.565886             6.186065
| 36>   O                      1.994438             8.151976             5.350054
| 37>   H                      2.221781             9.017770             4.981318
| 38>   H                      3.621932             7.006439             5.536390
| 39>   H                      3.616853             8.303369             6.650891
| 40>   H                      2.525832             6.884103             6.957979
| 41>   C                    : 4.793840             7.418470             2.811903
| 42>   O                    : 4.656899             8.783272             3.233300
| 43>   H                    : 3.764442             9.009522             3.134224
| 44>   H                    : 5.710245             7.339293             2.221049
| 45>   H                    : 4.829713             6.712218             3.625068
| 46>   H                    : 3.924075             7.075925             2.209920
| 47> *
| 48>
| 49> #Run DFT-D3 single point of the particle with dimer basis set
| 50> $new_job
| 51> %base "11-163_DFT_B"
| 52> ! wB97X-D3 def2-TZVP TIGHTSCF CHELPG PMODEL
| 53>
| 54> %scf
| 55> MaxIter 1000
| 56> end
| 57>
| 58> * xyz 0 1
| 59>   C                    : 2.929683             7.565886             6.186065
| 60>   O                    : 1.994438             8.151976             5.350054
| 61>   H                    : 2.221781             9.017770             4.981318
| 62>   H                    : 3.621932             7.006439             5.536390
| 63>   H                    : 3.616853             8.303369             6.650891
| 64>   H                    : 2.525832             6.884103             6.957979
| 65>   C                      4.793840             7.418470             2.811903
| 66>   O                      4.656899             8.783272             3.233300
| 67>   H                      3.764442             9.009522             3.134224
| 68>   H                      5.710245             7.339293             2.221049
| 69>   H                      4.829713             6.712218             3.625068
| 70>   H                      3.924075             7.075925             2.209920
| 71> *
| 72>
| 73>                          ****END OF INPUT****
 Total Charge           Charge          ....    0
 Multiplicity           Mult            ....    1
 Number of Electrons    NEL             ....   36
Dispersion correction           -0.002233995
FINAL SINGLE POINT ENERGY      -231.466696588088
Dispersion correction           -0.000250526
FINAL SINGLE POINT ENERGY      -115.730658877309

CARTESIAN COORDINATES (ANGSTROEM)
---------------------------------
  C      2.929683    7.565886    6.186065
  O      1.994438    8.151976    5.350054
  H      2.221781    9.017770    4.981318
  H      3.621932    7.006439    5.536390
  H      3.616853    8.303369    6.650891
  H      2.525832    6.884103    6.957979
  C      4.793840    7.418470    2.811903
  O      4.656899    8.783272    3.233300
  H      3.764442    9.009522    3.134224
  H      5.710245    7.339293    2.221049
  H      4.829713    6.712218    3.625068
  H      3.924075    7.075925    2.209920

 Multiplicity           Mult            ....    1
 Number of Electrons    NEL             ....   18
 Basis Dimension        Dim             ....  172

ORBITAL ENERGIES
----------------

  NO   OCC          E(Eh)            E(eV)
   0   2.0000     -19.228840      -523.2433
   1   2.0000     -10.316000      -280.7126
   2   2.0000      -1.138533       -30.9811
   3   2.0000      -0.799750       -21.7623
   4   2.0000      -0.614163       -16.7122
   5   2.0000      -0.538628       -14.6568
   6   2.0000      -0.525664       -14.3041
   7   2.0000      -0.439206       -11.9514
   8   2.0000      -0.376887       -10.2556
   9   0.0000       0.083852         2.2817
  10   0.0000       0.130412         3.5487
  11   0.0000       0.145584         3.9615
  12   0.0000       0.181151         4.9294
  13   0.0000       0.194987         5.3059

MULLIKEN ATOMIC CHARGES
-----------------------
   0 C :   -0.001824
   1 O :   -0.000844
   2 H :   -0.004193
   3 H :    0.002927
   4 H :   -0.000418
   5 H :   -0.000021
   6 C :   -0.181654
   7 O :   -0.466326
   8 H :    0.310682
   9 H :    0.128041
  10 H :    0.105811
  11 H :    0.107819
Sum of atomic charges:   -0.0000000

LOEWDIN ATOMIC CHARGES
----------------------
   0 C :   -0.005358
   1 O :   -0.001514
   2 H :   -0.004386
   3 H :   -0.004729
   4 H :   -0.000639
   5 H :   -0.000083
   6 C :   -0.365018
   7 O :   -0.066070
   8 H :    0.145221
   9 H :    0.106592
  10 H :    0.094287
  11 H :    0.101696

  Mayer bond orders larger than 0.1
B(  6-C ,  7-O ) :   0.9994 B(  6-C ,  9-H ) :   0.9794 B(  6-C , 10-H ) :   0.9715
B(  6-C , 11-H ) :   0.9835 B(  7-O ,  8-H ) :   0.9092

Dispersion correction           -0.000252911
FINAL SINGLE POINT ENERGY      -115.734339708119

DIPOLE MOMENT
-------------
                                X             Y             Z
Electronic contribution:     -0.00662       1.75453       0.58490
Nuclear contribution   :     -0.52054      -2.16766      -0.83349
                        -----------------------------------------
Total Dipole Moment    :     -0.52715      -0.41314      -0.24859
                        -----------------------------------------
Magnitude (a.u.)       :      0.71440
Magnitude (Debye)      :      1.81587

Rotational constants in cm-1:     4.360020     0.813890     0.782435
Rotational constants in MHz : 130710.119061 24399.822555 23456.818724

                             ****ORCA TERMINATED NORMALLY****
TOTAL RUN TIME: 0 days 0 hours 1 minutes 11 seconds 500 msec
