                         Program Version 4.1.2  - RELEASE  -
|  1> #Run DFT-D3 single point of the dimer
|  2> ! wB97X-D3 def2-TZVP TIGHTSCF CHELPG PMODEL PAL8
|  3>
|  4> %base "12-192_DFT_AB"
|  5>
|  6> %scf
|  7> MaxIter 1000
|  8> end
|  9>
| 10> * xyz 0 1
| 11>   C                      10.961346            2.850851             -5.350093
| 12>   O                      9.971114             2.798636             -4.283877
| 13>   H                      9.843896             1.898025             -4.011744
| 14>   H                      11.948840            2.543303             -5.002153
| 15>   H                      10.830491            2.248679             -6.269059
| 16>   H                      11.163429            3.825260             -5.675786
| 17>   C                      10.311949            -0.204251            -2.808328
| 18>   O                      10.231334            1.100341             -2.321599
| 19>   H                      10.876962            1.230900             -1.592367
| 20>   H                      9.962635             -0.245599            -3.763337
| 21>   H                      11.283199            -0.694497            -2.911589
| 22>   H                      9.708854             -0.907636            -2.254651
| 23> *
| 24>
| 25> #Run DFT-D3 single point of the molecule with dimer basis set
| 26> $new_job
| 27> %base "12-192_DFT_A"
| 28> ! wB97X-D3 def2-TZVP TIGHTSCF CHELPG PMODEL
| 29>
| 30> %scf
| 31> MaxIter 1000
| 32> end
| 33>
| 34> * xyz 0 1
| 35>   C                      10.961346            2.850851             -5.350093
| 36>   O                      9.971114             2.798636             -4.283877
| 37>   H                      9.843896             1.898025             -4.011744
| 38>   H                      11.948840            2.543303             -5.002153
| 39>   H                      10.830491            2.248679             -6.269059
| 40>   H                      11.163429            3.825260             -5.675786
| 41>   C                    : 10.311949            -0.204251            -2.808328
| 42>   O                    : 10.231334            1.100341             -2.321599
| 43>   H                    : 10.876962            1.230900             -1.592367
| 44>   H                    : 9.962635             -0.245599            -3.763337
| 45>   H                    : 11.283199            -0.694497            -2.911589
| 46>   H                    : 9.708854             -0.907636            -2.254651
| 47> *
| 48>
| 49> #Run DFT-D3 single point of the particle with dimer basis set
| 50> $new_job
| 51> %base "12-192_DFT_B"
| 52> ! wB97X-D3 def2-TZVP TIGHTSCF CHELPG PMODEL
| 53>
| 54> %scf
| 55> MaxIter 1000
| 56> end
| 57>
| 58> * xyz 0 1
| 59>   C                    : 10.961346            2.850851             -5.350093
| 60>   O                    : 9.971114             2.798636             -4.283877
| 61>   H                    : 9.843896             1.898025             -4.011744
| 62>   H                    : 11.948840            2.543303             -5.002153
| 63>   H                    : 10.830491            2.248679             -6.269059
| 64>   H                    : 11.163429            3.825260             -5.675786
| 65>   C                      10.311949            -0.204251            -2.808328
| 66>   O                      10.231334            1.100341             -2.321599
| 67>   H                      10.876962            1.230900             -1.592367
| 68>   H                      9.962635             -0.245599            -3.763337
| 69>   H                      11.283199            -0.694497            -2.911589
| 70>   H                      9.708854             -0.907636            -2.254651
| 71> *
| 72>
| 73>                          ****END OF INPUT****
 Total Charge           Charge          ....    0
 Multiplicity           Mult            ....    1
 Number of Electrons    NEL             ....   36
Dispersion correction           -0.001961975
FINAL SINGLE POINT ENERGY      -231.457045176197
Dispersion correction           -0.000289611
FINAL SINGLE POINT ENERGY      -115.729794617743

CARTESIAN COORDINATES (ANGSTROEM)
---------------------------------
  C     10.961346    2.850851   -5.350093
  O      9.971114    2.798636   -4.283877
  H      9.843896    1.898025   -4.011744
  H     11.948840    2.543303   -5.002153
  H     10.830491    2.248679   -6.269059
  H     11.163429    3.825260   -5.675786
  C     10.311949   -0.204251   -2.808328
  O     10.231334    1.100341   -2.321599
  H     10.876962    1.230900   -1.592367
  H      9.962635   -0.245599   -3.763337
  H     11.283199   -0.694497   -2.911589
  H      9.708854   -0.907636   -2.254651

 Multiplicity           Mult            ....    1
 Number of Electrons    NEL             ....   18
 Basis Dimension        Dim             ....  172

ORBITAL ENERGIES
----------------

  NO   OCC          E(Eh)            E(eV)
   0   2.0000     -19.235760      -523.4316
   1   2.0000     -10.300297      -280.2853
   2   2.0000      -1.137961       -30.9655
   3   2.0000      -0.805728       -21.9250
   4   2.0000      -0.617292       -16.7974
   5   2.0000      -0.543995       -14.8029
   6   2.0000      -0.529675       -14.4132
   7   2.0000      -0.433614       -11.7992
   8   2.0000      -0.374883       -10.2011
   9   0.0000       0.094344         2.5672
  10   0.0000       0.124065         3.3760
  11   0.0000       0.151794         4.1305
  12   0.0000       0.186603         5.0777
  13   0.0000       0.205564         5.5937

MULLIKEN ATOMIC CHARGES
-----------------------
   0 C :   -0.002501
   1 O :    0.006601
   2 H :   -0.006788
   3 H :   -0.001012
   4 H :   -0.000325
   5 H :   -0.000139
   6 C :   -0.164267
   7 O :   -0.473175
   8 H :    0.317349
   9 H :    0.124323
  10 H :    0.101247
  11 H :    0.098688
Sum of atomic charges:    0.0000000

LOEWDIN ATOMIC CHARGES
----------------------
   0 C :   -0.003702
   1 O :   -0.016361
   2 H :   -0.035559
   3 H :   -0.000766
   4 H :   -0.000064
   5 H :   -0.000054
   6 C :   -0.390832
   7 O :   -0.022515
   8 H :    0.184505
   9 H :    0.094012
  10 H :    0.097729
  11 H :    0.093607

  Mayer bond orders larger than 0.1
B(  6-C ,  7-O ) :   0.9999 B(  6-C ,  9-H ) :   0.9813 B(  6-C , 10-H ) :   0.9745
B(  6-C , 11-H ) :   0.9792 B(  7-O ,  8-H ) :   0.8924

Dispersion correction           -0.000258789
FINAL SINGLE POINT ENERGY      -115.729561196733

DIPOLE MOMENT
-------------
                                X             Y             Z
Electronic contribution:     -0.18818       1.84420       0.57209
Nuclear contribution   :      0.62902      -2.27078      -0.32534
                        -----------------------------------------
Total Dipole Moment    :      0.44084      -0.42658       0.24675
                        -----------------------------------------
Magnitude (a.u.)       :      0.66121
Magnitude (Debye)      :      1.68065

Rotational constants in cm-1:     4.691031     0.834808     0.809821
Rotational constants in MHz : 140633.581428 25026.906000 24277.821767

                             ****ORCA TERMINATED NORMALLY****
TOTAL RUN TIME: 0 days 0 hours 1 minutes 8 seconds 654 msec
