                         Program Version 4.1.2  - RELEASE  -
|  1> #Run DFT-D3 single point of the dimer
|  2> ! wB97X-D3 def2-TZVP TIGHTSCF CHELPG PMODEL PAL8
|  3>
|  4> %base "20-200_DFT_AB"
|  5>
|  6> %scf
|  7> MaxIter 1000
|  8> end
|  9>
| 10> * xyz 0 1
| 11>   C                      6.766022             -3.917719            2.381730
| 12>   O                      7.772565             -3.097563            1.827956
| 13>   H                      7.951166             -3.382504            0.942799
| 14>   H                      6.964779             -4.974818            2.252323
| 15>   H                      6.662954             -3.634798            3.443312
| 16>   H                      5.831206             -3.625263            1.912155
| 17>   C                      7.605091             -3.155752            -1.407141
| 18>   O                      8.442560             -4.156556            -0.807862
| 19>   H                      8.707860             -4.810448            -1.492540
| 20>   H                      8.014981             -2.138971            -1.143179
| 21>   H                      7.574775             -3.275983            -2.530497
| 22>   H                      6.599084             -3.169128            -1.043752
| 23> *
| 24>
| 25> #Run DFT-D3 single point of the molecule with dimer basis set
| 26> $new_job
| 27> %base "20-200_DFT_A"
| 28> ! wB97X-D3 def2-TZVP TIGHTSCF CHELPG PMODEL
| 29>
| 30> %scf
| 31> MaxIter 1000
| 32> end
| 33>
| 34> * xyz 0 1
| 35>   C                      6.766022             -3.917719            2.381730
| 36>   O                      7.772565             -3.097563            1.827956
| 37>   H                      7.951166             -3.382504            0.942799
| 38>   H                      6.964779             -4.974818            2.252323
| 39>   H                      6.662954             -3.634798            3.443312
| 40>   H                      5.831206             -3.625263            1.912155
| 41>   C                    : 7.605091             -3.155752            -1.407141
| 42>   O                    : 8.442560             -4.156556            -0.807862
| 43>   H                    : 8.707860             -4.810448            -1.492540
| 44>   H                    : 8.014981             -2.138971            -1.143179
| 45>   H                    : 7.574775             -3.275983            -2.530497
| 46>   H                    : 6.599084             -3.169128            -1.043752
| 47> *
| 48>
| 49> #Run DFT-D3 single point of the particle with dimer basis set
| 50> $new_job
| 51> %base "20-200_DFT_B"
| 52> ! wB97X-D3 def2-TZVP TIGHTSCF CHELPG PMODEL
| 53>
| 54> %scf
| 55> MaxIter 1000
| 56> end
| 57>
| 58> * xyz 0 1
| 59>   C                    : 6.766022             -3.917719            2.381730
| 60>   O                    : 7.772565             -3.097563            1.827956
| 61>   H                    : 7.951166             -3.382504            0.942799
| 62>   H                    : 6.964779             -4.974818            2.252323
| 63>   H                    : 6.662954             -3.634798            3.443312
| 64>   H                    : 5.831206             -3.625263            1.912155
| 65>   C                      7.605091             -3.155752            -1.407141
| 66>   O                      8.442560             -4.156556            -0.807862
| 67>   H                      8.707860             -4.810448            -1.492540
| 68>   H                      8.014981             -2.138971            -1.143179
| 69>   H                      7.574775             -3.275983            -2.530497
| 70>   H                      6.599084             -3.169128            -1.043752
| 71> *
| 72>
| 73>                          ****END OF INPUT****
 Total Charge           Charge          ....    0
 Multiplicity           Mult            ....    1
 Number of Electrons    NEL             ....   36
Dispersion correction           -0.002000087
FINAL SINGLE POINT ENERGY      -231.474338506931
Dispersion correction           -0.000226058
FINAL SINGLE POINT ENERGY      -115.736263920985

CARTESIAN COORDINATES (ANGSTROEM)
---------------------------------
  C      6.766022   -3.917719    2.381730
  O      7.772565   -3.097563    1.827956
  H      7.951166   -3.382504    0.942799
  H      6.964779   -4.974818    2.252323
  H      6.662954   -3.634798    3.443312
  H      5.831206   -3.625263    1.912155
  C      7.605091   -3.155752   -1.407141
  O      8.442560   -4.156556   -0.807862
  H      8.707860   -4.810448   -1.492540
  H      8.014981   -2.138971   -1.143179
  H      7.574775   -3.275983   -2.530497
  H      6.599084   -3.169128   -1.043752

 Multiplicity           Mult            ....    1
 Number of Electrons    NEL             ....   18
 Basis Dimension        Dim             ....  172

ORBITAL ENERGIES
----------------

  NO   OCC          E(Eh)            E(eV)
   0   2.0000     -19.232261      -523.3364
   1   2.0000     -10.320433      -280.8333
   2   2.0000      -1.124716       -30.6051
   3   2.0000      -0.792003       -21.5515
   4   2.0000      -0.604035       -16.4366
   5   2.0000      -0.536686       -14.6040
   6   2.0000      -0.524335       -14.2679
   7   2.0000      -0.431766       -11.7489
   8   2.0000      -0.373022       -10.1504
   9   0.0000       0.095096         2.5877
  10   0.0000       0.119763         3.2589
  11   0.0000       0.149091         4.0570
  12   0.0000       0.184172         5.0116
  13   0.0000       0.190208         5.1758

MULLIKEN ATOMIC CHARGES
-----------------------
   0 C :   -0.000278
   1 O :   -0.000098
   2 H :    0.002471
   3 H :   -0.001923
   4 H :   -0.000136
   5 H :   -0.000304
   6 C :   -0.186781
   7 O :   -0.479283
   8 H :    0.315542
   9 H :    0.115314
  10 H :    0.114264
  11 H :    0.121214
Sum of atomic charges:   -0.0000000

LOEWDIN ATOMIC CHARGES
----------------------
   0 C :   -0.002857
   1 O :   -0.003399
   2 H :   -0.030753
   3 H :   -0.000799
   4 H :   -0.000033
   5 H :   -0.000369
   6 C :   -0.370066
   7 O :   -0.081624
   8 H :    0.180168
   9 H :    0.110515
  10 H :    0.105050
  11 H :    0.094167

  Mayer bond orders larger than 0.1
B(  6-C ,  7-O ) :   1.0050 B(  6-C ,  9-H ) :   0.9818 B(  6-C , 10-H ) :   0.9761
B(  6-C , 11-H ) :   0.9701 B(  7-O ,  8-H ) :   0.8966

Dispersion correction           -0.000267317
FINAL SINGLE POINT ENERGY      -115.732924104890

DIPOLE MOMENT
-------------
                                X             Y             Z
Electronic contribution:      0.99547      -1.25562       0.90257
Nuclear contribution   :     -1.17260       1.23549      -1.59503
                        -----------------------------------------
Total Dipole Moment    :     -0.17712      -0.02013      -0.69246
                        -----------------------------------------
Magnitude (a.u.)       :      0.71504
Magnitude (Debye)      :      1.81748

Rotational constants in cm-1:     4.180111     0.807795     0.771974
Rotational constants in MHz : 125316.577846 24217.084917 23143.199629

                             ****ORCA TERMINATED NORMALLY****
TOTAL RUN TIME: 0 days 0 hours 1 minutes 1 seconds 749 msec
