                         Program Version 4.1.2  - RELEASE  -
|  1> #Run DFT-D3 single point of the dimer
|  2> ! wB97X-D3 def2-TZVP TIGHTSCF CHELPG PMODEL PAL8
|  3>
|  4> %base "4-122_DFT_AB"
|  5>
|  6> %scf
|  7> MaxIter 1000
|  8> end
|  9>
| 10> * xyz 0 1
| 11>   C                      9.259929             9.340491             6.579696
| 12>   O                      8.283990             8.796414             5.726483
| 13>   H                      8.184360             9.462535             4.981736
| 14>   H                      8.917364             9.644283             7.550036
| 15>   H                      10.140764            8.691353             6.699170
| 16>   H                      9.716501             10.227955            6.261082
| 17>   C                      7.470692             6.028601             6.508345
| 18>   O                      7.339370             6.917307             7.588808
| 19>   H                      7.231223             7.717244             7.138052
| 20>   H                      7.922001             5.088984             6.804653
| 21>   H                      6.594084             5.881988             5.978503
| 22>   H                      8.218591             6.480001             5.812974
| 23> *
| 24>
| 25> #Run DFT-D3 single point of the molecule with dimer basis set
| 26> $new_job
| 27> %base "4-122_DFT_A"
| 28> ! wB97X-D3 def2-TZVP TIGHTSCF CHELPG PMODEL
| 29>
| 30> %scf
| 31> MaxIter 1000
| 32> end
| 33>
| 34> * xyz 0 1
| 35>   C                      9.259929             9.340491             6.579696
| 36>   O                      8.283990             8.796414             5.726483
| 37>   H                      8.184360             9.462535             4.981736
| 38>   H                      8.917364             9.644283             7.550036
| 39>   H                      10.140764            8.691353             6.699170
| 40>   H                      9.716501             10.227955            6.261082
| 41>   C                    : 7.470692             6.028601             6.508345
| 42>   O                    : 7.339370             6.917307             7.588808
| 43>   H                    : 7.231223             7.717244             7.138052
| 44>   H                    : 7.922001             5.088984             6.804653
| 45>   H                    : 6.594084             5.881988             5.978503
| 46>   H                    : 8.218591             6.480001             5.812974
| 47> *
| 48>
| 49> #Run DFT-D3 single point of the particle with dimer basis set
| 50> $new_job
| 51> %base "4-122_DFT_B"
| 52> ! wB97X-D3 def2-TZVP TIGHTSCF CHELPG PMODEL
| 53>
| 54> %scf
| 55> MaxIter 1000
| 56> end
| 57>
| 58> * xyz 0 1
| 59>   C                    : 9.259929             9.340491             6.579696
| 60>   O                    : 8.283990             8.796414             5.726483
| 61>   H                    : 8.184360             9.462535             4.981736
| 62>   H                    : 8.917364             9.644283             7.550036
| 63>   H                    : 10.140764            8.691353             6.699170
| 64>   H                    : 9.716501             10.227955            6.261082
| 65>   C                      7.470692             6.028601             6.508345
| 66>   O                      7.339370             6.917307             7.588808
| 67>   H                      7.231223             7.717244             7.138052
| 68>   H                      7.922001             5.088984             6.804653
| 69>   H                      6.594084             5.881988             5.978503
| 70>   H                      8.218591             6.480001             5.812974
| 71> *
| 72>
| 73>                          ****END OF INPUT****
 Total Charge           Charge          ....    0
 Multiplicity           Mult            ....    1
 Number of Electrons    NEL             ....   36
Dispersion correction           -0.002174121
FINAL SINGLE POINT ENERGY      -231.463585777194
Dispersion correction           -0.000254936
FINAL SINGLE POINT ENERGY      -115.727926932768

CARTESIAN COORDINATES (ANGSTROEM)
---------------------------------
  C      9.259929    9.340491    6.579696
  O      8.283990    8.796414    5.726483
  H      8.184360    9.462535    4.981736
  H      8.917364    9.644283    7.550036
  H     10.140764    8.691353    6.699170
  H      9.716501   10.227955    6.261082
  C      7.470692    6.028601    6.508345
  O      7.339370    6.917307    7.588808
  H      7.231223    7.717244    7.138052
  H      7.922001    5.088984    6.804653
  H      6.594084    5.881988    5.978503
  H      8.218591    6.480001    5.812974

 Multiplicity           Mult            ....    1
 Number of Electrons    NEL             ....   18
 Basis Dimension        Dim             ....  172

ORBITAL ENERGIES
----------------

  NO   OCC          E(Eh)            E(eV)
   0   2.0000     -19.229442      -523.2597
   1   2.0000     -10.308079      -280.4971
   2   2.0000      -1.152572       -31.3631
   3   2.0000      -0.799245       -21.7486
   4   2.0000      -0.617060       -16.7910
   5   2.0000      -0.553354       -15.0575
   6   2.0000      -0.530961       -14.4482
   7   2.0000      -0.439989       -11.9727
   8   2.0000      -0.376507       -10.2453
   9   0.0000       0.073669         2.0046
  10   0.0000       0.139552         3.7974
  11   0.0000       0.156856         4.2683
  12   0.0000       0.164745         4.4829
  13   0.0000       0.189029         5.1437

MULLIKEN ATOMIC CHARGES
-----------------------
   0 C :   -0.006854
   1 O :   -0.005793
   2 H :   -0.000440
   3 H :   -0.000759
   4 H :    0.000455
   5 H :   -0.000505
   6 C :   -0.179816
   7 O :   -0.443908
   8 H :    0.309063
   9 H :    0.116251
  10 H :    0.115361
  11 H :    0.096946
Sum of atomic charges:   -0.0000000

LOEWDIN ATOMIC CHARGES
----------------------
   0 C :   -0.013067
   1 O :   -0.021782
   2 H :   -0.000682
   3 H :   -0.001698
   4 H :   -0.000693
   5 H :   -0.000200
   6 C :   -0.376845
   7 O :   -0.033650
   8 H :    0.154031
   9 H :    0.106338
  10 H :    0.082483
  11 H :    0.105765

  Mayer bond orders larger than 0.1
B(  6-C ,  7-O ) :   1.0002 B(  6-C ,  9-H ) :   0.9736 B(  6-C , 10-H ) :   0.9772
B(  6-C , 11-H ) :   0.9874 B(  7-O ,  8-H ) :   0.9147

Dispersion correction           -0.000201177
FINAL SINGLE POINT ENERGY      -115.730104693047

DIPOLE MOMENT
-------------
                                X             Y             Z
Electronic contribution:     -0.33640       0.93030       1.56732
Nuclear contribution   :      0.31323      -0.79489      -2.26178
                        -----------------------------------------
Total Dipole Moment    :     -0.02316       0.13541      -0.69446
                        -----------------------------------------
Magnitude (a.u.)       :      0.70792
Magnitude (Debye)      :      1.79939

Rotational constants in cm-1:     4.396634     0.854316     0.823141
Rotational constants in MHz : 131807.771273 25611.741875 24677.136872

                             ****ORCA TERMINATED NORMALLY****
TOTAL RUN TIME: 0 days 0 hours 1 minutes 32 seconds 8 msec
