                         Program Version 4.1.2  - RELEASE  -
|  1> #Run DFT-D3 single point of the dimer
|  2> ! wB97X-D3 def2-TZVP TIGHTSCF CHELPG PMODEL PAL8
|  3>
|  4> %base "19-28_DFT_AB"
|  5>
|  6> %scf
|  7> MaxIter 1000
|  8> end
|  9>
| 10> * xyz 0 1
| 11>   C                      -9.778594            2.584819             -7.098236
| 12>   O                      -10.503116           3.623638             -6.480022
| 13>   H                      -10.501269           4.334988             -7.158476
| 14>   H                      -9.911806            2.435577             -8.131833
| 15>   H                      -8.678102            2.671316             -7.052734
| 16>   H                      -9.924804            1.624095             -6.681747
| 17>   C                      -7.528065            0.142934             -10.279111
| 18>   O                      -8.302378            0.757555             -9.316046
| 19>   H                      -8.914305            1.236668             -9.863616
| 20>   H                      -8.081730            -0.516061            -10.904095
| 21>   H                      -7.235268            0.950584             -10.947606
| 22>   H                      -6.567483            -0.255264            -9.939949
| 23> *
| 24>
| 25> #Run DFT-D3 single point of the molecule with dimer basis set
| 26> $new_job
| 27> %base "19-28_DFT_A"
| 28> ! wB97X-D3 def2-TZVP TIGHTSCF CHELPG PMODEL
| 29>
| 30> %scf
| 31> MaxIter 1000
| 32> end
| 33>
| 34> * xyz 0 1
| 35>   C                      -9.778594            2.584819             -7.098236
| 36>   O                      -10.503116           3.623638             -6.480022
| 37>   H                      -10.501269           4.334988             -7.158476
| 38>   H                      -9.911806            2.435577             -8.131833
| 39>   H                      -8.678102            2.671316             -7.052734
| 40>   H                      -9.924804            1.624095             -6.681747
| 41>   C                    : -7.528065            0.142934             -10.279111
| 42>   O                    : -8.302378            0.757555             -9.316046
| 43>   H                    : -8.914305            1.236668             -9.863616
| 44>   H                    : -8.081730            -0.516061            -10.904095
| 45>   H                    : -7.235268            0.950584             -10.947606
| 46>   H                    : -6.567483            -0.255264            -9.939949
| 47> *
| 48>
| 49> #Run DFT-D3 single point of the particle with dimer basis set
| 50> $new_job
| 51> %base "19-28_DFT_B"
| 52> ! wB97X-D3 def2-TZVP TIGHTSCF CHELPG PMODEL
| 53>
| 54> %scf
| 55> MaxIter 1000
| 56> end
| 57>
| 58> * xyz 0 1
| 59>   C                    : -9.778594            2.584819             -7.098236
| 60>   O                    : -10.503116           3.623638             -6.480022
| 61>   H                    : -10.501269           4.334988             -7.158476
| 62>   H                    : -9.911806            2.435577             -8.131833
| 63>   H                    : -8.678102            2.671316             -7.052734
| 64>   H                    : -9.924804            1.624095             -6.681747
| 65>   C                      -7.528065            0.142934             -10.279111
| 66>   O                      -8.302378            0.757555             -9.316046
| 67>   H                      -8.914305            1.236668             -9.863616
| 68>   H                      -8.081730            -0.516061            -10.904095
| 69>   H                      -7.235268            0.950584             -10.947606
| 70>   H                      -6.567483            -0.255264            -9.939949
| 71> *
| 72>
| 73>                          ****END OF INPUT****
 Total Charge           Charge          ....    0
 Multiplicity           Mult            ....    1
 Number of Electrons    NEL             ....   36
Dispersion correction           -0.001494910
FINAL SINGLE POINT ENERGY      -231.456868185821
Dispersion correction           -0.000251189
FINAL SINGLE POINT ENERGY      -115.728535113132

CARTESIAN COORDINATES (ANGSTROEM)
---------------------------------
  C     -9.778594    2.584819   -7.098236
  O    -10.503116    3.623638   -6.480022
  H    -10.501269    4.334988   -7.158476
  H     -9.911806    2.435577   -8.131833
  H     -8.678102    2.671316   -7.052734
  H     -9.924804    1.624095   -6.681747
  C     -7.528065    0.142934  -10.279111
  O     -8.302378    0.757555   -9.316046
  H     -8.914305    1.236668   -9.863616
  H     -8.081730   -0.516061  -10.904095
  H     -7.235268    0.950584  -10.947606
  H     -6.567483   -0.255264   -9.939949

 Multiplicity           Mult            ....    1
 Number of Electrons    NEL             ....   18
 Basis Dimension        Dim             ....  172

ORBITAL ENERGIES
----------------

  NO   OCC          E(Eh)            E(eV)
   0   2.0000     -19.230515      -523.2889
   1   2.0000     -10.307466      -280.4804
   2   2.0000      -1.155472       -31.4420
   3   2.0000      -0.794264       -21.6130
   4   2.0000      -0.620773       -16.8921
   5   2.0000      -0.551851       -15.0166
   6   2.0000      -0.534636       -14.5482
   7   2.0000      -0.438160       -11.9229
   8   2.0000      -0.369611       -10.0576
   9   0.0000       0.090977         2.4756
  10   0.0000       0.122279         3.3274
  11   0.0000       0.159088         4.3290
  12   0.0000       0.180244         4.9047
  13   0.0000       0.203214         5.5297

MULLIKEN ATOMIC CHARGES
-----------------------
   0 C :    0.010224
   1 O :   -0.000157
   2 H :   -0.000022
   3 H :   -0.006782
   4 H :   -0.006012
   5 H :   -0.003354
   6 C :   -0.177286
   7 O :   -0.450729
   8 H :    0.319098
   9 H :    0.100060
  10 H :    0.095953
  11 H :    0.119008
Sum of atomic charges:    0.0000000

LOEWDIN ATOMIC CHARGES
----------------------
   0 C :   -0.010613
   1 O :   -0.000054
   2 H :   -0.000013
   3 H :   -0.005264
   4 H :   -0.003216
   5 H :   -0.001328
   6 C :   -0.410964
   7 O :   -0.035539
   8 H :    0.175826
   9 H :    0.087154
  10 H :    0.095347
  11 H :    0.108666

  Mayer bond orders larger than 0.1
B(  6-C ,  7-O ) :   0.9915 B(  6-C ,  9-H ) :   0.9732 B(  6-C , 10-H ) :   0.9977
B(  6-C , 11-H ) :   0.9723 B(  7-O ,  8-H ) :   0.8969

Dispersion correction           -0.000191464
FINAL SINGLE POINT ENERGY      -115.727484466903

DIPOLE MOMENT
-------------
                                X             Y             Z
Electronic contribution:     -0.95696       0.53734       1.52311
Nuclear contribution   :      0.88244      -0.45516      -2.23909
                        -----------------------------------------
Total Dipole Moment    :     -0.07452       0.08217      -0.71597
                        -----------------------------------------
Magnitude (a.u.)       :      0.72451
Magnitude (Debye)      :      1.84157

Rotational constants in cm-1:     4.369441     0.880242     0.840386
Rotational constants in MHz : 130992.548047 26388.990453 25194.136205

                             ****ORCA TERMINATED NORMALLY****
TOTAL RUN TIME: 0 days 0 hours 0 minutes 53 seconds 465 msec
