                         Program Version 4.1.2  - RELEASE  -
|  1> #Run DFT-D3 single point of the dimer
|  2> ! wB97X-D3 def2-TZVP TIGHTSCF CHELPG PMODEL PAL8
|  3>
|  4> %base "3-72_DFT_AB"
|  5>
|  6> %scf
|  7> MaxIter 1000
|  8> end
|  9>
| 10> * xyz 0 1
| 11>   C                      -4.944868            -6.379908            -6.736573
| 12>   O                      -6.142319            -5.643729            -6.610150
| 13>   H                      -6.328640            -5.442620            -7.501184
| 14>   H                      -4.130525            -5.985907            -6.044649
| 15>   H                      -5.172011            -7.357734            -6.328079
| 16>   H                      -4.478197            -6.584611            -7.685240
| 17>   C                      -4.097627            -10.847332           -4.777441
| 18>   O                      -5.100593            -10.002243           -4.339253
| 19>   H                      -5.156227            -10.011735           -3.378805
| 20>   H                      -3.200352            -10.727107           -4.173279
| 21>   H                      -4.469498            -11.846992           -4.719496
| 22>   H                      -3.941931            -10.717463           -5.809068
| 23> *
| 24>
| 25> #Run DFT-D3 single point of the molecule with dimer basis set
| 26> $new_job
| 27> %base "3-72_DFT_A"
| 28> ! wB97X-D3 def2-TZVP TIGHTSCF CHELPG PMODEL
| 29>
| 30> %scf
| 31> MaxIter 1000
| 32> end
| 33>
| 34> * xyz 0 1
| 35>   C                      -4.944868            -6.379908            -6.736573
| 36>   O                      -6.142319            -5.643729            -6.610150
| 37>   H                      -6.328640            -5.442620            -7.501184
| 38>   H                      -4.130525            -5.985907            -6.044649
| 39>   H                      -5.172011            -7.357734            -6.328079
| 40>   H                      -4.478197            -6.584611            -7.685240
| 41>   C                    : -4.097627            -10.847332           -4.777441
| 42>   O                    : -5.100593            -10.002243           -4.339253
| 43>   H                    : -5.156227            -10.011735           -3.378805
| 44>   H                    : -3.200352            -10.727107           -4.173279
| 45>   H                    : -4.469498            -11.846992           -4.719496
| 46>   H                    : -3.941931            -10.717463           -5.809068
| 47> *
| 48>
| 49> #Run DFT-D3 single point of the particle with dimer basis set
| 50> $new_job
| 51> %base "3-72_DFT_B"
| 52> ! wB97X-D3 def2-TZVP TIGHTSCF CHELPG PMODEL
| 53>
| 54> %scf
| 55> MaxIter 1000
| 56> end
| 57>
| 58> * xyz 0 1
| 59>   C                    : -4.944868            -6.379908            -6.736573
| 60>   O                    : -6.142319            -5.643729            -6.610150
| 61>   H                    : -6.328640            -5.442620            -7.501184
| 62>   H                    : -4.130525            -5.985907            -6.044649
| 63>   H                    : -5.172011            -7.357734            -6.328079
| 64>   H                    : -4.478197            -6.584611            -7.685240
| 65>   C                      -4.097627            -10.847332           -4.777441
| 66>   O                      -5.100593            -10.002243           -4.339253
| 67>   H                      -5.156227            -10.011735           -3.378805
| 68>   H                      -3.200352            -10.727107           -4.173279
| 69>   H                      -4.469498            -11.846992           -4.719496
| 70>   H                      -3.941931            -10.717463           -5.809068
| 71> *
| 72>
| 73>                          ****END OF INPUT****
 Total Charge           Charge          ....    0
 Multiplicity           Mult            ....    1
 Number of Electrons    NEL             ....   36
Dispersion correction           -0.000948601
FINAL SINGLE POINT ENERGY      -231.459948521775
Dispersion correction           -0.000252383
FINAL SINGLE POINT ENERGY      -115.726718692628

CARTESIAN COORDINATES (ANGSTROEM)
---------------------------------
  C     -4.944868   -6.379908   -6.736573
  O     -6.142319   -5.643729   -6.610150
  H     -6.328640   -5.442620   -7.501184
  H     -4.130525   -5.985907   -6.044649
  H     -5.172011   -7.357734   -6.328079
  H     -4.478197   -6.584611   -7.685240
  C     -4.097627  -10.847332   -4.777441
  O     -5.100593  -10.002243   -4.339253
  H     -5.156227  -10.011735   -3.378805
  H     -3.200352  -10.727107   -4.173279
  H     -4.469498  -11.846992   -4.719496
  H     -3.941931  -10.717463   -5.809068

 Multiplicity           Mult            ....    1
 Number of Electrons    NEL             ....   18
 Basis Dimension        Dim             ....  172

ORBITAL ENERGIES
----------------

  NO   OCC          E(Eh)            E(eV)
   0   2.0000     -19.225006      -523.1390
   1   2.0000     -10.301615      -280.3212
   2   2.0000      -1.142342       -31.0847
   3   2.0000      -0.800279       -21.7767
   4   2.0000      -0.614133       -16.7114
   5   2.0000      -0.551670       -15.0117
   6   2.0000      -0.536554       -14.6004
   7   2.0000      -0.429589       -11.6897
   8   2.0000      -0.367803       -10.0084
   9   0.0000       0.095408         2.5962
  10   0.0000       0.116993         3.1835
  11   0.0000       0.159207         4.3323
  12   0.0000       0.173723         4.7272
  13   0.0000       0.197428         5.3723

MULLIKEN ATOMIC CHARGES
-----------------------
   0 C :    0.000879
   1 O :    0.000008
   2 H :   -0.000008
   3 H :    0.000007
   4 H :   -0.004044
   5 H :   -0.000067
   6 C :   -0.145846
   7 O :   -0.475370
   8 H :    0.312738
   9 H :    0.097279
  10 H :    0.096435
  11 H :    0.117988
Sum of atomic charges:    0.0000000

LOEWDIN ATOMIC CHARGES
----------------------
   0 C :   -0.000677
   1 O :   -0.000013
   2 H :   -0.000001
   3 H :   -0.000036
   4 H :   -0.002231
   5 H :   -0.000006
   6 C :   -0.396172
   7 O :   -0.057491
   8 H :    0.170672
   9 H :    0.094971
  10 H :    0.090775
  11 H :    0.100209

  Mayer bond orders larger than 0.1
B(  6-C ,  7-O ) :   0.9953 B(  6-C ,  9-H ) :   0.9819 B(  6-C , 10-H ) :   0.9823
B(  6-C , 11-H ) :   0.9742 B(  7-O ,  8-H ) :   0.8978

Dispersion correction           -0.000211800
FINAL SINGLE POINT ENERGY      -115.732650167360

DIPOLE MOMENT
-------------
                                X             Y             Z
Electronic contribution:     -1.21035       1.15810       0.40697
Nuclear contribution   :      1.56249      -1.50673       0.02570
                        -----------------------------------------
Total Dipole Moment    :      0.35214      -0.34863       0.43267
                        -----------------------------------------
Magnitude (a.u.)       :      0.65783
Magnitude (Debye)      :      1.67208

Rotational constants in cm-1:     4.427376     0.872553     0.836998
Rotational constants in MHz : 132729.407034 26158.468640 25092.578348

                             ****ORCA TERMINATED NORMALLY****
TOTAL RUN TIME: 0 days 0 hours 6 minutes 21 seconds 33 msec
