                         Program Version 4.1.2  - RELEASE  -
|  1> #Run DFT-D3 single point of the dimer
|  2> ! wB97X-D3 def2-TZVP TIGHTSCF CHELPG PMODEL PAL8
|  3>
|  4> %base "6-51_DFT_AB"
|  5>
|  6> %scf
|  7> MaxIter 1000
|  8> end
|  9>
| 10> * xyz 0 1
| 11>   C                      0.196325             -0.976893            10.050342
| 12>   O                      1.433650             -0.253384            9.974844
| 13>   H                      1.432420             0.446621             10.619602
| 14>   H                      -0.611933            -0.325739            10.403889
| 15>   H                      -0.103297            -1.288178            8.974143
| 16>   H                      0.344229             -1.799503            10.711079
| 17>   C                      0.171239             3.868132             9.450334
| 18>   O                      -0.209914            3.238640             10.630685
| 19>   H                      0.561177             2.798170             11.029478
| 20>   H                      1.166986             3.610783             9.100167
| 21>   H                      -0.447695            3.453236             8.613938
| 22>   H                      0.012283             4.950917             9.402501
| 23> *
| 24>
| 25> #Run DFT-D3 single point of the molecule with dimer basis set
| 26> $new_job
| 27> %base "6-51_DFT_A"
| 28> ! wB97X-D3 def2-TZVP TIGHTSCF CHELPG PMODEL
| 29>
| 30> %scf
| 31> MaxIter 1000
| 32> end
| 33>
| 34> * xyz 0 1
| 35>   C                      0.196325             -0.976893            10.050342
| 36>   O                      1.433650             -0.253384            9.974844
| 37>   H                      1.432420             0.446621             10.619602
| 38>   H                      -0.611933            -0.325739            10.403889
| 39>   H                      -0.103297            -1.288178            8.974143
| 40>   H                      0.344229             -1.799503            10.711079
| 41>   C                    : 0.171239             3.868132             9.450334
| 42>   O                    : -0.209914            3.238640             10.630685
| 43>   H                    : 0.561177             2.798170             11.029478
| 44>   H                    : 1.166986             3.610783             9.100167
| 45>   H                    : -0.447695            3.453236             8.613938
| 46>   H                    : 0.012283             4.950917             9.402501
| 47> *
| 48>
| 49> #Run DFT-D3 single point of the particle with dimer basis set
| 50> $new_job
| 51> %base "6-51_DFT_B"
| 52> ! wB97X-D3 def2-TZVP TIGHTSCF CHELPG PMODEL
| 53>
| 54> %scf
| 55> MaxIter 1000
| 56> end
| 57>
| 58> * xyz 0 1
| 59>   C                    : 0.196325             -0.976893            10.050342
| 60>   O                    : 1.433650             -0.253384            9.974844
| 61>   H                    : 1.432420             0.446621             10.619602
| 62>   H                    : -0.611933            -0.325739            10.403889
| 63>   H                    : -0.103297            -1.288178            8.974143
| 64>   H                    : 0.344229             -1.799503            10.711079
| 65>   C                      0.171239             3.868132             9.450334
| 66>   O                      -0.209914            3.238640             10.630685
| 67>   H                      0.561177             2.798170             11.029478
| 68>   H                      1.166986             3.610783             9.100167
| 69>   H                      -0.447695            3.453236             8.613938
| 70>   H                      0.012283             4.950917             9.402501
| 71> *
| 72>
| 73>                          ****END OF INPUT****
 Total Charge           Charge          ....    0
 Multiplicity           Mult            ....    1
 Number of Electrons    NEL             ....   36
Dispersion correction           -0.001475524
FINAL SINGLE POINT ENERGY      -231.464886136429
Dispersion correction           -0.000246669
FINAL SINGLE POINT ENERGY      -115.732493890034

CARTESIAN COORDINATES (ANGSTROEM)
---------------------------------
  C      0.196325   -0.976893   10.050342
  O      1.433650   -0.253384    9.974844
  H      1.432420    0.446621   10.619602
  H     -0.611933   -0.325739   10.403889
  H     -0.103297   -1.288178    8.974143
  H      0.344229   -1.799503   10.711079
  C      0.171239    3.868132    9.450334
  O     -0.209914    3.238640   10.630685
  H      0.561177    2.798170   11.029478
  H      1.166986    3.610783    9.100167
  H     -0.447695    3.453236    8.613938
  H      0.012283    4.950917    9.402501

 Multiplicity           Mult            ....    1
 Number of Electrons    NEL             ....   18
 Basis Dimension        Dim             ....  172

ORBITAL ENERGIES
----------------

  NO   OCC          E(Eh)            E(eV)
   0   2.0000     -19.234527      -523.3981
   1   2.0000     -10.313060      -280.6326
   2   2.0000      -1.141921       -31.0733
   3   2.0000      -0.794517       -21.6199
   4   2.0000      -0.618996       -16.8437
   5   2.0000      -0.542217       -14.7545
   6   2.0000      -0.526119       -14.3164
   7   2.0000      -0.431167       -11.7327
   8   2.0000      -0.371465       -10.1081
   9   0.0000       0.079362         2.1596
  10   0.0000       0.121728         3.3124
  11   0.0000       0.149038         4.0555
  12   0.0000       0.176887         4.8133
  13   0.0000       0.198504         5.4016

MULLIKEN ATOMIC CHARGES
-----------------------
   0 C :    0.002281
   1 O :    0.000253
   2 H :   -0.004181
   3 H :   -0.003492
   4 H :    0.000025
   5 H :   -0.000186
   6 C :   -0.167576
   7 O :   -0.467987
   8 H :    0.323337
   9 H :    0.102888
  10 H :    0.101630
  11 H :    0.113008
Sum of atomic charges:   -0.0000000

LOEWDIN ATOMIC CHARGES
----------------------
   0 C :   -0.000845
   1 O :   -0.000321
   2 H :   -0.003180
   3 H :   -0.001404
   4 H :   -0.000005
   5 H :   -0.000015
   6 C :   -0.412570
   7 O :   -0.061049
   8 H :    0.180694
   9 H :    0.094206
  10 H :    0.105294
  11 H :    0.099196

  Mayer bond orders larger than 0.1
B(  6-C ,  7-O ) :   1.0119 B(  6-C ,  9-H ) :   0.9825 B(  6-C , 10-H ) :   0.9784
B(  6-C , 11-H ) :   0.9723 B(  7-O ,  8-H ) :   0.8937

Dispersion correction           -0.000256473
FINAL SINGLE POINT ENERGY      -115.732436881034

DIPOLE MOMENT
-------------
                                X             Y             Z
Electronic contribution:     -0.54769      -0.68998       1.71898
Nuclear contribution   :      1.20956       0.63437      -1.92040
                        -----------------------------------------
Total Dipole Moment    :      0.66186      -0.05561      -0.20142
                        -----------------------------------------
Magnitude (a.u.)       :      0.69406
Magnitude (Debye)      :      1.76417

Rotational constants in cm-1:     4.374615     0.840155     0.810406
Rotational constants in MHz : 131147.660143 25187.222463 24295.349316

                             ****ORCA TERMINATED NORMALLY****
TOTAL RUN TIME: 0 days 0 hours 0 minutes 58 seconds 211 msec
