                         Program Version 4.1.2  - RELEASE  -
|  1> #Run DFT-D3 single point of the dimer
|  2> ! wB97X-D3 def2-TZVP TIGHTSCF CHELPG PMODEL PAL8
|  3>
|  4> %base "7-126_DFT_AB"
|  5>
|  6> %scf
|  7> MaxIter 1000
|  8> end
|  9>
| 10> * xyz 0 1
| 11>   C                      -4.463582            -1.354472            0.559463
| 12>   O                      -5.340438            -2.213762            -0.128602
| 13>   H                      -6.211150            -1.951602            -0.000589
| 14>   H                      -4.627158            -1.465617            1.596524
| 15>   H                      -3.468846            -1.728514            0.454134
| 16>   H                      -4.436178            -0.307758            0.291256
| 17>   C                      -2.313152            2.209491             1.472491
| 18>   O                      -3.409687            1.365567             1.882178
| 19>   H                      -3.929460            1.988193             2.385590
| 20>   H                      -1.861746            1.840108             0.494320
| 21>   H                      -2.520141            3.299756             1.321185
| 22>   H                      -1.539403            2.151524             2.219451
| 23> *
| 24>
| 25> #Run DFT-D3 single point of the molecule with dimer basis set
| 26> $new_job
| 27> %base "7-126_DFT_A"
| 28> ! wB97X-D3 def2-TZVP TIGHTSCF CHELPG PMODEL
| 29>
| 30> %scf
| 31> MaxIter 1000
| 32> end
| 33>
| 34> * xyz 0 1
| 35>   C                      -4.463582            -1.354472            0.559463
| 36>   O                      -5.340438            -2.213762            -0.128602
| 37>   H                      -6.211150            -1.951602            -0.000589
| 38>   H                      -4.627158            -1.465617            1.596524
| 39>   H                      -3.468846            -1.728514            0.454134
| 40>   H                      -4.436178            -0.307758            0.291256
| 41>   C                    : -2.313152            2.209491             1.472491
| 42>   O                    : -3.409687            1.365567             1.882178
| 43>   H                    : -3.929460            1.988193             2.385590
| 44>   H                    : -1.861746            1.840108             0.494320
| 45>   H                    : -2.520141            3.299756             1.321185
| 46>   H                    : -1.539403            2.151524             2.219451
| 47> *
| 48>
| 49> #Run DFT-D3 single point of the particle with dimer basis set
| 50> $new_job
| 51> %base "7-126_DFT_B"
| 52> ! wB97X-D3 def2-TZVP TIGHTSCF CHELPG PMODEL
| 53>
| 54> %scf
| 55> MaxIter 1000
| 56> end
| 57>
| 58> * xyz 0 1
| 59>   C                    : -4.463582            -1.354472            0.559463
| 60>   O                    : -5.340438            -2.213762            -0.128602
| 61>   H                    : -6.211150            -1.951602            -0.000589
| 62>   H                    : -4.627158            -1.465617            1.596524
| 63>   H                    : -3.468846            -1.728514            0.454134
| 64>   H                    : -4.436178            -0.307758            0.291256
| 65>   C                      -2.313152            2.209491             1.472491
| 66>   O                      -3.409687            1.365567             1.882178
| 67>   H                      -3.929460            1.988193             2.385590
| 68>   H                      -1.861746            1.840108             0.494320
| 69>   H                      -2.520141            3.299756             1.321185
| 70>   H                      -1.539403            2.151524             2.219451
| 71> *
| 72>
| 73>                          ****END OF INPUT****
 Total Charge           Charge          ....    0
 Multiplicity           Mult            ....    1
 Number of Electrons    NEL             ....   36
Dispersion correction           -0.001580204
FINAL SINGLE POINT ENERGY      -231.464668829720
Dispersion correction           -0.000239403
FINAL SINGLE POINT ENERGY      -115.731606973436

CARTESIAN COORDINATES (ANGSTROEM)
---------------------------------
  C     -4.463582   -1.354472    0.559463
  O     -5.340438   -2.213762   -0.128602
  H     -6.211150   -1.951602   -0.000589
  H     -4.627158   -1.465617    1.596524
  H     -3.468846   -1.728514    0.454134
  H     -4.436178   -0.307758    0.291256
  C     -2.313152    2.209491    1.472491
  O     -3.409687    1.365567    1.882178
  H     -3.929460    1.988193    2.385590
  H     -1.861746    1.840108    0.494320
  H     -2.520141    3.299756    1.321185
  H     -1.539403    2.151524    2.219451

 Multiplicity           Mult            ....    1
 Number of Electrons    NEL             ....   18
 Basis Dimension        Dim             ....  172

ORBITAL ENERGIES
----------------

  NO   OCC          E(Eh)            E(eV)
   0   2.0000     -19.235933      -523.4363
   1   2.0000     -10.321900      -280.8732
   2   2.0000      -1.135970       -30.9113
   3   2.0000      -0.791672       -21.5425
   4   2.0000      -0.607221       -16.5233
   5   2.0000      -0.538321       -14.6485
   6   2.0000      -0.517538       -14.0829
   7   2.0000      -0.445026       -12.1098
   8   2.0000      -0.376876       -10.2553
   9   0.0000       0.097919         2.6645
  10   0.0000       0.121626         3.3096
  11   0.0000       0.149576         4.0702
  12   0.0000       0.173689         4.7263
  13   0.0000       0.193934         5.2772

MULLIKEN ATOMIC CHARGES
-----------------------
   0 C :    0.010324
   1 O :   -0.000188
   2 H :   -0.000063
   3 H :   -0.004269
   4 H :   -0.002250
   5 H :   -0.012128
   6 C :   -0.189412
   7 O :   -0.449933
   8 H :    0.310972
   9 H :    0.115433
  10 H :    0.109797
  11 H :    0.111715
Sum of atomic charges:   -0.0000000

LOEWDIN ATOMIC CHARGES
----------------------
   0 C :   -0.012117
   1 O :   -0.000055
   2 H :   -0.000012
   3 H :   -0.001932
   4 H :   -0.000486
   5 H :   -0.010976
   6 C :   -0.379066
   7 O :   -0.069561
   8 H :    0.167130
   9 H :    0.114199
  10 H :    0.101058
  11 H :    0.091819

  Mayer bond orders larger than 0.1
B(  6-C ,  7-O ) :   0.9974 B(  6-C ,  9-H ) :   0.9755 B(  6-C , 10-H ) :   0.9698
B(  6-C , 11-H ) :   0.9754 B(  7-O ,  8-H ) :   0.9037

Dispersion correction           -0.000256277
FINAL SINGLE POINT ENERGY      -115.731307462946

DIPOLE MOMENT
-------------
                                X             Y             Z
Electronic contribution:     -1.44345      -1.20304       0.49134
Nuclear contribution   :      1.55627       1.93705      -0.32973
                        -----------------------------------------
Total Dipole Moment    :      0.11282       0.73401       0.16161
                        -----------------------------------------
Magnitude (a.u.)       :      0.76001
Magnitude (Debye)      :      1.93179

Rotational constants in cm-1:     4.209066     0.804387     0.770869
Rotational constants in MHz : 126184.624857 24114.901979 23110.077380

                             ****ORCA TERMINATED NORMALLY****
TOTAL RUN TIME: 0 days 0 hours 1 minutes 13 seconds 699 msec
