                         Program Version 4.1.2  - RELEASE  -
|  1> #Run DFT-D3 single point of the dimer
|  2> ! wB97X-D3 def2-TZVP TIGHTSCF CHELPG PMODEL PAL8
|  3>
|  4> %base "18-187_DFT_AB"
|  5>
|  6> %scf
|  7> MaxIter 1000
|  8> end
|  9>
| 10> * xyz 0 1
| 11>   C                      5.145212             -11.023255           -6.473144
| 12>   O                      6.165765             -10.033122           -6.475074
| 13>   H                      6.160345             -9.606264            -7.317652
| 14>   H                      4.241159             -10.711664           -5.988630
| 15>   H                      4.936577             -11.255154           -7.514384
| 16>   H                      5.558417             -11.941200           -6.064285
| 17>   C                      6.059093             -10.893009           -9.907102
| 18>   O                      6.761896             -9.808815            -9.220556
| 19>   H                      7.703710             -10.106093           -8.997001
| 20>   H                      6.655688             -11.117009           -10.812321
| 21>   H                      5.853971             -11.725111           -9.218009
| 22>   H                      5.010903             -10.597532           -10.254226
| 23> *
| 24>
| 25> #Run DFT-D3 single point of the molecule with dimer basis set
| 26> $new_job
| 27> %base "18-187_DFT_A"
| 28> ! wB97X-D3 def2-TZVP TIGHTSCF CHELPG PMODEL
| 29>
| 30> %scf
| 31> MaxIter 1000
| 32> end
| 33>
| 34> * xyz 0 1
| 35>   C                      5.145212             -11.023255           -6.473144
| 36>   O                      6.165765             -10.033122           -6.475074
| 37>   H                      6.160345             -9.606264            -7.317652
| 38>   H                      4.241159             -10.711664           -5.988630
| 39>   H                      4.936577             -11.255154           -7.514384
| 40>   H                      5.558417             -11.941200           -6.064285
| 41>   C                    : 6.059093             -10.893009           -9.907102
| 42>   O                    : 6.761896             -9.808815            -9.220556
| 43>   H                    : 7.703710             -10.106093           -8.997001
| 44>   H                    : 6.655688             -11.117009           -10.812321
| 45>   H                    : 5.853971             -11.725111           -9.218009
| 46>   H                    : 5.010903             -10.597532           -10.254226
| 47> *
| 48>
| 49> #Run DFT-D3 single point of the particle with dimer basis set
| 50> $new_job
| 51> %base "18-187_DFT_B"
| 52> ! wB97X-D3 def2-TZVP TIGHTSCF CHELPG PMODEL
| 53>
| 54> %scf
| 55> MaxIter 1000
| 56> end
| 57>
| 58> * xyz 0 1
| 59>   C                    : 5.145212             -11.023255           -6.473144
| 60>   O                    : 6.165765             -10.033122           -6.475074
| 61>   H                    : 6.160345             -9.606264            -7.317652
| 62>   H                    : 4.241159             -10.711664           -5.988630
| 63>   H                    : 4.936577             -11.255154           -7.514384
| 64>   H                    : 5.558417             -11.941200           -6.064285
| 65>   C                      6.059093             -10.893009           -9.907102
| 66>   O                      6.761896             -9.808815            -9.220556
| 67>   H                      7.703710             -10.106093           -8.997001
| 68>   H                      6.655688             -11.117009           -10.812321
| 69>   H                      5.853971             -11.725111           -9.218009
| 70>   H                      5.010903             -10.597532           -10.254226
| 71> *
| 72>
| 73>                          ****END OF INPUT****
 Total Charge           Charge          ....    0
 Multiplicity           Mult            ....    1
 Number of Electrons    NEL             ....   36
Dispersion correction           -0.002298509
FINAL SINGLE POINT ENERGY      -231.469007945666
Dispersion correction           -0.000233327
FINAL SINGLE POINT ENERGY      -115.734514291224

CARTESIAN COORDINATES (ANGSTROEM)
---------------------------------
  C      5.145212  -11.023255   -6.473144
  O      6.165765  -10.033122   -6.475074
  H      6.160345   -9.606264   -7.317652
  H      4.241159  -10.711664   -5.988630
  H      4.936577  -11.255154   -7.514384
  H      5.558417  -11.941200   -6.064285
  C      6.059093  -10.893009   -9.907102
  O      6.761896   -9.808815   -9.220556
  H      7.703710  -10.106093   -8.997001
  H      6.655688  -11.117009  -10.812321
  H      5.853971  -11.725111   -9.218009
  H      5.010903  -10.597532  -10.254226

 Multiplicity           Mult            ....    1
 Number of Electrons    NEL             ....   18
 Basis Dimension        Dim             ....  172

ORBITAL ENERGIES
----------------

  NO   OCC          E(Eh)            E(eV)
   0   2.0000     -19.233620      -523.3734
   1   2.0000     -10.325236      -280.9639
   2   2.0000      -1.111413       -30.2431
   3   2.0000      -0.788452       -21.4549
   4   2.0000      -0.588832       -16.0229
   5   2.0000      -0.547941       -14.9102
   6   2.0000      -0.516826       -14.0636
   7   2.0000      -0.422628       -11.5003
   8   2.0000      -0.374978       -10.2037
   9   0.0000       0.091239         2.4827
  10   0.0000       0.123390         3.3576
  11   0.0000       0.146804         3.9947
  12   0.0000       0.183571         4.9952
  13   0.0000       0.194547         5.2939

MULLIKEN ATOMIC CHARGES
-----------------------
   0 C :   -0.005342
   1 O :   -0.003255
   2 H :   -0.005459
   3 H :    0.000088
   4 H :    0.004951
   5 H :   -0.000186
   6 C :   -0.174538
   7 O :   -0.487897
   8 H :    0.320349
   9 H :    0.121366
  10 H :    0.112244
  11 H :    0.117679
Sum of atomic charges:    0.0000000

LOEWDIN ATOMIC CHARGES
----------------------
   0 C :   -0.008226
   1 O :   -0.009053
   2 H :   -0.039543
   3 H :   -0.000064
   4 H :   -0.009084
   5 H :   -0.000159
   6 C :   -0.355977
   7 O :   -0.097143
   8 H :    0.196347
   9 H :    0.102328
  10 H :    0.102449
  11 H :    0.118125

  Mayer bond orders larger than 0.1
B(  6-C ,  7-O ) :   0.9805 B(  6-C ,  9-H ) :   0.9768 B(  6-C , 10-H ) :   0.9720
B(  6-C , 11-H ) :   0.9717 B(  7-O ,  8-H ) :   0.8871

Dispersion correction           -0.000272076
FINAL SINGLE POINT ENERGY      -115.728173274663

DIPOLE MOMENT
-------------
                                X             Y             Z
Electronic contribution:      0.77192       1.36234       0.82787
Nuclear contribution   :     -0.50195      -2.00196      -0.99705
                        -----------------------------------------
Total Dipole Moment    :      0.26996      -0.63962      -0.16918
                        -----------------------------------------
Magnitude (a.u.)       :      0.71458
Magnitude (Debye)      :      1.81631

Rotational constants in cm-1:     4.085546     0.775371     0.754635
Rotational constants in MHz : 122481.572954 23245.034371 22623.390034

                             ****ORCA TERMINATED NORMALLY****
TOTAL RUN TIME: 0 days 0 hours 1 minutes 4 seconds 774 msec
