                         Program Version 4.1.2  - RELEASE  -
|  1> #Run DFT-D3 single point of the dimer
|  2> ! wB97X-D3 def2-TZVP TIGHTSCF CHELPG PMODEL PAL8
|  3>
|  4> %base "4-146_DFT_AB"
|  5>
|  6> %scf
|  7> MaxIter 1000
|  8> end
|  9>
| 10> * xyz 0 1
| 11>   C                      5.575884             3.455816             2.278661
| 12>   O                      5.570222             4.240747             1.097227
| 13>   H                      5.316256             5.104723             1.255462
| 14>   H                      6.440792             2.781911             2.223781
| 15>   H                      5.662425             4.071573             3.151950
| 16>   H                      4.681182             2.723832             2.396170
| 17>   C                      3.447843             2.517981             -1.564311
| 18>   O                      3.630382             3.821687             -1.008966
| 19>   H                      4.407714             3.800133             -0.523055
| 20>   H                      4.241171             2.142604             -2.181179
| 21>   H                      3.166179             1.787980             -0.901512
| 22>   H                      2.565668             2.317214             -2.178707
| 23> *
| 24>
| 25> #Run DFT-D3 single point of the molecule with dimer basis set
| 26> $new_job
| 27> %base "4-146_DFT_A"
| 28> ! wB97X-D3 def2-TZVP TIGHTSCF CHELPG PMODEL
| 29>
| 30> %scf
| 31> MaxIter 1000
| 32> end
| 33>
| 34> * xyz 0 1
| 35>   C                      5.575884             3.455816             2.278661
| 36>   O                      5.570222             4.240747             1.097227
| 37>   H                      5.316256             5.104723             1.255462
| 38>   H                      6.440792             2.781911             2.223781
| 39>   H                      5.662425             4.071573             3.151950
| 40>   H                      4.681182             2.723832             2.396170
| 41>   C                    : 3.447843             2.517981             -1.564311
| 42>   O                    : 3.630382             3.821687             -1.008966
| 43>   H                    : 4.407714             3.800133             -0.523055
| 44>   H                    : 4.241171             2.142604             -2.181179
| 45>   H                    : 3.166179             1.787980             -0.901512
| 46>   H                    : 2.565668             2.317214             -2.178707
| 47> *
| 48>
| 49> #Run DFT-D3 single point of the particle with dimer basis set
| 50> $new_job
| 51> %base "4-146_DFT_B"
| 52> ! wB97X-D3 def2-TZVP TIGHTSCF CHELPG PMODEL
| 53>
| 54> %scf
| 55> MaxIter 1000
| 56> end
| 57>
| 58> * xyz 0 1
| 59>   C                    : 5.575884             3.455816             2.278661
| 60>   O                    : 5.570222             4.240747             1.097227
| 61>   H                    : 5.316256             5.104723             1.255462
| 62>   H                    : 6.440792             2.781911             2.223781
| 63>   H                    : 5.662425             4.071573             3.151950
| 64>   H                    : 4.681182             2.723832             2.396170
| 65>   C                      3.447843             2.517981             -1.564311
| 66>   O                      3.630382             3.821687             -1.008966
| 67>   H                      4.407714             3.800133             -0.523055
| 68>   H                      4.241171             2.142604             -2.181179
| 69>   H                      3.166179             1.787980             -0.901512
| 70>   H                      2.565668             2.317214             -2.178707
| 71> *
| 72>
| 73>                          ****END OF INPUT****
 Total Charge           Charge          ....    0
 Multiplicity           Mult            ....    1
 Number of Electrons    NEL             ....   36
Dispersion correction           -0.001653732
FINAL SINGLE POINT ENERGY      -231.457695024165
Dispersion correction           -0.000266053
FINAL SINGLE POINT ENERGY      -115.730826343579

CARTESIAN COORDINATES (ANGSTROEM)
---------------------------------
  C      5.575884    3.455816    2.278661
  O      5.570222    4.240747    1.097227
  H      5.316256    5.104723    1.255462
  H      6.440792    2.781911    2.223781
  H      5.662425    4.071573    3.151950
  H      4.681182    2.723832    2.396170
  C      3.447843    2.517981   -1.564311
  O      3.630382    3.821687   -1.008966
  H      4.407714    3.800133   -0.523055
  H      4.241171    2.142604   -2.181179
  H      3.166179    1.787980   -0.901512
  H      2.565668    2.317214   -2.178707

 Multiplicity           Mult            ....    1
 Number of Electrons    NEL             ....   18
 Basis Dimension        Dim             ....  172

ORBITAL ENERGIES
----------------

  NO   OCC          E(Eh)            E(eV)
   0   2.0000     -19.233315      -523.3651
   1   2.0000     -10.305202      -280.4188
   2   2.0000      -1.143733       -31.1226
   3   2.0000      -0.815441       -22.1893
   4   2.0000      -0.619282       -16.8515
   5   2.0000      -0.552411       -15.0319
   6   2.0000      -0.524213       -14.2646
   7   2.0000      -0.428846       -11.6695
   8   2.0000      -0.382558       -10.4099
   9   0.0000       0.075455         2.0532
  10   0.0000       0.135442         3.6856
  11   0.0000       0.142977         3.8906
  12   0.0000       0.173878         4.7315
  13   0.0000       0.188955         5.1417

MULLIKEN ATOMIC CHARGES
-----------------------
   0 C :   -0.002555
   1 O :   -0.001295
   2 H :   -0.000232
   3 H :    0.000165
   4 H :   -0.000026
   5 H :   -0.000322
   6 C :   -0.187340
   7 O :   -0.456287
   8 H :    0.306268
   9 H :    0.112204
  10 H :    0.113241
  11 H :    0.116181
Sum of atomic charges:   -0.0000000

LOEWDIN ATOMIC CHARGES
----------------------
   0 C :   -0.003050
   1 O :   -0.014349
   2 H :   -0.001785
   3 H :   -0.000044
   4 H :   -0.000066
   5 H :   -0.000411
   6 C :   -0.378698
   7 O :   -0.044997
   8 H :    0.147559
   9 H :    0.095060
  10 H :    0.085036
  11 H :    0.115746

  Mayer bond orders larger than 0.1
B(  6-C ,  7-O ) :   1.0030 B(  6-C ,  9-H ) :   0.9827 B(  6-C , 10-H ) :   0.9716
B(  6-C , 11-H ) :   0.9730 B(  7-O ,  8-H ) :   0.9140

Dispersion correction           -0.000263726
FINAL SINGLE POINT ENERGY      -115.719416459771

DIPOLE MOMENT
-------------
                                X             Y             Z
Electronic contribution:      0.24539       1.87391       0.73884
Nuclear contribution   :      0.14239      -2.45287      -0.64895
                        -----------------------------------------
Total Dipole Moment    :      0.38777      -0.57895       0.08989
                        -----------------------------------------
Magnitude (a.u.)       :      0.70259
Magnitude (Debye)      :      1.78585

Rotational constants in cm-1:     4.970098     0.799445     0.776265
Rotational constants in MHz : 148999.777142 23966.745486 23271.847078

                             ****ORCA TERMINATED NORMALLY****
TOTAL RUN TIME: 0 days 0 hours 1 minutes 36 seconds 938 msec
