                         Program Version 4.1.2  - RELEASE  -
|  1> #Run DFT-D3 single point of the dimer
|  2> ! wB97X-D3 def2-TZVP TIGHTSCF CHELPG PMODEL PAL8
|  3>
|  4> %base "11-60_DFT_AB"
|  5>
|  6> %scf
|  7> MaxIter 1000
|  8> end
|  9>
| 10> * xyz 0 1
| 11>   C                      0.029205             -3.305085            5.575801
| 12>   O                      -1.152025            -2.596991            5.492510
| 13>   H                      -0.980307            -2.042697            4.669758
| 14>   H                      0.889800             -2.641096            5.935441
| 15>   H                      -0.058726            -4.169142            6.203153
| 16>   H                      0.260555             -3.587206            4.550461
| 17>   C                      2.217427             1.697166             7.318958
| 18>   O                      2.613277             1.466111             6.043018
| 19>   H                      3.481657             1.800172             5.873773
| 20>   H                      1.260983             2.194355             7.328991
| 21>   H                      2.080021             0.874350             8.033211
| 22>   H                      2.938580             2.440001             7.769617
| 23> *
| 24>
| 25> #Run DFT-D3 single point of the molecule with dimer basis set
| 26> $new_job
| 27> %base "11-60_DFT_A"
| 28> ! wB97X-D3 def2-TZVP TIGHTSCF CHELPG PMODEL
| 29>
| 30> %scf
| 31> MaxIter 1000
| 32> end
| 33>
| 34> * xyz 0 1
| 35>   C                      0.029205             -3.305085            5.575801
| 36>   O                      -1.152025            -2.596991            5.492510
| 37>   H                      -0.980307            -2.042697            4.669758
| 38>   H                      0.889800             -2.641096            5.935441
| 39>   H                      -0.058726            -4.169142            6.203153
| 40>   H                      0.260555             -3.587206            4.550461
| 41>   C                    : 2.217427             1.697166             7.318958
| 42>   O                    : 2.613277             1.466111             6.043018
| 43>   H                    : 3.481657             1.800172             5.873773
| 44>   H                    : 1.260983             2.194355             7.328991
| 45>   H                    : 2.080021             0.874350             8.033211
| 46>   H                    : 2.938580             2.440001             7.769617
| 47> *
| 48>
| 49> #Run DFT-D3 single point of the particle with dimer basis set
| 50> $new_job
| 51> %base "11-60_DFT_B"
| 52> ! wB97X-D3 def2-TZVP TIGHTSCF CHELPG PMODEL
| 53>
| 54> %scf
| 55> MaxIter 1000
| 56> end
| 57>
| 58> * xyz 0 1
| 59>   C                    : 0.029205             -3.305085            5.575801
| 60>   O                    : -1.152025            -2.596991            5.492510
| 61>   H                    : -0.980307            -2.042697            4.669758
| 62>   H                    : 0.889800             -2.641096            5.935441
| 63>   H                    : -0.058726            -4.169142            6.203153
| 64>   H                    : 0.260555             -3.587206            4.550461
| 65>   C                      2.217427             1.697166             7.318958
| 66>   O                      2.613277             1.466111             6.043018
| 67>   H                      3.481657             1.800172             5.873773
| 68>   H                      1.260983             2.194355             7.328991
| 69>   H                      2.080021             0.874350             8.033211
| 70>   H                      2.938580             2.440001             7.769617
| 71> *
| 72>
| 73>                          ****END OF INPUT****
 Total Charge           Charge          ....    0
 Multiplicity           Mult            ....    1
 Number of Electrons    NEL             ....   36
Dispersion correction           -0.000622657
FINAL SINGLE POINT ENERGY      -231.456978876451
Dispersion correction           -0.000203093
FINAL SINGLE POINT ENERGY      -115.727851475870

CARTESIAN COORDINATES (ANGSTROEM)
---------------------------------
  C      0.029205   -3.305085    5.575801
  O     -1.152025   -2.596991    5.492510
  H     -0.980307   -2.042697    4.669758
  H      0.889800   -2.641096    5.935441
  H     -0.058726   -4.169142    6.203153
  H      0.260555   -3.587206    4.550461
  C      2.217427    1.697166    7.318958
  O      2.613277    1.466111    6.043018
  H      3.481657    1.800172    5.873773
  H      1.260983    2.194355    7.328991
  H      2.080021    0.874350    8.033211
  H      2.938580    2.440001    7.769617

 Multiplicity           Mult            ....    1
 Number of Electrons    NEL             ....   18
 Basis Dimension        Dim             ....  172

ORBITAL ENERGIES
----------------

  NO   OCC          E(Eh)            E(eV)
   0   2.0000     -19.229886      -523.2718
   1   2.0000     -10.311053      -280.5780
   2   2.0000      -1.157250       -31.4904
   3   2.0000      -0.796899       -21.6847
   4   2.0000      -0.626250       -17.0411
   5   2.0000      -0.546816       -14.8796
   6   2.0000      -0.539736       -14.6870
   7   2.0000      -0.419068       -11.4034
   8   2.0000      -0.371796       -10.1171
   9   0.0000       0.092844         2.5264
  10   0.0000       0.112497         3.0612
  11   0.0000       0.154405         4.2016
  12   0.0000       0.173450         4.7198
  13   0.0000       0.191046         5.1986

MULLIKEN ATOMIC CHARGES
-----------------------
   0 C :    0.000128
   1 O :    0.000003
   2 H :   -0.000015
   3 H :   -0.000361
   4 H :   -0.000005
   5 H :   -0.000006
   6 C :   -0.156975
   7 O :   -0.462597
   8 H :    0.324214
   9 H :    0.107227
  10 H :    0.098756
  11 H :    0.089630
Sum of atomic charges:    0.0000000

LOEWDIN ATOMIC CHARGES
----------------------
   0 C :   -0.000024
   1 O :   -0.000002
   2 H :   -0.000004
   3 H :   -0.000105
   4 H :   -0.000001
   5 H :   -0.000001
   6 C :   -0.433927
   7 O :   -0.025977
   8 H :    0.167103
   9 H :    0.096832
  10 H :    0.094778
  11 H :    0.101328

  Mayer bond orders larger than 0.1
B(  6-C ,  7-O ) :   1.0201 B(  6-C ,  9-H ) :   0.9776 B(  6-C , 10-H ) :   0.9658
B(  6-C , 11-H ) :   0.9978 B(  7-O ,  8-H ) :   0.8952

Dispersion correction           -0.000239577
FINAL SINGLE POINT ENERGY      -115.728455993985

DIPOLE MOMENT
-------------
                                X             Y             Z
Electronic contribution:      0.44065      -0.53163      -1.81886
Nuclear contribution   :     -0.00805       0.85763       2.15987
                        -----------------------------------------
Total Dipole Moment    :      0.43260       0.32600       0.34101
                        -----------------------------------------
Magnitude (a.u.)       :      0.64009
Magnitude (Debye)      :      1.62697

Rotational constants in cm-1:     4.466926     0.877973     0.841309
Rotational constants in MHz : 133915.058897 26320.977117 25221.819061

                             ****ORCA TERMINATED NORMALLY****
TOTAL RUN TIME: 0 days 0 hours 1 minutes 5 seconds 804 msec
