                         Program Version 4.1.2  - RELEASE  -
|  1> #Run DFT-D3 single point of the dimer
|  2> ! wB97X-D3 def2-TZVP TIGHTSCF CHELPG PMODEL PAL8
|  3>
|  4> %base "12-30_DFT_AB"
|  5>
|  6> %scf
|  7> MaxIter 1000
|  8> end
|  9>
| 10> * xyz 0 1
| 11>   C                      5.213601             -6.424230            1.445439
| 12>   O                      5.630218             -5.208946            2.075847
| 13>   H                      5.563530             -4.576802            1.354313
| 14>   H                      5.329758             -7.331916            2.140380
| 15>   H                      4.144093             -6.377885            1.182249
| 16>   H                      5.866397             -6.714165            0.524728
| 17>   C                      4.145521             -3.614661            -0.974058
| 18>   O                      5.376072             -3.496439            -0.217152
| 19>   H                      5.726348             -2.660817            -0.375883
| 20>   H                      3.495321             -2.730978            -1.045053
| 21>   H                      4.298799             -3.828668            -2.016768
| 22>   H                      3.537136             -4.415809            -0.560878
| 23> *
| 24>
| 25> #Run DFT-D3 single point of the molecule with dimer basis set
| 26> $new_job
| 27> %base "12-30_DFT_A"
| 28> ! wB97X-D3 def2-TZVP TIGHTSCF CHELPG PMODEL
| 29>
| 30> %scf
| 31> MaxIter 1000
| 32> end
| 33>
| 34> * xyz 0 1
| 35>   C                      5.213601             -6.424230            1.445439
| 36>   O                      5.630218             -5.208946            2.075847
| 37>   H                      5.563530             -4.576802            1.354313
| 38>   H                      5.329758             -7.331916            2.140380
| 39>   H                      4.144093             -6.377885            1.182249
| 40>   H                      5.866397             -6.714165            0.524728
| 41>   C                    : 4.145521             -3.614661            -0.974058
| 42>   O                    : 5.376072             -3.496439            -0.217152
| 43>   H                    : 5.726348             -2.660817            -0.375883
| 44>   H                    : 3.495321             -2.730978            -1.045053
| 45>   H                    : 4.298799             -3.828668            -2.016768
| 46>   H                    : 3.537136             -4.415809            -0.560878
| 47> *
| 48>
| 49> #Run DFT-D3 single point of the particle with dimer basis set
| 50> $new_job
| 51> %base "12-30_DFT_B"
| 52> ! wB97X-D3 def2-TZVP TIGHTSCF CHELPG PMODEL
| 53>
| 54> %scf
| 55> MaxIter 1000
| 56> end
| 57>
| 58> * xyz 0 1
| 59>   C                    : 5.213601             -6.424230            1.445439
| 60>   O                    : 5.630218             -5.208946            2.075847
| 61>   H                    : 5.563530             -4.576802            1.354313
| 62>   H                    : 5.329758             -7.331916            2.140380
| 63>   H                    : 4.144093             -6.377885            1.182249
| 64>   H                    : 5.866397             -6.714165            0.524728
| 65>   C                      4.145521             -3.614661            -0.974058
| 66>   O                      5.376072             -3.496439            -0.217152
| 67>   H                      5.726348             -2.660817            -0.375883
| 68>   H                      3.495321             -2.730978            -1.045053
| 69>   H                      4.298799             -3.828668            -2.016768
| 70>   H                      3.537136             -4.415809            -0.560878
| 71> *
| 72>
| 73>                          ****END OF INPUT****
 Total Charge           Charge          ....    0
 Multiplicity           Mult            ....    1
 Number of Electrons    NEL             ....   36
Dispersion correction           -0.002092221
FINAL SINGLE POINT ENERGY      -231.471542263339
Dispersion correction           -0.000260361
FINAL SINGLE POINT ENERGY      -115.730825599058

CARTESIAN COORDINATES (ANGSTROEM)
---------------------------------
  C      5.213601   -6.424230    1.445439
  O      5.630218   -5.208946    2.075847
  H      5.563530   -4.576802    1.354313
  H      5.329758   -7.331916    2.140380
  H      4.144093   -6.377885    1.182249
  H      5.866397   -6.714165    0.524728
  C      4.145521   -3.614661   -0.974058
  O      5.376072   -3.496439   -0.217152
  H      5.726348   -2.660817   -0.375883
  H      3.495321   -2.730978   -1.045053
  H      4.298799   -3.828668   -2.016768
  H      3.537136   -4.415809   -0.560878

 Multiplicity           Mult            ....    1
 Number of Electrons    NEL             ....   18
 Basis Dimension        Dim             ....  172

ORBITAL ENERGIES
----------------

  NO   OCC          E(Eh)            E(eV)
   0   2.0000     -19.231433      -523.3139
   1   2.0000     -10.314826      -280.6807
   2   2.0000      -1.136400       -30.9230
   3   2.0000      -0.805014       -21.9055
   4   2.0000      -0.616608       -16.7788
   5   2.0000      -0.532601       -14.4928
   6   2.0000      -0.522048       -14.2057
   7   2.0000      -0.444802       -12.1037
   8   2.0000      -0.378098       -10.2886
   9   0.0000       0.099946         2.7197
  10   0.0000       0.129651         3.5280
  11   0.0000       0.148355         4.0369
  12   0.0000       0.187869         5.1122
  13   0.0000       0.199925         5.4402

MULLIKEN ATOMIC CHARGES
-----------------------
   0 C :    0.004086
   1 O :   -0.000551
   2 H :   -0.010231
   3 H :   -0.000057
   4 H :   -0.000806
   5 H :   -0.001747
   6 C :   -0.181844
   7 O :   -0.459424
   8 H :    0.303701
   9 H :    0.110137
  10 H :    0.108834
  11 H :    0.127904
Sum of atomic charges:    0.0000000

LOEWDIN ATOMIC CHARGES
----------------------
   0 C :   -0.004544
   1 O :   -0.004948
   2 H :   -0.043978
   3 H :   -0.000029
   4 H :   -0.001279
   5 H :   -0.000735
   6 C :   -0.356063
   7 O :   -0.029594
   8 H :    0.139669
   9 H :    0.098444
  10 H :    0.093117
  11 H :    0.109939

  Mayer bond orders larger than 0.1
B(  6-C ,  7-O ) :   0.9919 B(  6-C ,  9-H ) :   0.9714 B(  6-C , 10-H ) :   0.9714
B(  6-C , 11-H ) :   0.9792 B(  7-O ,  8-H ) :   0.9095

Dispersion correction           -0.000272402
FINAL SINGLE POINT ENERGY      -115.731894998838

DIPOLE MOMENT
-------------
                                X             Y             Z
Electronic contribution:      1.61413       0.04932       1.06642
Nuclear contribution   :     -1.90690       0.45342      -1.49656
                        -----------------------------------------
Total Dipole Moment    :     -0.29277       0.50273      -0.43014
                        -----------------------------------------
Magnitude (a.u.)       :      0.72352
Magnitude (Debye)      :      1.83903

Rotational constants in cm-1:     4.557011     0.791909     0.761201
Rotational constants in MHz : 136615.753565 23740.840112 22820.229106

                             ****ORCA TERMINATED NORMALLY****
TOTAL RUN TIME: 0 days 0 hours 1 minutes 10 seconds 637 msec
