                         Program Version 4.1.2  - RELEASE  -
|  1> #Run DFT-D3 single point of the dimer
|  2> ! wB97X-D3 def2-TZVP TIGHTSCF CHELPG PMODEL PAL8
|  3>
|  4> %base "8-35_DFT_AB"
|  5>
|  6> %scf
|  7> MaxIter 1000
|  8> end
|  9>
| 10> * xyz 0 1
| 11>   C                      -5.732268            -10.125279           -1.351968
| 12>   O                      -6.836174            -9.413016            -0.708576
| 13>   H                      -7.613012            -9.982425            -0.455737
| 14>   H                      -4.905482            -9.401689            -1.548393
| 15>   H                      -5.473831            -11.022509           -0.746062
| 16>   H                      -6.049753            -10.514197           -2.342592
| 17>   C                      -6.308179            -5.387465            -2.161918
| 18>   O                      -4.901234            -5.451709            -1.749648
| 19>   H                      -4.873933            -6.027285            -0.960875
| 20>   H                      -6.791508            -4.616564            -1.659120
| 21>   H                      -6.432112            -5.097386            -3.261564
| 22>   H                      -6.785034            -6.313867            -1.949980
| 23> *
| 24>
| 25> #Run DFT-D3 single point of the molecule with dimer basis set
| 26> $new_job
| 27> %base "8-35_DFT_A"
| 28> ! wB97X-D3 def2-TZVP TIGHTSCF CHELPG PMODEL
| 29>
| 30> %scf
| 31> MaxIter 1000
| 32> end
| 33>
| 34> * xyz 0 1
| 35>   C                      -5.732268            -10.125279           -1.351968
| 36>   O                      -6.836174            -9.413016            -0.708576
| 37>   H                      -7.613012            -9.982425            -0.455737
| 38>   H                      -4.905482            -9.401689            -1.548393
| 39>   H                      -5.473831            -11.022509           -0.746062
| 40>   H                      -6.049753            -10.514197           -2.342592
| 41>   C                    : -6.308179            -5.387465            -2.161918
| 42>   O                    : -4.901234            -5.451709            -1.749648
| 43>   H                    : -4.873933            -6.027285            -0.960875
| 44>   H                    : -6.791508            -4.616564            -1.659120
| 45>   H                    : -6.432112            -5.097386            -3.261564
| 46>   H                    : -6.785034            -6.313867            -1.949980
| 47> *
| 48>
| 49> #Run DFT-D3 single point of the particle with dimer basis set
| 50> $new_job
| 51> %base "8-35_DFT_B"
| 52> ! wB97X-D3 def2-TZVP TIGHTSCF CHELPG PMODEL
| 53>
| 54> %scf
| 55> MaxIter 1000
| 56> end
| 57>
| 58> * xyz 0 1
| 59>   C                    : -5.732268            -10.125279           -1.351968
| 60>   O                    : -6.836174            -9.413016            -0.708576
| 61>   H                    : -7.613012            -9.982425            -0.455737
| 62>   H                    : -4.905482            -9.401689            -1.548393
| 63>   H                    : -5.473831            -11.022509           -0.746062
| 64>   H                    : -6.049753            -10.514197           -2.342592
| 65>   C                      -6.308179            -5.387465            -2.161918
| 66>   O                      -4.901234            -5.451709            -1.749648
| 67>   H                      -4.873933            -6.027285            -0.960875
| 68>   H                      -6.791508            -4.616564            -1.659120
| 69>   H                      -6.432112            -5.097386            -3.261564
| 70>   H                      -6.785034            -6.313867            -1.949980
| 71> *
| 72>
| 73>                          ****END OF INPUT****
 Total Charge           Charge          ....    0
 Multiplicity           Mult            ....    1
 Number of Electrons    NEL             ....   36
Dispersion correction           -0.001201741
FINAL SINGLE POINT ENERGY      -231.462215660274
Dispersion correction           -0.000279408
FINAL SINGLE POINT ENERGY      -115.730525168644

CARTESIAN COORDINATES (ANGSTROEM)
---------------------------------
  C     -5.732268  -10.125279   -1.351968
  O     -6.836174   -9.413016   -0.708576
  H     -7.613012   -9.982425   -0.455737
  H     -4.905482   -9.401689   -1.548393
  H     -5.473831  -11.022509   -0.746062
  H     -6.049753  -10.514197   -2.342592
  C     -6.308179   -5.387465   -2.161918
  O     -4.901234   -5.451709   -1.749648
  H     -4.873933   -6.027285   -0.960875
  H     -6.791508   -4.616564   -1.659120
  H     -6.432112   -5.097386   -3.261564
  H     -6.785034   -6.313867   -1.949980

 Multiplicity           Mult            ....    1
 Number of Electrons    NEL             ....   18
 Basis Dimension        Dim             ....  172

ORBITAL ENERGIES
----------------

  NO   OCC          E(Eh)            E(eV)
   0   2.0000     -19.230357      -523.2846
   1   2.0000     -10.313789      -280.6525
   2   2.0000      -1.117592       -30.4112
   3   2.0000      -0.799320       -21.7506
   4   2.0000      -0.599536       -16.3142
   5   2.0000      -0.544343       -14.8123
   6   2.0000      -0.518093       -14.0980
   7   2.0000      -0.437120       -11.8946
   8   2.0000      -0.374265       -10.1843
   9   0.0000       0.074853         2.0368
  10   0.0000       0.118156         3.2152
  11   0.0000       0.145659         3.9636
  12   0.0000       0.162790         4.4298
  13   0.0000       0.186490         5.0747

MULLIKEN ATOMIC CHARGES
-----------------------
   0 C :    0.000862
   1 O :   -0.000033
   2 H :   -0.000022
   3 H :   -0.001941
   4 H :   -0.000025
   5 H :   -0.000058
   6 C :   -0.175059
   7 O :   -0.484802
   8 H :    0.313712
   9 H :    0.116713
  10 H :    0.116870
  11 H :    0.113784
Sum of atomic charges:    0.0000000

LOEWDIN ATOMIC CHARGES
----------------------
   0 C :   -0.000295
   1 O :   -0.000309
   2 H :   -0.000030
   3 H :   -0.000694
   4 H :   -0.000003
   5 H :   -0.000010
   6 C :   -0.342826
   7 O :   -0.123890
   8 H :    0.174320
   9 H :    0.084409
  10 H :    0.118546
  11 H :    0.090783

  Mayer bond orders larger than 0.1
B(  6-C ,  7-O ) :   0.9944 B(  6-C ,  9-H ) :   0.9770 B(  6-C , 10-H ) :   0.9729
B(  6-C , 11-H ) :   0.9811 B(  7-O ,  8-H ) :   0.9001

Dispersion correction           -0.000252693
FINAL SINGLE POINT ENERGY      -115.729122078128

DIPOLE MOMENT
-------------
                                X             Y             Z
Electronic contribution:      1.73531      -0.02730       0.43236
Nuclear contribution   :     -2.33890      -0.29422      -0.10050
                        -----------------------------------------
Total Dipole Moment    :     -0.60358      -0.32152       0.33186
                        -----------------------------------------
Magnitude (a.u.)       :      0.76014
Magnitude (Debye)      :      1.93213

Rotational constants in cm-1:     4.336480     0.788657     0.752036
Rotational constants in MHz : 130004.409295 23643.348480 22545.472121

                             ****ORCA TERMINATED NORMALLY****
TOTAL RUN TIME: 0 days 0 hours 0 minutes 43 seconds 509 msec
