                         Program Version 4.1.2  - RELEASE  -
|  1> #Run DFT-D3 single point of the dimer
|  2> ! wB97X-D3 def2-TZVP TIGHTSCF CHELPG PMODEL PAL8
|  3>
|  4> %base "19-162_DFT_AB"
|  5>
|  6> %scf
|  7> MaxIter 1000
|  8> end
|  9>
| 10> * xyz 0 1
| 11>   C                      -5.894835            -4.536025            1.406599
| 12>   O                      -5.274735            -3.349634            1.808370
| 13>   H                      -5.727982            -3.102801            2.615311
| 14>   H                      -5.648396            -4.665075            0.317086
| 15>   H                      -5.501447            -5.436554            1.904823
| 16>   H                      -6.964361            -4.431291            1.368194
| 17>   C                      -5.067157            -1.182293            -1.184574
| 18>   O                      -4.924281            -0.519142            0.066687
| 19>   H                      -4.938838            -1.235258            0.696204
| 20>   H                      -4.973435            -0.488206            -2.016358
| 21>   H                      -4.351831            -1.962786            -1.437914
| 22>   H                      -6.108535            -1.575650            -1.307936
| 23> *
| 24>
| 25> #Run DFT-D3 single point of the molecule with dimer basis set
| 26> $new_job
| 27> %base "19-162_DFT_A"
| 28> ! wB97X-D3 def2-TZVP TIGHTSCF CHELPG PMODEL
| 29>
| 30> %scf
| 31> MaxIter 1000
| 32> end
| 33>
| 34> * xyz 0 1
| 35>   C                      -5.894835            -4.536025            1.406599
| 36>   O                      -5.274735            -3.349634            1.808370
| 37>   H                      -5.727982            -3.102801            2.615311
| 38>   H                      -5.648396            -4.665075            0.317086
| 39>   H                      -5.501447            -5.436554            1.904823
| 40>   H                      -6.964361            -4.431291            1.368194
| 41>   C                    : -5.067157            -1.182293            -1.184574
| 42>   O                    : -4.924281            -0.519142            0.066687
| 43>   H                    : -4.938838            -1.235258            0.696204
| 44>   H                    : -4.973435            -0.488206            -2.016358
| 45>   H                    : -4.351831            -1.962786            -1.437914
| 46>   H                    : -6.108535            -1.575650            -1.307936
| 47> *
| 48>
| 49> #Run DFT-D3 single point of the particle with dimer basis set
| 50> $new_job
| 51> %base "19-162_DFT_B"
| 52> ! wB97X-D3 def2-TZVP TIGHTSCF CHELPG PMODEL
| 53>
| 54> %scf
| 55> MaxIter 1000
| 56> end
| 57>
| 58> * xyz 0 1
| 59>   C                    : -5.894835            -4.536025            1.406599
| 60>   O                    : -5.274735            -3.349634            1.808370
| 61>   H                    : -5.727982            -3.102801            2.615311
| 62>   H                    : -5.648396            -4.665075            0.317086
| 63>   H                    : -5.501447            -5.436554            1.904823
| 64>   H                    : -6.964361            -4.431291            1.368194
| 65>   C                      -5.067157            -1.182293            -1.184574
| 66>   O                      -4.924281            -0.519142            0.066687
| 67>   H                      -4.938838            -1.235258            0.696204
| 68>   H                      -4.973435            -0.488206            -2.016358
| 69>   H                      -4.351831            -1.962786            -1.437914
| 70>   H                      -6.108535            -1.575650            -1.307936
| 71> *
| 72>
| 73>                          ****END OF INPUT****
 Total Charge           Charge          ....    0
 Multiplicity           Mult            ....    1
 Number of Electrons    NEL             ....   36
Dispersion correction           -0.001717154
FINAL SINGLE POINT ENERGY      -231.473673786593
Dispersion correction           -0.000233331
FINAL SINGLE POINT ENERGY      -115.733402710774

CARTESIAN COORDINATES (ANGSTROEM)
---------------------------------
  C     -5.894835   -4.536025    1.406599
  O     -5.274735   -3.349634    1.808370
  H     -5.727982   -3.102801    2.615311
  H     -5.648396   -4.665075    0.317086
  H     -5.501447   -5.436554    1.904823
  H     -6.964361   -4.431291    1.368194
  C     -5.067157   -1.182293   -1.184574
  O     -4.924281   -0.519142    0.066687
  H     -4.938838   -1.235258    0.696204
  H     -4.973435   -0.488206   -2.016358
  H     -4.351831   -1.962786   -1.437914
  H     -6.108535   -1.575650   -1.307936

 Multiplicity           Mult            ....    1
 Number of Electrons    NEL             ....   18
 Basis Dimension        Dim             ....  172

ORBITAL ENERGIES
----------------

  NO   OCC          E(Eh)            E(eV)
   0   2.0000     -19.235619      -523.4278
   1   2.0000     -10.315147      -280.6894
   2   2.0000      -1.139677       -31.0122
   3   2.0000      -0.796258       -21.6673
   4   2.0000      -0.609585       -16.5877
   5   2.0000      -0.540364       -14.7041
   6   2.0000      -0.526147       -14.3172
   7   2.0000      -0.437816       -11.9136
   8   2.0000      -0.377757       -10.2793
   9   0.0000       0.069144         1.8815
  10   0.0000       0.130515         3.5515
  11   0.0000       0.137663         3.7460
  12   0.0000       0.179234         4.8772
  13   0.0000       0.182785         4.9738

MULLIKEN ATOMIC CHARGES
-----------------------
   0 C :    0.000108
   1 O :   -0.000993
   2 H :   -0.000309
   3 H :   -0.000386
   4 H :    0.000007
   5 H :   -0.000128
   6 C :   -0.183588
   7 O :   -0.458353
   8 H :    0.311782
   9 H :    0.120151
  10 H :    0.110006
  11 H :    0.101703
Sum of atomic charges:   -0.0000000

LOEWDIN ATOMIC CHARGES
----------------------
   0 C :   -0.000938
   1 O :   -0.005679
   2 H :   -0.000809
   3 H :   -0.000307
   4 H :   -0.000016
   5 H :   -0.000038
   6 C :   -0.391111
   7 O :   -0.070688
   8 H :    0.167681
   9 H :    0.106739
  10 H :    0.094519
  11 H :    0.100648

  Mayer bond orders larger than 0.1
B(  6-C ,  7-O ) :   1.0002 B(  6-C ,  9-H ) :   0.9756 B(  6-C , 10-H ) :   0.9677
B(  6-C , 11-H ) :   0.9783 B(  7-O ,  8-H ) :   0.9107

Dispersion correction           -0.000252675
FINAL SINGLE POINT ENERGY      -115.733832493583

DIPOLE MOMENT
-------------
                                X             Y             Z
Electronic contribution:      0.29998       0.98755       1.67188
Nuclear contribution   :     -0.35191      -1.67434      -1.78427
                        -----------------------------------------
Total Dipole Moment    :     -0.05193      -0.68679      -0.11239
                        -----------------------------------------
Magnitude (a.u.)       :      0.69786
Magnitude (Debye)      :      1.77383

Rotational constants in cm-1:     4.367402     0.812688     0.790513
Rotational constants in MHz : 130931.426111 24363.769109 23698.989250

                             ****ORCA TERMINATED NORMALLY****
TOTAL RUN TIME: 0 days 0 hours 0 minutes 49 seconds 850 msec
