                         Program Version 4.1.2  - RELEASE  -
|  1> #Run DFT-D3 single point of the dimer
|  2> ! wB97X-D3 def2-TZVP TIGHTSCF CHELPG PMODEL PAL8
|  3>
|  4> %base "2-112_DFT_AB"
|  5>
|  6> %scf
|  7> MaxIter 1000
|  8> end
|  9>
| 10> * xyz 0 1
| 11>   C                      -11.039653           -0.863043            -7.009951
| 12>   O                      -9.846374            -0.423377            -7.613633
| 13>   H                      -9.078687            -0.729567            -7.139579
| 14>   H                      -10.911681           -0.614363            -5.982342
| 15>   H                      -11.876190           -0.281241            -7.407889
| 16>   H                      -11.245498           -1.931224            -7.171333
| 17>   C                      -9.224930            4.839773             -7.286287
| 18>   O                      -8.231140            4.166823             -6.498063
| 19>   H                      -8.353721            3.247106             -6.539057
| 20>   H                      -9.437909            4.274137             -8.195212
| 21>   H                      -10.117636           4.978880             -6.708360
| 22>   H                      -9.045437            5.853248             -7.636476
| 23> *
| 24>
| 25> #Run DFT-D3 single point of the molecule with dimer basis set
| 26> $new_job
| 27> %base "2-112_DFT_A"
| 28> ! wB97X-D3 def2-TZVP TIGHTSCF CHELPG PMODEL
| 29>
| 30> %scf
| 31> MaxIter 1000
| 32> end
| 33>
| 34> * xyz 0 1
| 35>   C                      -11.039653           -0.863043            -7.009951
| 36>   O                      -9.846374            -0.423377            -7.613633
| 37>   H                      -9.078687            -0.729567            -7.139579
| 38>   H                      -10.911681           -0.614363            -5.982342
| 39>   H                      -11.876190           -0.281241            -7.407889
| 40>   H                      -11.245498           -1.931224            -7.171333
| 41>   C                    : -9.224930            4.839773             -7.286287
| 42>   O                    : -8.231140            4.166823             -6.498063
| 43>   H                    : -8.353721            3.247106             -6.539057
| 44>   H                    : -9.437909            4.274137             -8.195212
| 45>   H                    : -10.117636           4.978880             -6.708360
| 46>   H                    : -9.045437            5.853248             -7.636476
| 47> *
| 48>
| 49> #Run DFT-D3 single point of the particle with dimer basis set
| 50> $new_job
| 51> %base "2-112_DFT_B"
| 52> ! wB97X-D3 def2-TZVP TIGHTSCF CHELPG PMODEL
| 53>
| 54> %scf
| 55> MaxIter 1000
| 56> end
| 57>
| 58> * xyz 0 1
| 59>   C                    : -11.039653           -0.863043            -7.009951
| 60>   O                    : -9.846374            -0.423377            -7.613633
| 61>   H                    : -9.078687            -0.729567            -7.139579
| 62>   H                    : -10.911681           -0.614363            -5.982342
| 63>   H                    : -11.876190           -0.281241            -7.407889
| 64>   H                    : -11.245498           -1.931224            -7.171333
| 65>   C                      -9.224930            4.839773             -7.286287
| 66>   O                      -8.231140            4.166823             -6.498063
| 67>   H                      -8.353721            3.247106             -6.539057
| 68>   H                      -9.437909            4.274137             -8.195212
| 69>   H                      -10.117636           4.978880             -6.708360
| 70>   H                      -9.045437            5.853248             -7.636476
| 71> *
| 72>
| 73>                          ****END OF INPUT****
 Total Charge           Charge          ....    0
 Multiplicity           Mult            ....    1
 Number of Electrons    NEL             ....   36
Dispersion correction           -0.000704769
FINAL SINGLE POINT ENERGY      -231.464211515024
Dispersion correction           -0.000228634
FINAL SINGLE POINT ENERGY      -115.733941715250

CARTESIAN COORDINATES (ANGSTROEM)
---------------------------------
  C    -11.039653   -0.863043   -7.009951
  O     -9.846374   -0.423377   -7.613633
  H     -9.078687   -0.729567   -7.139579
  H    -10.911681   -0.614363   -5.982342
  H    -11.876190   -0.281241   -7.407889
  H    -11.245498   -1.931224   -7.171333
  C     -9.224930    4.839773   -7.286287
  O     -8.231140    4.166823   -6.498063
  H     -8.353721    3.247106   -6.539057
  H     -9.437909    4.274137   -8.195212
  H    -10.117636    4.978880   -6.708360
  H     -9.045437    5.853248   -7.636476

 Multiplicity           Mult            ....    1
 Number of Electrons    NEL             ....   18
 Basis Dimension        Dim             ....  172

ORBITAL ENERGIES
----------------

  NO   OCC          E(Eh)            E(eV)
   0   2.0000     -19.226640      -523.1835
   1   2.0000     -10.312810      -280.6258
   2   2.0000      -1.134250       -30.8645
   3   2.0000      -0.804602       -21.8943
   4   2.0000      -0.611123       -16.6295
   5   2.0000      -0.543411       -14.7870
   6   2.0000      -0.530733       -14.4420
   7   2.0000      -0.427298       -11.6274
   8   2.0000      -0.375335       -10.2134
   9   0.0000       0.077452         2.1076
  10   0.0000       0.118086         3.2133
  11   0.0000       0.147901         4.0246
  12   0.0000       0.165427         4.5015
  13   0.0000       0.192484         5.2377

MULLIKEN ATOMIC CHARGES
-----------------------
   0 C :   -0.000023
   1 O :   -0.000002
   2 H :   -0.000017
   3 H :    0.000000
   4 H :   -0.000002
   5 H :   -0.000000
   6 C :   -0.164544
   7 O :   -0.478486
   8 H :    0.312913
   9 H :    0.104849
  10 H :    0.107644
  11 H :    0.117668
Sum of atomic charges:    0.0000000

LOEWDIN ATOMIC CHARGES
----------------------
   0 C :   -0.000016
   1 O :   -0.000022
   2 H :   -0.000030
   3 H :   -0.000002
   4 H :   -0.000001
   5 H :   -0.000001
   6 C :   -0.365488
   7 O :   -0.078007
   8 H :    0.147239
   9 H :    0.097376
  10 H :    0.092658
  11 H :    0.106296

  Mayer bond orders larger than 0.1
B(  6-C ,  7-O ) :   0.9955 B(  6-C ,  9-H ) :   0.9839 B(  6-C , 10-H ) :   0.9798
B(  6-C , 11-H ) :   0.9718 B(  7-O ,  8-H ) :   0.9042

Dispersion correction           -0.000256733
FINAL SINGLE POINT ENERGY      -115.729231827997

DIPOLE MOMENT
-------------
                                X             Y             Z
Electronic contribution:      1.39599      -0.73748       1.04623
Nuclear contribution   :     -1.89985       0.43163      -1.41699
                        -----------------------------------------
Total Dipole Moment    :     -0.50386      -0.30585      -0.37075
                        -----------------------------------------
Magnitude (a.u.)       :      0.69633
Magnitude (Debye)      :      1.76993

Rotational constants in cm-1:     4.616175     0.799289     0.775407
Rotational constants in MHz : 138389.457278 23962.086992 23246.110390

                             ****ORCA TERMINATED NORMALLY****
TOTAL RUN TIME: 0 days 0 hours 5 minutes 52 seconds 798 msec
