                         Program Version 4.1.2  - RELEASE  -
|  1> #Run DFT-D3 single point of the dimer
|  2> ! wB97X-D3 def2-TZVP TIGHTSCF CHELPG PMODEL PAL8
|  3>
|  4> %base "9-139_DFT_AB"
|  5>
|  6> %scf
|  7> MaxIter 1000
|  8> end
|  9>
| 10> * xyz 0 1
| 11>   C                      -0.644259            -10.288811           -0.613577
| 12>   O                      0.403820             -9.855791            0.193845
| 13>   H                      0.055486             -9.356534            0.947444
| 14>   H                      -1.065645            -11.179136           -0.133979
| 15>   H                      -1.357217            -9.505382            -0.921732
| 16>   H                      -0.289226            -10.785823           -1.502527
| 17>   C                      -1.495863            -7.793966            2.578970
| 18>   O                      -0.483908            -8.710435            2.830056
| 19>   H                      -0.539122            -8.859072            3.780533
| 20>   H                      -1.316843            -6.805620            3.074040
| 21>   H                      -1.618548            -7.589966            1.567328
| 22>   H                      -2.421022            -8.112278            2.983919
| 23> *
| 24>
| 25> #Run DFT-D3 single point of the molecule with dimer basis set
| 26> $new_job
| 27> %base "9-139_DFT_A"
| 28> ! wB97X-D3 def2-TZVP TIGHTSCF CHELPG PMODEL
| 29>
| 30> %scf
| 31> MaxIter 1000
| 32> end
| 33>
| 34> * xyz 0 1
| 35>   C                      -0.644259            -10.288811           -0.613577
| 36>   O                      0.403820             -9.855791            0.193845
| 37>   H                      0.055486             -9.356534            0.947444
| 38>   H                      -1.065645            -11.179136           -0.133979
| 39>   H                      -1.357217            -9.505382            -0.921732
| 40>   H                      -0.289226            -10.785823           -1.502527
| 41>   C                    : -1.495863            -7.793966            2.578970
| 42>   O                    : -0.483908            -8.710435            2.830056
| 43>   H                    : -0.539122            -8.859072            3.780533
| 44>   H                    : -1.316843            -6.805620            3.074040
| 45>   H                    : -1.618548            -7.589966            1.567328
| 46>   H                    : -2.421022            -8.112278            2.983919
| 47> *
| 48>
| 49> #Run DFT-D3 single point of the particle with dimer basis set
| 50> $new_job
| 51> %base "9-139_DFT_B"
| 52> ! wB97X-D3 def2-TZVP TIGHTSCF CHELPG PMODEL
| 53>
| 54> %scf
| 55> MaxIter 1000
| 56> end
| 57>
| 58> * xyz 0 1
| 59>   C                    : -0.644259            -10.288811           -0.613577
| 60>   O                    : 0.403820             -9.855791            0.193845
| 61>   H                    : 0.055486             -9.356534            0.947444
| 62>   H                    : -1.065645            -11.179136           -0.133979
| 63>   H                    : -1.357217            -9.505382            -0.921732
| 64>   H                    : -0.289226            -10.785823           -1.502527
| 65>   C                      -1.495863            -7.793966            2.578970
| 66>   O                      -0.483908            -8.710435            2.830056
| 67>   H                      -0.539122            -8.859072            3.780533
| 68>   H                      -1.316843            -6.805620            3.074040
| 69>   H                      -1.618548            -7.589966            1.567328
| 70>   H                      -2.421022            -8.112278            2.983919
| 71> *
| 72>
| 73>                          ****END OF INPUT****
 Total Charge           Charge          ....    0
 Multiplicity           Mult            ....    1
 Number of Electrons    NEL             ....   36
Dispersion correction           -0.001735291
FINAL SINGLE POINT ENERGY      -231.469337118040
Dispersion correction           -0.000240899
FINAL SINGLE POINT ENERGY      -115.731053252131

CARTESIAN COORDINATES (ANGSTROEM)
---------------------------------
  C     -0.644259  -10.288811   -0.613577
  O      0.403820   -9.855791    0.193845
  H      0.055486   -9.356534    0.947444
  H     -1.065645  -11.179136   -0.133979
  H     -1.357217   -9.505382   -0.921732
  H     -0.289226  -10.785823   -1.502527
  C     -1.495863   -7.793966    2.578970
  O     -0.483908   -8.710435    2.830056
  H     -0.539122   -8.859072    3.780533
  H     -1.316843   -6.805620    3.074040
  H     -1.618548   -7.589966    1.567328
  H     -2.421022   -8.112278    2.983919

 Multiplicity           Mult            ....    1
 Number of Electrons    NEL             ....   18
 Basis Dimension        Dim             ....  172

ORBITAL ENERGIES
----------------

  NO   OCC          E(Eh)            E(eV)
   0   2.0000     -19.233053      -523.3580
   1   2.0000     -10.303712      -280.3783
   2   2.0000      -1.147493       -31.2249
   3   2.0000      -0.799274       -21.7494
   4   2.0000      -0.619003       -16.8439
   5   2.0000      -0.542045       -14.7498
   6   2.0000      -0.536919       -14.6103
   7   2.0000      -0.442345       -12.0368
   8   2.0000      -0.370856       -10.0915
   9   0.0000       0.096999         2.6395
  10   0.0000       0.120906         3.2900
  11   0.0000       0.156158         4.2493
  12   0.0000       0.187238         5.0950
  13   0.0000       0.203589         5.5399

MULLIKEN ATOMIC CHARGES
-----------------------
   0 C :   -0.000033
   1 O :    0.001310
   2 H :   -0.009507
   3 H :   -0.000528
   4 H :   -0.000294
   5 H :   -0.000084
   6 C :   -0.162517
   7 O :   -0.448385
   8 H :    0.309167
   9 H :    0.089773
  10 H :    0.123553
  11 H :    0.097545
Sum of atomic charges:   -0.0000000

LOEWDIN ATOMIC CHARGES
----------------------
   0 C :   -0.001520
   1 O :   -0.003067
   2 H :   -0.027027
   3 H :   -0.000180
   4 H :   -0.000332
   5 H :   -0.000022
   6 C :   -0.395845
   7 O :   -0.031052
   8 H :    0.176457
   9 H :    0.098227
  10 H :    0.097122
  11 H :    0.087239

  Mayer bond orders larger than 0.1
B(  6-C ,  7-O ) :   0.9951 B(  6-C ,  9-H ) :   0.9757 B(  6-C , 10-H ) :   0.9778
B(  6-C , 11-H ) :   0.9817 B(  7-O ,  8-H ) :   0.9006

Dispersion correction           -0.000212172
FINAL SINGLE POINT ENERGY      -115.732469370807

DIPOLE MOMENT
-------------
                                X             Y             Z
Electronic contribution:      1.38428      -1.30903       0.06300
Nuclear contribution   :     -1.81662       1.55386       0.42476
                        -----------------------------------------
Total Dipole Moment    :     -0.43234       0.24483       0.48776
                        -----------------------------------------
Magnitude (a.u.)       :      0.69625
Magnitude (Debye)      :      1.76973

Rotational constants in cm-1:     4.453426     0.861974     0.827232
Rotational constants in MHz : 133510.342513 25841.335711 24799.794727

                             ****ORCA TERMINATED NORMALLY****
TOTAL RUN TIME: 0 days 0 hours 0 minutes 46 seconds 519 msec
