                         Program Version 4.1.2  - RELEASE  -
|  1> #Run DFT-D3 single point of the dimer
|  2> ! wB97X-D3 def2-TZVP TIGHTSCF CHELPG PMODEL PAL8
|  3>
|  4> %base "2-58_DFT_AB"
|  5>
|  6> %scf
|  7> MaxIter 1000
|  8> end
|  9>
| 10> * xyz 0 1
| 11>   C                      0.999467             -9.027304            -3.912011
| 12>   O                      2.186414             -9.130388            -3.186209
| 13>   H                      2.083546             -9.885682            -2.567494
| 14>   H                      0.950091             -9.809537            -4.582821
| 15>   H                      0.089306             -9.087572            -3.267712
| 16>   H                      0.963477             -8.154280            -4.573107
| 17>   C                      1.254855             -3.502723            -4.882211
| 18>   O                      0.769337             -3.116388            -6.096251
| 19>   H                      1.398327             -2.419543            -6.356148
| 20>   H                      1.332779             -4.581020            -4.796774
| 21>   H                      2.314396             -3.121156            -4.747694
| 22>   H                      0.714537             -3.056710            -3.998052
| 23> *
| 24>
| 25> #Run DFT-D3 single point of the molecule with dimer basis set
| 26> $new_job
| 27> %base "2-58_DFT_A"
| 28> ! wB97X-D3 def2-TZVP TIGHTSCF CHELPG PMODEL
| 29>
| 30> %scf
| 31> MaxIter 1000
| 32> end
| 33>
| 34> * xyz 0 1
| 35>   C                      0.999467             -9.027304            -3.912011
| 36>   O                      2.186414             -9.130388            -3.186209
| 37>   H                      2.083546             -9.885682            -2.567494
| 38>   H                      0.950091             -9.809537            -4.582821
| 39>   H                      0.089306             -9.087572            -3.267712
| 40>   H                      0.963477             -8.154280            -4.573107
| 41>   C                    : 1.254855             -3.502723            -4.882211
| 42>   O                    : 0.769337             -3.116388            -6.096251
| 43>   H                    : 1.398327             -2.419543            -6.356148
| 44>   H                    : 1.332779             -4.581020            -4.796774
| 45>   H                    : 2.314396             -3.121156            -4.747694
| 46>   H                    : 0.714537             -3.056710            -3.998052
| 47> *
| 48>
| 49> #Run DFT-D3 single point of the particle with dimer basis set
| 50> $new_job
| 51> %base "2-58_DFT_B"
| 52> ! wB97X-D3 def2-TZVP TIGHTSCF CHELPG PMODEL
| 53>
| 54> %scf
| 55> MaxIter 1000
| 56> end
| 57>
| 58> * xyz 0 1
| 59>   C                    : 0.999467             -9.027304            -3.912011
| 60>   O                    : 2.186414             -9.130388            -3.186209
| 61>   H                    : 2.083546             -9.885682            -2.567494
| 62>   H                    : 0.950091             -9.809537            -4.582821
| 63>   H                    : 0.089306             -9.087572            -3.267712
| 64>   H                    : 0.963477             -8.154280            -4.573107
| 65>   C                      1.254855             -3.502723            -4.882211
| 66>   O                      0.769337             -3.116388            -6.096251
| 67>   H                      1.398327             -2.419543            -6.356148
| 68>   H                      1.332779             -4.581020            -4.796774
| 69>   H                      2.314396             -3.121156            -4.747694
| 70>   H                      0.714537             -3.056710            -3.998052
| 71> *
| 72>
| 73>                          ****END OF INPUT****
 Total Charge           Charge          ....    0
 Multiplicity           Mult            ....    1
 Number of Electrons    NEL             ....   36
Dispersion correction           -0.000629193
FINAL SINGLE POINT ENERGY      -231.460289872365
Dispersion correction           -0.000223826
FINAL SINGLE POINT ENERGY      -115.730582728101

CARTESIAN COORDINATES (ANGSTROEM)
---------------------------------
  C      0.999467   -9.027304   -3.912011
  O      2.186414   -9.130388   -3.186209
  H      2.083546   -9.885682   -2.567494
  H      0.950091   -9.809537   -4.582821
  H      0.089306   -9.087572   -3.267712
  H      0.963477   -8.154280   -4.573107
  C      1.254855   -3.502723   -4.882211
  O      0.769337   -3.116388   -6.096251
  H      1.398327   -2.419543   -6.356148
  H      1.332779   -4.581020   -4.796774
  H      2.314396   -3.121156   -4.747694
  H      0.714537   -3.056710   -3.998052

 Multiplicity           Mult            ....    1
 Number of Electrons    NEL             ....   18
 Basis Dimension        Dim             ....  172

ORBITAL ENERGIES
----------------

  NO   OCC          E(Eh)            E(eV)
   0   2.0000     -19.235353      -523.4206
   1   2.0000     -10.315609      -280.7020
   2   2.0000      -1.156840       -31.4792
   3   2.0000      -0.784751       -21.3542
   4   2.0000      -0.621167       -16.9028
   5   2.0000      -0.548087       -14.9142
   6   2.0000      -0.531941       -14.4748
   7   2.0000      -0.428362       -11.6563
   8   2.0000      -0.373180       -10.1548
   9   0.0000       0.086740         2.3603
  10   0.0000       0.106880         2.9083
  11   0.0000       0.146098         3.9755
  12   0.0000       0.168642         4.5890
  13   0.0000       0.185521         5.0483

MULLIKEN ATOMIC CHARGES
-----------------------
   0 C :   -0.000157
   1 O :    0.000005
   2 H :   -0.000000
   3 H :    0.000006
   4 H :    0.000005
   5 H :    0.000126
   6 C :   -0.170807
   7 O :   -0.445052
   8 H :    0.323756
   9 H :    0.114505
  10 H :    0.086098
  11 H :    0.091515
Sum of atomic charges:    0.0000000

LOEWDIN ATOMIC CHARGES
----------------------
   0 C :   -0.000087
   1 O :   -0.000001
   2 H :   -0.000000
   3 H :   -0.000000
   4 H :   -0.000001
   5 H :   -0.000218
   6 C :   -0.439974
   7 O :   -0.043627
   8 H :    0.189192
   9 H :    0.098264
  10 H :    0.098462
  11 H :    0.097990

  Mayer bond orders larger than 0.1
B(  6-C ,  7-O ) :   1.0257 B(  6-C ,  9-H ) :   0.9720 B(  6-C , 10-H ) :   0.9953
B(  6-C , 11-H ) :   0.9668 B(  7-O ,  8-H ) :   0.8966

Dispersion correction           -0.000226810
FINAL SINGLE POINT ENERGY      -115.729298230245

DIPOLE MOMENT
-------------
                                X             Y             Z
Electronic contribution:     -0.92490       0.34153      -1.72760
Nuclear contribution   :      1.51321      -0.03871       1.96272
                        -----------------------------------------
Total Dipole Moment    :      0.58831       0.30282       0.23512
                        -----------------------------------------
Magnitude (a.u.)       :      0.70220
Magnitude (Debye)      :      1.78485

Rotational constants in cm-1:     4.146604     0.878051     0.846346
Rotational constants in MHz : 124312.048486 26323.300082 25372.821240

                             ****ORCA TERMINATED NORMALLY****
TOTAL RUN TIME: 0 days 0 hours 5 minutes 56 seconds 829 msec
