                         Program Version 4.1.2  - RELEASE  -
|  1> #Run DFT-D3 single point of the dimer
|  2> ! wB97X-D3 def2-TZVP TIGHTSCF CHELPG PMODEL PAL8
|  3>
|  4> %base "13-19_DFT_AB"
|  5>
|  6> %scf
|  7> MaxIter 1000
|  8> end
|  9>
| 10> * xyz 0 1
| 11>   C                      -1.759558            -3.697240            10.473655
| 12>   O                      -1.814703            -2.791501            9.446395
| 13>   H                      -1.493921            -1.963915            9.817831
| 14>   H                      -0.839036            -3.765161            10.942798
| 15>   H                      -2.437705            -3.484567            11.215743
| 16>   H                      -1.906414            -4.658250            10.028213
| 17>   C                      -3.727973            -1.649704            6.637132
| 18>   O                      -2.891218            -1.145543            5.615746
| 19>   H                      -2.828030            -1.761109            4.912795
| 20>   H                      -3.366641            -2.494963            7.158511
| 21>   H                      -3.949800            -0.870699            7.426637
| 22>   H                      -4.697493            -1.951473            6.241706
| 23> *
| 24>
| 25> #Run DFT-D3 single point of the molecule with dimer basis set
| 26> $new_job
| 27> %base "13-19_DFT_A"
| 28> ! wB97X-D3 def2-TZVP TIGHTSCF CHELPG PMODEL
| 29>
| 30> %scf
| 31> MaxIter 1000
| 32> end
| 33>
| 34> * xyz 0 1
| 35>   C                      -1.759558            -3.697240            10.473655
| 36>   O                      -1.814703            -2.791501            9.446395
| 37>   H                      -1.493921            -1.963915            9.817831
| 38>   H                      -0.839036            -3.765161            10.942798
| 39>   H                      -2.437705            -3.484567            11.215743
| 40>   H                      -1.906414            -4.658250            10.028213
| 41>   C                    : -3.727973            -1.649704            6.637132
| 42>   O                    : -2.891218            -1.145543            5.615746
| 43>   H                    : -2.828030            -1.761109            4.912795
| 44>   H                    : -3.366641            -2.494963            7.158511
| 45>   H                    : -3.949800            -0.870699            7.426637
| 46>   H                    : -4.697493            -1.951473            6.241706
| 47> *
| 48>
| 49> #Run DFT-D3 single point of the particle with dimer basis set
| 50> $new_job
| 51> %base "13-19_DFT_B"
| 52> ! wB97X-D3 def2-TZVP TIGHTSCF CHELPG PMODEL
| 53>
| 54> %scf
| 55> MaxIter 1000
| 56> end
| 57>
| 58> * xyz 0 1
| 59>   C                    : -1.759558            -3.697240            10.473655
| 60>   O                    : -1.814703            -2.791501            9.446395
| 61>   H                    : -1.493921            -1.963915            9.817831
| 62>   H                    : -0.839036            -3.765161            10.942798
| 63>   H                    : -2.437705            -3.484567            11.215743
| 64>   H                    : -1.906414            -4.658250            10.028213
| 65>   C                      -3.727973            -1.649704            6.637132
| 66>   O                      -2.891218            -1.145543            5.615746
| 67>   H                      -2.828030            -1.761109            4.912795
| 68>   H                      -3.366641            -2.494963            7.158511
| 69>   H                      -3.949800            -0.870699            7.426637
| 70>   H                      -4.697493            -1.951473            6.241706
| 71> *
| 72>
| 73>                          ****END OF INPUT****
 Total Charge           Charge          ....    0
 Multiplicity           Mult            ....    1
 Number of Electrons    NEL             ....   36
Dispersion correction           -0.001250395
FINAL SINGLE POINT ENERGY      -231.463308631797
Dispersion correction           -0.000194011
FINAL SINGLE POINT ENERGY      -115.728537214860

CARTESIAN COORDINATES (ANGSTROEM)
---------------------------------
  C     -1.759558   -3.697240   10.473655
  O     -1.814703   -2.791501    9.446395
  H     -1.493921   -1.963915    9.817831
  H     -0.839036   -3.765161   10.942798
  H     -2.437705   -3.484567   11.215743
  H     -1.906414   -4.658250   10.028213
  C     -3.727973   -1.649704    6.637132
  O     -2.891218   -1.145543    5.615746
  H     -2.828030   -1.761109    4.912795
  H     -3.366641   -2.494963    7.158511
  H     -3.949800   -0.870699    7.426637
  H     -4.697493   -1.951473    6.241706

 Multiplicity           Mult            ....    1
 Number of Electrons    NEL             ....   18
 Basis Dimension        Dim             ....  172

ORBITAL ENERGIES
----------------

  NO   OCC          E(Eh)            E(eV)
   0   2.0000     -19.229058      -523.2493
   1   2.0000     -10.313128      -280.6345
   2   2.0000      -1.140086       -31.0233
   3   2.0000      -0.800628       -21.7862
   4   2.0000      -0.618694       -16.8355
   5   2.0000      -0.541091       -14.7238
   6   2.0000      -0.525447       -14.2981
   7   2.0000      -0.431317       -11.7367
   8   2.0000      -0.375699       -10.2233
   9   0.0000       0.083900         2.2830
  10   0.0000       0.120713         3.2848
  11   0.0000       0.149922         4.0796
  12   0.0000       0.168181         4.5764
  13   0.0000       0.187545         5.1034

MULLIKEN ATOMIC CHARGES
-----------------------
   0 C :    0.000160
   1 O :    0.000267
   2 H :   -0.000008
   3 H :   -0.000010
   4 H :   -0.000030
   5 H :   -0.000058
   6 C :   -0.158562
   7 O :   -0.474477
   8 H :    0.312276
   9 H :    0.104709
  10 H :    0.116336
  11 H :    0.099397
Sum of atomic charges:   -0.0000000

LOEWDIN ATOMIC CHARGES
----------------------
   0 C :   -0.000507
   1 O :   -0.002587
   2 H :   -0.000301
   3 H :   -0.000014
   4 H :   -0.000014
   5 H :   -0.000060
   6 C :   -0.383709
   7 O :   -0.062642
   8 H :    0.153414
   9 H :    0.085454
  10 H :    0.118056
  11 H :    0.092910

  Mayer bond orders larger than 0.1
B(  6-C ,  7-O ) :   0.9969 B(  6-C ,  9-H ) :   0.9694 B(  6-C , 10-H ) :   0.9739
B(  6-C , 11-H ) :   0.9812 B(  7-O ,  8-H ) :   0.9017

Dispersion correction           -0.000250592
FINAL SINGLE POINT ENERGY      -115.733404117561

DIPOLE MOMENT
-------------
                                X             Y             Z
Electronic contribution:      1.20493       0.71895      -1.28772
Nuclear contribution   :     -1.50438      -1.33392       1.24328
                        -----------------------------------------
Total Dipole Moment    :     -0.29945      -0.61497      -0.04444
                        -----------------------------------------
Magnitude (a.u.)       :      0.68545
Magnitude (Debye)      :      1.74226

Rotational constants in cm-1:     4.490082     0.823468     0.791335
Rotational constants in MHz : 134609.259309 24686.959812 23723.632150

                             ****ORCA TERMINATED NORMALLY****
TOTAL RUN TIME: 0 days 0 hours 1 minutes 11 seconds 386 msec
