                         Program Version 4.1.2  - RELEASE  -
|  1> #Run DFT-D3 single point of the dimer
|  2> ! wB97X-D3 def2-TZVP TIGHTSCF CHELPG PMODEL PAL8
|  3>
|  4> %base "6-89_DFT_AB"
|  5>
|  6> %scf
|  7> MaxIter 1000
|  8> end
|  9>
| 10> * xyz 0 1
| 11>   C                      6.664978             3.067073             1.226311
| 12>   O                      8.059023             2.989451             1.564592
| 13>   H                      8.160365             2.945944             2.478638
| 14>   H                      6.091341             2.145018             1.217380
| 15>   H                      6.072127             3.731938             1.852075
| 16>   H                      6.459341             3.559162             0.310594
| 17>   C                      6.703492             0.396091             5.305588
| 18>   O                      5.442587             0.726832             5.796296
| 19>   H                      4.738979             0.132312             5.362893
| 20>   H                      6.654158             0.514180             4.212192
| 21>   H                      7.419029             1.101467             5.651365
| 22>   H                      6.987095             -0.656286            5.527411
| 23> *
| 24>
| 25> #Run DFT-D3 single point of the molecule with dimer basis set
| 26> $new_job
| 27> %base "6-89_DFT_A"
| 28> ! wB97X-D3 def2-TZVP TIGHTSCF CHELPG PMODEL
| 29>
| 30> %scf
| 31> MaxIter 1000
| 32> end
| 33>
| 34> * xyz 0 1
| 35>   C                      6.664978             3.067073             1.226311
| 36>   O                      8.059023             2.989451             1.564592
| 37>   H                      8.160365             2.945944             2.478638
| 38>   H                      6.091341             2.145018             1.217380
| 39>   H                      6.072127             3.731938             1.852075
| 40>   H                      6.459341             3.559162             0.310594
| 41>   C                    : 6.703492             0.396091             5.305588
| 42>   O                    : 5.442587             0.726832             5.796296
| 43>   H                    : 4.738979             0.132312             5.362893
| 44>   H                    : 6.654158             0.514180             4.212192
| 45>   H                    : 7.419029             1.101467             5.651365
| 46>   H                    : 6.987095             -0.656286            5.527411
| 47> *
| 48>
| 49> #Run DFT-D3 single point of the particle with dimer basis set
| 50> $new_job
| 51> %base "6-89_DFT_B"
| 52> ! wB97X-D3 def2-TZVP TIGHTSCF CHELPG PMODEL
| 53>
| 54> %scf
| 55> MaxIter 1000
| 56> end
| 57>
| 58> * xyz 0 1
| 59>   C                    : 6.664978             3.067073             1.226311
| 60>   O                    : 8.059023             2.989451             1.564592
| 61>   H                    : 8.160365             2.945944             2.478638
| 62>   H                    : 6.091341             2.145018             1.217380
| 63>   H                    : 6.072127             3.731938             1.852075
| 64>   H                    : 6.459341             3.559162             0.310594
| 65>   C                      6.703492             0.396091             5.305588
| 66>   O                      5.442587             0.726832             5.796296
| 67>   H                      4.738979             0.132312             5.362893
| 68>   H                      6.654158             0.514180             4.212192
| 69>   H                      7.419029             1.101467             5.651365
| 70>   H                      6.987095             -0.656286            5.527411
| 71> *
| 72>
| 73>                          ****END OF INPUT****
 Total Charge           Charge          ....    0
 Multiplicity           Mult            ....    1
 Number of Electrons    NEL             ....   36
Dispersion correction           -0.001050320
FINAL SINGLE POINT ENERGY      -231.460140042079
Dispersion correction           -0.000278732
FINAL SINGLE POINT ENERGY      -115.727904215679

CARTESIAN COORDINATES (ANGSTROEM)
---------------------------------
  C      6.664978    3.067073    1.226311
  O      8.059023    2.989451    1.564592
  H      8.160365    2.945944    2.478638
  H      6.091341    2.145018    1.217380
  H      6.072127    3.731938    1.852075
  H      6.459341    3.559162    0.310594
  C      6.703492    0.396091    5.305588
  O      5.442587    0.726832    5.796296
  H      4.738979    0.132312    5.362893
  H      6.654158    0.514180    4.212192
  H      7.419029    1.101467    5.651365
  H      6.987095   -0.656286    5.527411

 Multiplicity           Mult            ....    1
 Number of Electrons    NEL             ....   18
 Basis Dimension        Dim             ....  172

ORBITAL ENERGIES
----------------

  NO   OCC          E(Eh)            E(eV)
   0   2.0000     -19.231611      -523.3188
   1   2.0000     -10.309689      -280.5409
   2   2.0000      -1.131114       -30.7792
   3   2.0000      -0.789519       -21.4839
   4   2.0000      -0.606145       -16.4941
   5   2.0000      -0.542393       -14.7593
   6   2.0000      -0.533310       -14.5121
   7   2.0000      -0.428544       -11.6613
   8   2.0000      -0.367233        -9.9929
   9   0.0000       0.081742         2.2243
  10   0.0000       0.110745         3.0135
  11   0.0000       0.147117         4.0033
  12   0.0000       0.175051         4.7634
  13   0.0000       0.183476         4.9926

MULLIKEN ATOMIC CHARGES
-----------------------
   0 C :    0.000606
   1 O :   -0.000100
   2 H :   -0.000388
   3 H :   -0.000204
   4 H :   -0.000069
   5 H :    0.000029
   6 C :   -0.157263
   7 O :   -0.478807
   8 H :    0.318913
   9 H :    0.098761
  10 H :    0.123074
  11 H :    0.095448
Sum of atomic charges:   -0.0000000

LOEWDIN ATOMIC CHARGES
----------------------
   0 C :   -0.000460
   1 O :   -0.000049
   2 H :   -0.000423
   3 H :   -0.000243
   4 H :   -0.000018
   5 H :   -0.000002
   6 C :   -0.403373
   7 O :   -0.090182
   8 H :    0.201903
   9 H :    0.095338
  10 H :    0.102046
  11 H :    0.095465

  Mayer bond orders larger than 0.1
B(  6-C ,  7-O ) :   1.0004 B(  6-C ,  9-H ) :   0.9860 B(  6-C , 10-H ) :   0.9699
B(  6-C , 11-H ) :   0.9718 B(  7-O ,  8-H ) :   0.8879

Dispersion correction           -0.000227307
FINAL SINGLE POINT ENERGY      -115.731539046821

DIPOLE MOMENT
-------------
                                X             Y             Z
Electronic contribution:     -1.46766       0.55051       0.83963
Nuclear contribution   :      1.52161      -1.02112      -1.29984
                        -----------------------------------------
Total Dipole Moment    :      0.05395      -0.47062      -0.46021
                        -----------------------------------------
Magnitude (a.u.)       :      0.66044
Magnitude (Debye)      :      1.67871

Rotational constants in cm-1:     4.178750     0.853269     0.820232
Rotational constants in MHz : 125275.788097 25580.362620 24589.937835

                             ****ORCA TERMINATED NORMALLY****
TOTAL RUN TIME: 0 days 0 hours 1 minutes 4 seconds 227 msec
