                         Program Version 4.1.2  - RELEASE  -
|  1> #Run DFT-D3 single point of the dimer
|  2> ! wB97X-D3 def2-TZVP TIGHTSCF CHELPG PMODEL PAL8
|  3>
|  4> %base "21-77_DFT_AB"
|  5>
|  6> %scf
|  7> MaxIter 1000
|  8> end
|  9>
| 10> * xyz 0 1
| 11>   C                      3.842016             6.695679             2.250202
| 12>   O                      2.873278             7.246164             1.343030
| 13>   H                      3.031708             6.919436             0.425400
| 14>   H                      3.817862             5.565453             2.173094
| 15>   H                      4.822762             6.953849             1.878522
| 16>   H                      3.663193             7.138407             3.241986
| 17>   C                      -1.804028            9.062981             -1.684498
| 18>   O                      -1.185827            8.137430             -0.790392
| 19>   H                      -0.857489            8.554327             0.021385
| 20>   H                      -1.514621            8.858486             -2.740619
| 21>   H                      -2.837264            8.982155             -1.610011
| 22>   H                      -1.602605            10.074410            -1.308795
| 23> *
| 24>
| 25> #Run DFT-D3 single point of the molecule with dimer basis set
| 26> $new_job
| 27> %base "21-77_DFT_A"
| 28> ! wB97X-D3 def2-TZVP TIGHTSCF CHELPG PMODEL
| 29>
| 30> %scf
| 31> MaxIter 1000
| 32> end
| 33>
| 34> * xyz 0 1
| 35>   C                      3.842016             6.695679             2.250202
| 36>   O                      2.873278             7.246164             1.343030
| 37>   H                      3.031708             6.919436             0.425400
| 38>   H                      3.817862             5.565453             2.173094
| 39>   H                      4.822762             6.953849             1.878522
| 40>   H                      3.663193             7.138407             3.241986
| 41>   C                    : -1.804028            9.062981             -1.684498
| 42>   O                    : -1.185827            8.137430             -0.790392
| 43>   H                    : -0.857489            8.554327             0.021385
| 44>   H                    : -1.514621            8.858486             -2.740619
| 45>   H                    : -2.837264            8.982155             -1.610011
| 46>   H                    : -1.602605            10.074410            -1.308795
| 47> *
| 48>
| 49> #Run DFT-D3 single point of the particle with dimer basis set
| 50> $new_job
| 51> %base "21-77_DFT_B"
| 52> ! wB97X-D3 def2-TZVP TIGHTSCF CHELPG PMODEL
| 53>
| 54> %scf
| 55> MaxIter 1000
| 56> end
| 57>
| 58> * xyz 0 1
| 59>   C                    : 3.842016             6.695679             2.250202
| 60>   O                    : 2.873278             7.246164             1.343030
| 61>   H                    : 3.031708             6.919436             0.425400
| 62>   H                    : 3.817862             5.565453             2.173094
| 63>   H                    : 4.822762             6.953849             1.878522
| 64>   H                    : 3.663193             7.138407             3.241986
| 65>   C                      -1.804028            9.062981             -1.684498
| 66>   O                      -1.185827            8.137430             -0.790392
| 67>   H                      -0.857489            8.554327             0.021385
| 68>   H                      -1.514621            8.858486             -2.740619
| 69>   H                      -2.837264            8.982155             -1.610011
| 70>   H                      -1.602605            10.074410            -1.308795
| 71> *
| 72>
| 73>                          ****END OF INPUT****
 Total Charge           Charge          ....    0
 Multiplicity           Mult            ....    1
 Number of Electrons    NEL             ....   36
Dispersion correction           -0.000630224
FINAL SINGLE POINT ENERGY      -231.462939416514
Dispersion correction           -0.000238932
FINAL SINGLE POINT ENERGY      -115.731999994664

CARTESIAN COORDINATES (ANGSTROEM)
---------------------------------
  C      3.842016    6.695679    2.250202
  O      2.873278    7.246164    1.343030
  H      3.031708    6.919436    0.425400
  H      3.817862    5.565453    2.173094
  H      4.822762    6.953849    1.878522
  H      3.663193    7.138407    3.241986
  C     -1.804028    9.062981   -1.684498
  O     -1.185827    8.137430   -0.790392
  H     -0.857489    8.554327    0.021385
  H     -1.514621    8.858486   -2.740619
  H     -2.837264    8.982155   -1.610011
  H     -1.602605   10.074410   -1.308795

 Multiplicity           Mult            ....    1
 Number of Electrons    NEL             ....   18
 Basis Dimension        Dim             ....  172

ORBITAL ENERGIES
----------------

  NO   OCC          E(Eh)            E(eV)
   0   2.0000     -19.225066      -523.1407
   1   2.0000     -10.311475      -280.5895
   2   2.0000      -1.125132       -30.6164
   3   2.0000      -0.799293       -21.7499
   4   2.0000      -0.608241       -16.5511
   5   2.0000      -0.537316       -14.6211
   6   2.0000      -0.533667       -14.5218
   7   2.0000      -0.426351       -11.6016
   8   2.0000      -0.370208       -10.0739
   9   0.0000       0.087175         2.3722
  10   0.0000       0.110865         3.0168
  11   0.0000       0.152409         4.1473
  12   0.0000       0.172181         4.6853
  13   0.0000       0.193531         5.2662

MULLIKEN ATOMIC CHARGES
-----------------------
   0 C :    0.000005
   1 O :   -0.000018
   2 H :   -0.000196
   3 H :   -0.000002
   4 H :   -0.000001
   5 H :    0.000001
   6 C :   -0.156178
   7 O :   -0.494998
   8 H :    0.319726
   9 H :    0.115812
  10 H :    0.115416
  11 H :    0.100432
Sum of atomic charges:    0.0000000

LOEWDIN ATOMIC CHARGES
----------------------
   0 C :   -0.000002
   1 O :   -0.000041
   2 H :   -0.000125
   3 H :   -0.000000
   4 H :   -0.000000
   5 H :   -0.000000
   6 C :   -0.365634
   7 O :   -0.099687
   8 H :    0.171524
   9 H :    0.109749
  10 H :    0.085080
  11 H :    0.099136

  Mayer bond orders larger than 0.1
B(  6-C ,  7-O ) :   0.9973 B(  6-C ,  9-H ) :   0.9726 B(  6-C , 10-H ) :   0.9746
B(  6-C , 11-H ) :   0.9907 B(  7-O ,  8-H ) :   0.8944

Dispersion correction           -0.000245119
FINAL SINGLE POINT ENERGY      -115.729928341521

DIPOLE MOMENT
-------------
                                X             Y             Z
Electronic contribution:      0.75240      -1.23692       0.93928
Nuclear contribution   :     -0.82254       1.90566      -0.76715
                        -----------------------------------------
Total Dipole Moment    :     -0.07014       0.66874       0.17213
                        -----------------------------------------
Magnitude (a.u.)       :      0.69409
Magnitude (Debye)      :      1.76423

Rotational constants in cm-1:     4.353536     0.825151     0.784574
Rotational constants in MHz : 130515.719426 24737.410517 23520.933872

                             ****ORCA TERMINATED NORMALLY****
TOTAL RUN TIME: 0 days 0 hours 1 minutes 1 seconds 171 msec
