                         Program Version 4.1.2  - RELEASE  -
|  1> #Run DFT-D3 single point of the dimer
|  2> ! wB97X-D3 def2-TZVP TIGHTSCF CHELPG PMODEL PAL8
|  3>
|  4> %base "2-80_DFT_AB"
|  5>
|  6> %scf
|  7> MaxIter 1000
|  8> end
|  9>
| 10> * xyz 0 1
| 11>   C                      -6.296488            0.198913             2.792889
| 12>   O                      -6.461516            -0.521665            1.555688
| 13>   H                      -5.961074            -1.353102            1.626890
| 14>   H                      -6.761771            -0.381322            3.663012
| 15>   H                      -5.261582            0.262228             3.149411
| 16>   H                      -6.779186            1.233509             2.736756
| 17>   C                      -8.801151            -5.176903            1.326026
| 18>   O                      -7.588166            -4.639447            1.941820
| 19>   H                      -7.759714            -4.025085            2.664216
| 20>   H                      -9.543491            -4.380215            1.067353
| 21>   H                      -8.560463            -5.647646            0.312321
| 22>   H                      -9.253285            -5.901866            1.946932
| 23> *
| 24>
| 25> #Run DFT-D3 single point of the molecule with dimer basis set
| 26> $new_job
| 27> %base "2-80_DFT_A"
| 28> ! wB97X-D3 def2-TZVP TIGHTSCF CHELPG PMODEL
| 29>
| 30> %scf
| 31> MaxIter 1000
| 32> end
| 33>
| 34> * xyz 0 1
| 35>   C                      -6.296488            0.198913             2.792889
| 36>   O                      -6.461516            -0.521665            1.555688
| 37>   H                      -5.961074            -1.353102            1.626890
| 38>   H                      -6.761771            -0.381322            3.663012
| 39>   H                      -5.261582            0.262228             3.149411
| 40>   H                      -6.779186            1.233509             2.736756
| 41>   C                    : -8.801151            -5.176903            1.326026
| 42>   O                    : -7.588166            -4.639447            1.941820
| 43>   H                    : -7.759714            -4.025085            2.664216
| 44>   H                    : -9.543491            -4.380215            1.067353
| 45>   H                    : -8.560463            -5.647646            0.312321
| 46>   H                    : -9.253285            -5.901866            1.946932
| 47> *
| 48>
| 49> #Run DFT-D3 single point of the particle with dimer basis set
| 50> $new_job
| 51> %base "2-80_DFT_B"
| 52> ! wB97X-D3 def2-TZVP TIGHTSCF CHELPG PMODEL
| 53>
| 54> %scf
| 55> MaxIter 1000
| 56> end
| 57>
| 58> * xyz 0 1
| 59>   C                    : -6.296488            0.198913             2.792889
| 60>   O                    : -6.461516            -0.521665            1.555688
| 61>   H                    : -5.961074            -1.353102            1.626890
| 62>   H                    : -6.761771            -0.381322            3.663012
| 63>   H                    : -5.261582            0.262228             3.149411
| 64>   H                    : -6.779186            1.233509             2.736756
| 65>   C                      -8.801151            -5.176903            1.326026
| 66>   O                      -7.588166            -4.639447            1.941820
| 67>   H                      -7.759714            -4.025085            2.664216
| 68>   H                      -9.543491            -4.380215            1.067353
| 69>   H                      -8.560463            -5.647646            0.312321
| 70>   H                      -9.253285            -5.901866            1.946932
| 71> *
| 72>
| 73>                          ****END OF INPUT****
 Total Charge           Charge          ....    0
 Multiplicity           Mult            ....    1
 Number of Electrons    NEL             ....   36
Dispersion correction           -0.000945876
FINAL SINGLE POINT ENERGY      -231.463150804477
Dispersion correction           -0.000270371
FINAL SINGLE POINT ENERGY      -115.730888480761

CARTESIAN COORDINATES (ANGSTROEM)
---------------------------------
  C     -6.296488    0.198913    2.792889
  O     -6.461516   -0.521665    1.555688
  H     -5.961074   -1.353102    1.626890
  H     -6.761771   -0.381322    3.663012
  H     -5.261582    0.262228    3.149411
  H     -6.779186    1.233509    2.736756
  C     -8.801151   -5.176903    1.326026
  O     -7.588166   -4.639447    1.941820
  H     -7.759714   -4.025085    2.664216
  H     -9.543491   -4.380215    1.067353
  H     -8.560463   -5.647646    0.312321
  H     -9.253285   -5.901866    1.946932

 Multiplicity           Mult            ....    1
 Number of Electrons    NEL             ....   18
 Basis Dimension        Dim             ....  172

ORBITAL ENERGIES
----------------

  NO   OCC          E(Eh)            E(eV)
   0   2.0000     -19.228753      -523.2410
   1   2.0000     -10.322244      -280.8825
   2   2.0000      -1.117536       -30.4097
   3   2.0000      -0.797333       -21.6965
   4   2.0000      -0.602109       -16.3842
   5   2.0000      -0.542438       -14.7605
   6   2.0000      -0.514952       -14.0126
   7   2.0000      -0.425289       -11.5727
   8   2.0000      -0.376826       -10.2540
   9   0.0000       0.081824         2.2265
  10   0.0000       0.119523         3.2524
  11   0.0000       0.145444         3.9577
  12   0.0000       0.175414         4.7733
  13   0.0000       0.190634         5.1874

MULLIKEN ATOMIC CHARGES
-----------------------
   0 C :    0.000270
   1 O :    0.000044
   2 H :   -0.002165
   3 H :   -0.000123
   4 H :   -0.000011
   5 H :    0.000005
   6 C :   -0.168675
   7 O :   -0.494822
   8 H :    0.317778
   9 H :    0.108052
  10 H :    0.122045
  11 H :    0.117601
Sum of atomic charges:   -0.0000000

LOEWDIN ATOMIC CHARGES
----------------------
   0 C :   -0.000063
   1 O :   -0.000139
   2 H :   -0.001414
   3 H :   -0.000050
   4 H :   -0.000000
   5 H :   -0.000000
   6 C :   -0.353591
   7 O :   -0.116191
   8 H :    0.164690
   9 H :    0.100602
  10 H :    0.119371
  11 H :    0.086786

  Mayer bond orders larger than 0.1
B(  6-C ,  7-O ) :   0.9890 B(  6-C ,  9-H ) :   0.9742 B(  6-C , 10-H ) :   0.9708
B(  6-C , 11-H ) :   0.9721 B(  7-O ,  8-H ) :   0.8939

Dispersion correction           -0.000286442
FINAL SINGLE POINT ENERGY      -115.731075845194

DIPOLE MOMENT
-------------
                                X             Y             Z
Electronic contribution:      1.54091       0.54419       0.78444
Nuclear contribution   :     -2.19204      -0.38606      -0.58643
                        -----------------------------------------
Total Dipole Moment    :     -0.65113       0.15813       0.19801
                        -----------------------------------------
Magnitude (a.u.)       :      0.69870
Magnitude (Debye)      :      1.77596

Rotational constants in cm-1:     4.313445     0.773016     0.749433
Rotational constants in MHz : 129313.822943 23174.426522 22467.440328

                             ****ORCA TERMINATED NORMALLY****
TOTAL RUN TIME: 0 days 0 hours 6 minutes 0 seconds 82 msec
