                         Program Version 4.1.2  - RELEASE  -
|  1> #Run DFT-D3 single point of the dimer
|  2> ! wB97X-D3 def2-TZVP TIGHTSCF CHELPG PMODEL PAL8
|  3>
|  4> %base "8-29_DFT_AB"
|  5>
|  6> %scf
|  7> MaxIter 1000
|  8> end
|  9>
| 10> * xyz 0 1
| 11>   C                      1.242681             -1.490844            -1.242399
| 12>   O                      2.017750             -2.223303            -0.392427
| 13>   H                      2.854270             -2.385998            -0.915143
| 14>   H                      0.235646             -1.382705            -0.890573
| 15>   H                      1.563453             -0.460555            -1.422829
| 16>   H                      1.015853             -1.921014            -2.215583
| 17>   C                      1.869562             -4.630558            -4.013611
| 18>   O                      1.998488             -3.268372            -4.385028
| 19>   H                      1.149634             -2.862455            -4.349117
| 20>   H                      2.789057             -5.156412            -4.388063
| 21>   H                      1.701036             -4.752790            -2.961769
| 22>   H                      1.020098             -5.155330            -4.497702
| 23> *
| 24>
| 25> #Run DFT-D3 single point of the molecule with dimer basis set
| 26> $new_job
| 27> %base "8-29_DFT_A"
| 28> ! wB97X-D3 def2-TZVP TIGHTSCF CHELPG PMODEL
| 29>
| 30> %scf
| 31> MaxIter 1000
| 32> end
| 33>
| 34> * xyz 0 1
| 35>   C                      1.242681             -1.490844            -1.242399
| 36>   O                      2.017750             -2.223303            -0.392427
| 37>   H                      2.854270             -2.385998            -0.915143
| 38>   H                      0.235646             -1.382705            -0.890573
| 39>   H                      1.563453             -0.460555            -1.422829
| 40>   H                      1.015853             -1.921014            -2.215583
| 41>   C                    : 1.869562             -4.630558            -4.013611
| 42>   O                    : 1.998488             -3.268372            -4.385028
| 43>   H                    : 1.149634             -2.862455            -4.349117
| 44>   H                    : 2.789057             -5.156412            -4.388063
| 45>   H                    : 1.701036             -4.752790            -2.961769
| 46>   H                    : 1.020098             -5.155330            -4.497702
| 47> *
| 48>
| 49> #Run DFT-D3 single point of the particle with dimer basis set
| 50> $new_job
| 51> %base "8-29_DFT_B"
| 52> ! wB97X-D3 def2-TZVP TIGHTSCF CHELPG PMODEL
| 53>
| 54> %scf
| 55> MaxIter 1000
| 56> end
| 57>
| 58> * xyz 0 1
| 59>   C                    : 1.242681             -1.490844            -1.242399
| 60>   O                    : 2.017750             -2.223303            -0.392427
| 61>   H                    : 2.854270             -2.385998            -0.915143
| 62>   H                    : 0.235646             -1.382705            -0.890573
| 63>   H                    : 1.563453             -0.460555            -1.422829
| 64>   H                    : 1.015853             -1.921014            -2.215583
| 65>   C                      1.869562             -4.630558            -4.013611
| 66>   O                      1.998488             -3.268372            -4.385028
| 67>   H                      1.149634             -2.862455            -4.349117
| 68>   H                      2.789057             -5.156412            -4.388063
| 69>   H                      1.701036             -4.752790            -2.961769
| 70>   H                      1.020098             -5.155330            -4.497702
| 71> *
| 72>
| 73>                          ****END OF INPUT****
 Total Charge           Charge          ....    0
 Multiplicity           Mult            ....    1
 Number of Electrons    NEL             ....   36
Dispersion correction           -0.001740814
FINAL SINGLE POINT ENERGY      -231.467197452375
Dispersion correction           -0.000235095
FINAL SINGLE POINT ENERGY      -115.729897081215

CARTESIAN COORDINATES (ANGSTROEM)
---------------------------------
  C      1.242681   -1.490844   -1.242399
  O      2.017750   -2.223303   -0.392427
  H      2.854270   -2.385998   -0.915143
  H      0.235646   -1.382705   -0.890573
  H      1.563453   -0.460555   -1.422829
  H      1.015853   -1.921014   -2.215583
  C      1.869562   -4.630558   -4.013611
  O      1.998488   -3.268372   -4.385028
  H      1.149634   -2.862455   -4.349117
  H      2.789057   -5.156412   -4.388063
  H      1.701036   -4.752790   -2.961769
  H      1.020098   -5.155330   -4.497702

 Multiplicity           Mult            ....    1
 Number of Electrons    NEL             ....   18
 Basis Dimension        Dim             ....  172

ORBITAL ENERGIES
----------------

  NO   OCC          E(Eh)            E(eV)
   0   2.0000     -19.230624      -523.2919
   1   2.0000     -10.316345      -280.7220
   2   2.0000      -1.139528       -31.0081
   3   2.0000      -0.796628       -21.6773
   4   2.0000      -0.616631       -16.7794
   5   2.0000      -0.543664       -14.7938
   6   2.0000      -0.519388       -14.1333
   7   2.0000      -0.435422       -11.8484
   8   2.0000      -0.376317       -10.2401
   9   0.0000       0.084768         2.3066
  10   0.0000       0.130901         3.5620
  11   0.0000       0.148128         4.0308
  12   0.0000       0.169794         4.6203
  13   0.0000       0.190055         5.1717

MULLIKEN ATOMIC CHARGES
-----------------------
   0 C :    0.013689
   1 O :   -0.000037
   2 H :   -0.000628
   3 H :   -0.000656
   4 H :   -0.000590
   5 H :   -0.024587
   6 C :   -0.172541
   7 O :   -0.462265
   8 H :    0.312543
   9 H :    0.122862
  10 H :    0.109084
  11 H :    0.103126
Sum of atomic charges:    0.0000000

LOEWDIN ATOMIC CHARGES
----------------------
   0 C :   -0.003707
   1 O :   -0.000095
   2 H :   -0.000429
   3 H :   -0.000043
   4 H :   -0.000075
   5 H :   -0.008349
   6 C :   -0.384394
   7 O :   -0.061056
   8 H :    0.155534
   9 H :    0.116859
  10 H :    0.089189
  11 H :    0.096565

  Mayer bond orders larger than 0.1
B(  6-C ,  7-O ) :   1.0038 B(  6-C ,  9-H ) :   0.9752 B(  6-C , 10-H ) :   0.9687
B(  6-C , 11-H ) :   0.9780 B(  7-O ,  8-H ) :   0.9018

Dispersion correction           -0.000247286
FINAL SINGLE POINT ENERGY      -115.735468873760

DIPOLE MOMENT
-------------
                                X             Y             Z
Electronic contribution:      0.30942       1.76122      -0.42369
Nuclear contribution   :     -0.91145      -2.05445       0.57664
                        -----------------------------------------
Total Dipole Moment    :     -0.60202      -0.29323       0.15295
                        -----------------------------------------
Magnitude (a.u.)       :      0.68688
Magnitude (Debye)      :      1.74592

Rotational constants in cm-1:     4.293421     0.827103     0.794324
Rotational constants in MHz : 128713.518248 24795.928203 23813.240094

                             ****ORCA TERMINATED NORMALLY****
TOTAL RUN TIME: 0 days 0 hours 0 minutes 45 seconds 406 msec
