                         Program Version 4.1.2  - RELEASE  -
|  1> #Run DFT-D3 single point of the dimer
|  2> ! wB97X-D3 def2-TZVP TIGHTSCF  CHELPG PAL8
|  3>
|  4> %base "28_charges"
|  5>
|  6> %scf
|  7> MaxIter 1000
|  8> end
|  9> %output
| 10>   Print[ P_Mayer ] 1
| 11>   Print[ P_NatPop ] 1
| 12>   Print[ P_Hirshfeld ] 1
| 13>   Print[ P_Mulliken ] 1
| 14>   Print [ P_Loewdin ] 1
| 15> end
| 16>
| 17> * xyz 0 1
| 18>   C                      -8.533866            2.070007             11.065588
| 19>   O                      -9.661639            1.362844             11.339304
| 20>   H                      -9.495825            0.411178             11.181756
| 21>   H                      -7.777681            1.852522             11.783129
| 22>   H                      -8.073300            1.779489             10.056818
| 23>   H                      -8.768287            3.144716             11.140543
| 24> *
| 25>
| 26>                          ****END OF INPUT****

CARTESIAN COORDINATES (ANGSTROEM)
---------------------------------
  C     -8.533866    2.070007   11.065588
  O     -9.661639    1.362844   11.339304
  H     -9.495825    0.411178   11.181756
  H     -7.777681    1.852522   11.783129
  H     -8.073300    1.779489   10.056818
  H     -8.768287    3.144716   11.140543

 Total Charge           Charge          ....    0
 Multiplicity           Mult            ....    1
 Number of Electrons    NEL             ....   18
 Basis Dimension        Dim             ....   86

ORBITAL ENERGIES
----------------

  NO   OCC          E(Eh)            E(eV)
   0   2.0000     -19.230120      -523.2782
   1   2.0000     -10.311146      -280.5806
   2   2.0000      -1.150467       -31.3058
   3   2.0000      -0.789558       -21.4850
   4   2.0000      -0.620395       -16.8818
   5   2.0000      -0.542746       -14.7689
   6   2.0000      -0.534749       -14.5513
   7   2.0000      -0.429898       -11.6981
   8   2.0000      -0.366476        -9.9723
   9   0.0000       0.111754         3.0410
  10   0.0000       0.158352         4.3090
  11   0.0000       0.198845         5.4109
  12   0.0000       0.207527         5.6471
  13   0.0000       0.231685         6.3045

MULLIKEN ATOMIC CHARGES
-----------------------
   0 C :   -0.154123
   1 O :   -0.465041
   2 H :    0.318201
   3 H :    0.098914
   4 H :    0.084623
   5 H :    0.117426
Sum of atomic charges:   -0.0000000

LOEWDIN ATOMIC CHARGES
----------------------
   0 C :   -0.432374
   1 O :   -0.045777
   2 H :    0.184198
   3 H :    0.084418
   4 H :    0.098154
   5 H :    0.111381

  Mayer bond orders larger than 0.1
B(  0-C ,  1-O ) :   1.0061 B(  0-C ,  3-H ) :   0.9775 B(  0-C ,  4-H ) :   0.9785
B(  0-C ,  5-H ) :   0.9712 B(  1-O ,  2-H ) :   0.8918

Dispersion correction           -0.000218425
FINAL SINGLE POINT ENERGY      -115.731857137479

DIPOLE MOMENT
-------------
                                X             Y             Z
Electronic contribution:     -1.61498      -0.77242       0.42522
Nuclear contribution   :      2.12154       0.42466      -0.59291
                        -----------------------------------------
Total Dipole Moment    :      0.50656      -0.34776      -0.16769
                        -----------------------------------------
Magnitude (a.u.)       :      0.63692
Magnitude (Debye)      :      1.61892

Rotational constants in cm-1:     4.186548     0.891187     0.845309
Rotational constants in MHz : 125509.539211 26717.128752 25341.717099

                             ****ORCA TERMINATED NORMALLY****
TOTAL RUN TIME: 0 days 0 hours 0 minutes 41 seconds 862 msec
