                         Program Version 4.1.2  - RELEASE  -
|  1> #Run DFT-D3 single point of the dimer
|  2> ! wB97X-D3 def2-TZVP TIGHTSCF CHELPG PMODEL PAL8
|  3>
|  4> %base "22-174_DFT_AB"
|  5>
|  6> %scf
|  7> MaxIter 1000
|  8> end
|  9>
| 10> * xyz 0 1
| 11>   C                      -2.949935            9.302881             7.250377
| 12>   O                      -3.854951            8.679741             8.209806
| 13>   H                      -3.999120            7.738122             7.973193
| 14>   H                      -1.951529            9.062261             7.474002
| 15>   H                      -3.203255            8.897659             6.218874
| 16>   H                      -2.932842            10.382185            7.384572
| 17>   C                      -4.937111            10.841136            10.821572
| 18>   O                      -3.642526            10.256289            10.817980
| 19>   H                      -3.556796            9.736982             10.006863
| 20>   H                      -5.090998            11.532797            10.005820
| 21>   H                      -5.722980            10.048776            10.746439
| 22>   H                      -5.014865            11.348699            11.793803
| 23> *
| 24>
| 25> #Run DFT-D3 single point of the molecule with dimer basis set
| 26> $new_job
| 27> %base "22-174_DFT_A"
| 28> ! wB97X-D3 def2-TZVP TIGHTSCF CHELPG PMODEL
| 29>
| 30> %scf
| 31> MaxIter 1000
| 32> end
| 33>
| 34> * xyz 0 1
| 35>   C                      -2.949935            9.302881             7.250377
| 36>   O                      -3.854951            8.679741             8.209806
| 37>   H                      -3.999120            7.738122             7.973193
| 38>   H                      -1.951529            9.062261             7.474002
| 39>   H                      -3.203255            8.897659             6.218874
| 40>   H                      -2.932842            10.382185            7.384572
| 41>   C                    : -4.937111            10.841136            10.821572
| 42>   O                    : -3.642526            10.256289            10.817980
| 43>   H                    : -3.556796            9.736982             10.006863
| 44>   H                    : -5.090998            11.532797            10.005820
| 45>   H                    : -5.722980            10.048776            10.746439
| 46>   H                    : -5.014865            11.348699            11.793803
| 47> *
| 48>
| 49> #Run DFT-D3 single point of the particle with dimer basis set
| 50> $new_job
| 51> %base "22-174_DFT_B"
| 52> ! wB97X-D3 def2-TZVP TIGHTSCF CHELPG PMODEL
| 53>
| 54> %scf
| 55> MaxIter 1000
| 56> end
| 57>
| 58> * xyz 0 1
| 59>   C                    : -2.949935            9.302881             7.250377
| 60>   O                    : -3.854951            8.679741             8.209806
| 61>   H                    : -3.999120            7.738122             7.973193
| 62>   H                    : -1.951529            9.062261             7.474002
| 63>   H                    : -3.203255            8.897659             6.218874
| 64>   H                    : -2.932842            10.382185            7.384572
| 65>   C                      -4.937111            10.841136            10.821572
| 66>   O                      -3.642526            10.256289            10.817980
| 67>   H                      -3.556796            9.736982             10.006863
| 68>   H                      -5.090998            11.532797            10.005820
| 69>   H                      -5.722980            10.048776            10.746439
| 70>   H                      -5.014865            11.348699            11.793803
| 71> *
| 72>
| 73>                          ****END OF INPUT****
 Total Charge           Charge          ....    0
 Multiplicity           Mult            ....    1
 Number of Electrons    NEL             ....   36
Dispersion correction           -0.001814181
FINAL SINGLE POINT ENERGY      -231.474501670631
Dispersion correction           -0.000255920
FINAL SINGLE POINT ENERGY      -115.729097349970

CARTESIAN COORDINATES (ANGSTROEM)
---------------------------------
  C     -2.949935    9.302881    7.250377
  O     -3.854951    8.679741    8.209806
  H     -3.999120    7.738122    7.973193
  H     -1.951529    9.062261    7.474002
  H     -3.203255    8.897659    6.218874
  H     -2.932842   10.382185    7.384572
  C     -4.937111   10.841136   10.821572
  O     -3.642526   10.256289   10.817980
  H     -3.556796    9.736982   10.006863
  H     -5.090998   11.532797   10.005820
  H     -5.722980   10.048776   10.746439
  H     -5.014865   11.348699   11.793803

 Multiplicity           Mult            ....    1
 Number of Electrons    NEL             ....   18
 Basis Dimension        Dim             ....  172

ORBITAL ENERGIES
----------------

  NO   OCC          E(Eh)            E(eV)
   0   2.0000     -19.230676      -523.2933
   1   2.0000     -10.315532      -280.6999
   2   2.0000      -1.133298       -30.8386
   3   2.0000      -0.793025       -21.5793
   4   2.0000      -0.610608       -16.6155
   5   2.0000      -0.539759       -14.6876
   6   2.0000      -0.522870       -14.2280
   7   2.0000      -0.437182       -11.8963
   8   2.0000      -0.373535       -10.1644
   9   0.0000       0.068473         1.8632
  10   0.0000       0.133039         3.6202
  11   0.0000       0.151745         4.1292
  12   0.0000       0.158028         4.3002
  13   0.0000       0.189882         5.1669

MULLIKEN ATOMIC CHARGES
-----------------------
   0 C :   -0.003943
   1 O :   -0.002278
   2 H :   -0.000211
   3 H :    0.000518
   4 H :   -0.000125
   5 H :   -0.000731
   6 C :   -0.160075
   7 O :   -0.473504
   8 H :    0.311866
   9 H :    0.106057
  10 H :    0.097928
  11 H :    0.124498
Sum of atomic charges:   -0.0000000

LOEWDIN ATOMIC CHARGES
----------------------
   0 C :   -0.005185
   1 O :   -0.012738
   2 H :   -0.000633
   3 H :   -0.000208
   4 H :   -0.000110
   5 H :   -0.000975
   6 C :   -0.380248
   7 O :   -0.077136
   8 H :    0.175645
   9 H :    0.090823
  10 H :    0.098186
  11 H :    0.112579

  Mayer bond orders larger than 0.1
B(  6-C ,  7-O ) :   0.9869 B(  6-C ,  9-H ) :   0.9689 B(  6-C , 10-H ) :   0.9794
B(  6-C , 11-H ) :   0.9757 B(  7-O ,  8-H ) :   0.9093

Dispersion correction           -0.000237779
FINAL SINGLE POINT ENERGY      -115.737008687470

DIPOLE MOMENT
-------------
                                X             Y             Z
Electronic contribution:      1.66227      -0.60410       0.09631
Nuclear contribution   :     -2.11880       0.52000      -0.59440
                        -----------------------------------------
Total Dipole Moment    :     -0.45653      -0.08409      -0.49810
                        -----------------------------------------
Magnitude (a.u.)       :      0.68088
Magnitude (Debye)      :      1.73066

Rotational constants in cm-1:     4.182903     0.831473     0.797779
Rotational constants in MHz : 125400.287258 24926.933534 23916.825574

                             ****ORCA TERMINATED NORMALLY****
TOTAL RUN TIME: 0 days 0 hours 1 minutes 7 seconds 182 msec
