                         Program Version 4.1.2  - RELEASE  -
|  1> #Run DFT-D3 single point of the dimer
|  2> ! wB97X-D3 def2-TZVP TIGHTSCF CHELPG PMODEL PAL8
|  3>
|  4> %base "9-93_DFT_AB"
|  5>
|  6> %scf
|  7> MaxIter 1000
|  8> end
|  9>
| 10> * xyz 0 1
| 11>   C                      -2.747217            -1.439285            7.215734
| 12>   O                      -3.661565            -2.257749            7.941439
| 13>   H                      -4.087411            -2.914877            7.304557
| 14>   H                      -1.744539            -1.863552            7.165893
| 15>   H                      -3.187766            -1.140830            6.244377
| 16>   H                      -2.642980            -0.476722            7.720025
| 17>   C                      -5.822313            0.855547             3.318697
| 18>   O                      -5.400111            0.443276             4.555475
| 19>   H                      -6.043504            -0.212960            4.935816
| 20>   H                      -5.987072            0.054597             2.640367
| 21>   H                      -6.826729            1.497216             3.257010
| 22>   H                      -5.089060            1.332691             2.752819
| 23> *
| 24>
| 25> #Run DFT-D3 single point of the molecule with dimer basis set
| 26> $new_job
| 27> %base "9-93_DFT_A"
| 28> ! wB97X-D3 def2-TZVP TIGHTSCF CHELPG PMODEL
| 29>
| 30> %scf
| 31> MaxIter 1000
| 32> end
| 33>
| 34> * xyz 0 1
| 35>   C                      -2.747217            -1.439285            7.215734
| 36>   O                      -3.661565            -2.257749            7.941439
| 37>   H                      -4.087411            -2.914877            7.304557
| 38>   H                      -1.744539            -1.863552            7.165893
| 39>   H                      -3.187766            -1.140830            6.244377
| 40>   H                      -2.642980            -0.476722            7.720025
| 41>   C                    : -5.822313            0.855547             3.318697
| 42>   O                    : -5.400111            0.443276             4.555475
| 43>   H                    : -6.043504            -0.212960            4.935816
| 44>   H                    : -5.987072            0.054597             2.640367
| 45>   H                    : -6.826729            1.497216             3.257010
| 46>   H                    : -5.089060            1.332691             2.752819
| 47> *
| 48>
| 49> #Run DFT-D3 single point of the particle with dimer basis set
| 50> $new_job
| 51> %base "9-93_DFT_B"
| 52> ! wB97X-D3 def2-TZVP TIGHTSCF CHELPG PMODEL
| 53>
| 54> %scf
| 55> MaxIter 1000
| 56> end
| 57>
| 58> * xyz 0 1
| 59>   C                    : -2.747217            -1.439285            7.215734
| 60>   O                    : -3.661565            -2.257749            7.941439
| 61>   H                    : -4.087411            -2.914877            7.304557
| 62>   H                    : -1.744539            -1.863552            7.165893
| 63>   H                    : -3.187766            -1.140830            6.244377
| 64>   H                    : -2.642980            -0.476722            7.720025
| 65>   C                      -5.822313            0.855547             3.318697
| 66>   O                      -5.400111            0.443276             4.555475
| 67>   H                      -6.043504            -0.212960            4.935816
| 68>   H                      -5.987072            0.054597             2.640367
| 69>   H                      -6.826729            1.497216             3.257010
| 70>   H                      -5.089060            1.332691             2.752819
| 71> *
| 72>
| 73>                          ****END OF INPUT****
 Total Charge           Charge          ....    0
 Multiplicity           Mult            ....    1
 Number of Electrons    NEL             ....   36
Dispersion correction           -0.001020773
FINAL SINGLE POINT ENERGY      -231.456412743966
Dispersion correction           -0.000258130
FINAL SINGLE POINT ENERGY      -115.732349476633

CARTESIAN COORDINATES (ANGSTROEM)
---------------------------------
  C     -2.747217   -1.439285    7.215734
  O     -3.661565   -2.257749    7.941439
  H     -4.087411   -2.914877    7.304557
  H     -1.744539   -1.863552    7.165893
  H     -3.187766   -1.140830    6.244377
  H     -2.642980   -0.476722    7.720025
  C     -5.822313    0.855547    3.318697
  O     -5.400111    0.443276    4.555475
  H     -6.043504   -0.212960    4.935816
  H     -5.987072    0.054597    2.640367
  H     -6.826729    1.497216    3.257010
  H     -5.089060    1.332691    2.752819

 Multiplicity           Mult            ....    1
 Number of Electrons    NEL             ....   18
 Basis Dimension        Dim             ....  172

ORBITAL ENERGIES
----------------

  NO   OCC          E(Eh)            E(eV)
   0   2.0000     -19.239758      -523.5404
   1   2.0000     -10.310068      -280.5512
   2   2.0000      -1.146403       -31.1952
   3   2.0000      -0.798260       -21.7218
   4   2.0000      -0.620441       -16.8831
   5   2.0000      -0.543481       -14.7889
   6   2.0000      -0.530344       -14.4314
   7   2.0000      -0.426923       -11.6172
   8   2.0000      -0.372193       -10.1279
   9   0.0000       0.089109         2.4248
  10   0.0000       0.117417         3.1951
  11   0.0000       0.147478         4.0131
  12   0.0000       0.168838         4.5943
  13   0.0000       0.200349         5.4518

MULLIKEN ATOMIC CHARGES
-----------------------
   0 C :    0.002299
   1 O :   -0.000028
   2 H :   -0.000067
   3 H :   -0.000100
   4 H :   -0.006142
   5 H :   -0.000169
   6 C :   -0.163842
   7 O :   -0.459530
   8 H :    0.325346
   9 H :    0.098433
  10 H :    0.080988
  11 H :    0.122810
Sum of atomic charges:   -0.0000000

LOEWDIN ATOMIC CHARGES
----------------------
   0 C :   -0.000746
   1 O :   -0.000013
   2 H :   -0.000027
   3 H :   -0.000005
   4 H :   -0.003192
   5 H :   -0.000040
   6 C :   -0.433017
   7 O :   -0.048771
   8 H :    0.196473
   9 H :    0.087476
  10 H :    0.104362
  11 H :    0.097499

  Mayer bond orders larger than 0.1
B(  6-C ,  7-O ) :   1.0186 B(  6-C ,  9-H ) :   0.9781 B(  6-C , 10-H ) :   0.9679
B(  6-C , 11-H ) :   0.9725 B(  7-O ,  8-H ) :   0.8853

Dispersion correction           -0.000261775
FINAL SINGLE POINT ENERGY      -115.723033994837

DIPOLE MOMENT
-------------
                                X             Y             Z
Electronic contribution:      0.81968      -0.46597       1.80631
Nuclear contribution   :     -1.32659       0.15418      -2.05319
                        -----------------------------------------
Total Dipole Moment    :     -0.50692      -0.31178      -0.24689
                        -----------------------------------------
Magnitude (a.u.)       :      0.64430
Magnitude (Debye)      :      1.63769

Rotational constants in cm-1:     4.444410     0.847884     0.821958
Rotational constants in MHz : 133240.058353 25418.909671 24641.671656

                             ****ORCA TERMINATED NORMALLY****
TOTAL RUN TIME: 0 days 0 hours 0 minutes 34 seconds 852 msec
