                         Program Version 4.1.2  - RELEASE  -
|  1> #Run DFT-D3 single point of the dimer
|  2> ! wB97X-D3 def2-TZVP TIGHTSCF CHELPG PMODEL PAL8
|  3>
|  4> %base "11-175_DFT_AB"
|  5>
|  6> %scf
|  7> MaxIter 1000
|  8> end
|  9>
| 10> * xyz 0 1
| 11>   C                      8.334044             -2.800744            8.258865
| 12>   O                      8.343442             -2.679756            9.679812
| 13>   H                      8.080518             -1.796854            10.035325
| 14>   H                      7.591973             -2.092943            7.806772
| 15>   H                      9.292589             -2.628121            7.805009
| 16>   H                      8.133133             -3.810071            7.890170
| 17>   C                      5.163529             0.054819             7.831404
| 18>   O                      5.767077             -0.570111            9.004683
| 19>   H                      6.618594             -0.206122            9.277932
| 20>   H                      5.208315             1.153949             7.942213
| 21>   H                      5.753755             -0.101697            6.837830
| 22>   H                      4.126756             -0.254294            7.606772
| 23> *
| 24>
| 25> #Run DFT-D3 single point of the molecule with dimer basis set
| 26> $new_job
| 27> %base "11-175_DFT_A"
| 28> ! wB97X-D3 def2-TZVP TIGHTSCF CHELPG PMODEL
| 29>
| 30> %scf
| 31> MaxIter 1000
| 32> end
| 33>
| 34> * xyz 0 1
| 35>   C                      8.334044             -2.800744            8.258865
| 36>   O                      8.343442             -2.679756            9.679812
| 37>   H                      8.080518             -1.796854            10.035325
| 38>   H                      7.591973             -2.092943            7.806772
| 39>   H                      9.292589             -2.628121            7.805009
| 40>   H                      8.133133             -3.810071            7.890170
| 41>   C                    : 5.163529             0.054819             7.831404
| 42>   O                    : 5.767077             -0.570111            9.004683
| 43>   H                    : 6.618594             -0.206122            9.277932
| 44>   H                    : 5.208315             1.153949             7.942213
| 45>   H                    : 5.753755             -0.101697            6.837830
| 46>   H                    : 4.126756             -0.254294            7.606772
| 47> *
| 48>
| 49> #Run DFT-D3 single point of the particle with dimer basis set
| 50> $new_job
| 51> %base "11-175_DFT_B"
| 52> ! wB97X-D3 def2-TZVP TIGHTSCF CHELPG PMODEL
| 53>
| 54> %scf
| 55> MaxIter 1000
| 56> end
| 57>
| 58> * xyz 0 1
| 59>   C                    : 8.334044             -2.800744            8.258865
| 60>   O                    : 8.343442             -2.679756            9.679812
| 61>   H                    : 8.080518             -1.796854            10.035325
| 62>   H                    : 7.591973             -2.092943            7.806772
| 63>   H                    : 9.292589             -2.628121            7.805009
| 64>   H                    : 8.133133             -3.810071            7.890170
| 65>   C                      5.163529             0.054819             7.831404
| 66>   O                      5.767077             -0.570111            9.004683
| 67>   H                      6.618594             -0.206122            9.277932
| 68>   H                      5.208315             1.153949             7.942213
| 69>   H                      5.753755             -0.101697            6.837830
| 70>   H                      4.126756             -0.254294            7.606772
| 71> *
| 72>
| 73>                          ****END OF INPUT****
 Total Charge           Charge          ....    0
 Multiplicity           Mult            ....    1
 Number of Electrons    NEL             ....   36
Dispersion correction           -0.001962346
FINAL SINGLE POINT ENERGY      -231.456769503717
Dispersion correction           -0.000276173
FINAL SINGLE POINT ENERGY      -115.730367595665

CARTESIAN COORDINATES (ANGSTROEM)
---------------------------------
  C      8.334044   -2.800744    8.258865
  O      8.343442   -2.679756    9.679812
  H      8.080518   -1.796854   10.035325
  H      7.591973   -2.092943    7.806772
  H      9.292589   -2.628121    7.805009
  H      8.133133   -3.810071    7.890170
  C      5.163529    0.054819    7.831404
  O      5.767077   -0.570111    9.004683
  H      6.618594   -0.206122    9.277932
  H      5.208315    1.153949    7.942213
  H      5.753755   -0.101697    6.837830
  H      4.126756   -0.254294    7.606772

 Multiplicity           Mult            ....    1
 Number of Electrons    NEL             ....   18
 Basis Dimension        Dim             ....  172

ORBITAL ENERGIES
----------------

  NO   OCC          E(Eh)            E(eV)
   0   2.0000     -19.233064      -523.3583
   1   2.0000     -10.330382      -281.1040
   2   2.0000      -1.119899       -30.4740
   3   2.0000      -0.795356       -21.6427
   4   2.0000      -0.606630       -16.5073
   5   2.0000      -0.532755       -14.4970
   6   2.0000      -0.517962       -14.0945
   7   2.0000      -0.429653       -11.6915
   8   2.0000      -0.372426       -10.1342
   9   0.0000       0.087558         2.3826
  10   0.0000       0.130141         3.5413
  11   0.0000       0.135603         3.6899
  12   0.0000       0.180135         4.9017
  13   0.0000       0.189089         5.1454

MULLIKEN ATOMIC CHARGES
-----------------------
   0 C :    0.002555
   1 O :    0.000551
   2 H :   -0.002971
   3 H :   -0.009885
   4 H :   -0.000141
   5 H :   -0.000739
   6 C :   -0.178921
   7 O :   -0.487394
   8 H :    0.325052
   9 H :    0.116631
  10 H :    0.100851
  11 H :    0.134411
Sum of atomic charges:   -0.0000000

LOEWDIN ATOMIC CHARGES
----------------------
   0 C :   -0.007013
   1 O :   -0.001086
   2 H :   -0.004337
   3 H :   -0.007939
   4 H :   -0.000076
   5 H :   -0.000119
   6 C :   -0.364356
   7 O :   -0.099750
   8 H :    0.170752
   9 H :    0.097852
  10 H :    0.104926
  11 H :    0.111145

  Mayer bond orders larger than 0.1
B(  6-C ,  7-O ) :   0.9917 B(  6-C ,  9-H ) :   0.9794 B(  6-C , 10-H ) :   0.9675
B(  6-C , 11-H ) :   0.9676 B(  7-O ,  8-H ) :   0.8866

Dispersion correction           -0.000304217
FINAL SINGLE POINT ENERGY      -115.727488334152

DIPOLE MOMENT
-------------
                                X             Y             Z
Electronic contribution:      0.53350      -0.94030       1.59930
Nuclear contribution   :     -0.26310       1.47172      -1.91180
                        -----------------------------------------
Total Dipole Moment    :      0.27040       0.53142      -0.31251
                        -----------------------------------------
Magnitude (a.u.)       :      0.67319
Magnitude (Debye)      :      1.71112

Rotational constants in cm-1:     4.300101     0.766143     0.738844
Rotational constants in MHz : 128913.771425 22968.392786 22150.000601

                             ****ORCA TERMINATED NORMALLY****
TOTAL RUN TIME: 0 days 0 hours 1 minutes 13 seconds 981 msec
