                         Program Version 4.1.2  - RELEASE  -
|  1> #Run DFT-D3 single point of the dimer
|  2> ! wB97X-D3 def2-TZVP TIGHTSCF CHELPG PMODEL PAL8
|  3>
|  4> %base "10-53_DFT_AB"
|  5>
|  6> %scf
|  7> MaxIter 1000
|  8> end
|  9>
| 10> * xyz 0 1
| 11>   C                      6.640702             1.118679             1.001048
| 12>   O                      7.266035             -0.143782            1.123999
| 13>   H                      7.994274             -0.063849            0.473445
| 14>   H                      5.730766             1.058960             0.469523
| 15>   H                      6.333335             1.429739             2.003741
| 16>   H                      7.222567             1.942048             0.618447
| 17>   C                      10.916818            1.005024             -0.737379
| 18>   O                      9.747381             1.181892             -0.082128
| 19>   H                      9.633235             2.147101             0.044101
| 20>   H                      11.672939            0.532247             -0.053481
| 21>   H                      10.808157            0.242543             -1.553276
| 22>   H                      11.193880            1.971686             -1.205821
| 23> *
| 24>
| 25> #Run DFT-D3 single point of the molecule with dimer basis set
| 26> $new_job
| 27> %base "10-53_DFT_A"
| 28> ! wB97X-D3 def2-TZVP TIGHTSCF CHELPG PMODEL
| 29>
| 30> %scf
| 31> MaxIter 1000
| 32> end
| 33>
| 34> * xyz 0 1
| 35>   C                      6.640702             1.118679             1.001048
| 36>   O                      7.266035             -0.143782            1.123999
| 37>   H                      7.994274             -0.063849            0.473445
| 38>   H                      5.730766             1.058960             0.469523
| 39>   H                      6.333335             1.429739             2.003741
| 40>   H                      7.222567             1.942048             0.618447
| 41>   C                    : 10.916818            1.005024             -0.737379
| 42>   O                    : 9.747381             1.181892             -0.082128
| 43>   H                    : 9.633235             2.147101             0.044101
| 44>   H                    : 11.672939            0.532247             -0.053481
| 45>   H                    : 10.808157            0.242543             -1.553276
| 46>   H                    : 11.193880            1.971686             -1.205821
| 47> *
| 48>
| 49> #Run DFT-D3 single point of the particle with dimer basis set
| 50> $new_job
| 51> %base "10-53_DFT_B"
| 52> ! wB97X-D3 def2-TZVP TIGHTSCF CHELPG PMODEL
| 53>
| 54> %scf
| 55> MaxIter 1000
| 56> end
| 57>
| 58> * xyz 0 1
| 59>   C                    : 6.640702             1.118679             1.001048
| 60>   O                    : 7.266035             -0.143782            1.123999
| 61>   H                    : 7.994274             -0.063849            0.473445
| 62>   H                    : 5.730766             1.058960             0.469523
| 63>   H                    : 6.333335             1.429739             2.003741
| 64>   H                    : 7.222567             1.942048             0.618447
| 65>   C                      10.916818            1.005024             -0.737379
| 66>   O                      9.747381             1.181892             -0.082128
| 67>   H                      9.633235             2.147101             0.044101
| 68>   H                      11.672939            0.532247             -0.053481
| 69>   H                      10.808157            0.242543             -1.553276
| 70>   H                      11.193880            1.971686             -1.205821
| 71> *
| 72>
| 73>                          ****END OF INPUT****
 Total Charge           Charge          ....    0
 Multiplicity           Mult            ....    1
 Number of Electrons    NEL             ....   36
Dispersion correction           -0.001724484
FINAL SINGLE POINT ENERGY      -231.466290666157
Dispersion correction           -0.000239590
FINAL SINGLE POINT ENERGY      -115.731549452340

CARTESIAN COORDINATES (ANGSTROEM)
---------------------------------
  C      6.640702    1.118679    1.001048
  O      7.266035   -0.143782    1.123999
  H      7.994274   -0.063849    0.473445
  H      5.730766    1.058960    0.469523
  H      6.333335    1.429739    2.003741
  H      7.222567    1.942048    0.618447
  C     10.916818    1.005024   -0.737379
  O      9.747381    1.181892   -0.082128
  H      9.633235    2.147101    0.044101
  H     11.672939    0.532247   -0.053481
  H     10.808157    0.242543   -1.553276
  H     11.193880    1.971686   -1.205821

 Multiplicity           Mult            ....    1
 Number of Electrons    NEL             ....   18
 Basis Dimension        Dim             ....  172

ORBITAL ENERGIES
----------------

  NO   OCC          E(Eh)            E(eV)
   0   2.0000     -19.231779      -523.3233
   1   2.0000     -10.315890      -280.7096
   2   2.0000      -1.155833       -31.4518
   3   2.0000      -0.784320       -21.3424
   4   2.0000      -0.619834       -16.8665
   5   2.0000      -0.547360       -14.8944
   6   2.0000      -0.536350       -14.5948
   7   2.0000      -0.427288       -11.6271
   8   2.0000      -0.365642        -9.9496
   9   0.0000       0.093716         2.5501
  10   0.0000       0.120707         3.2846
  11   0.0000       0.154575         4.2062
  12   0.0000       0.184702         5.0260
  13   0.0000       0.202526         5.5110

MULLIKEN ATOMIC CHARGES
-----------------------
   0 C :    0.003867
   1 O :    0.000682
   2 H :   -0.009213
   3 H :   -0.000245
   4 H :   -0.000177
   5 H :   -0.006811
   6 C :   -0.149606
   7 O :   -0.446559
   8 H :    0.322205
   9 H :    0.093716
  10 H :    0.100634
  11 H :    0.091508
Sum of atomic charges:   -0.0000000

LOEWDIN ATOMIC CHARGES
----------------------
   0 C :   -0.007533
   1 O :   -0.002919
   2 H :   -0.022394
   3 H :   -0.000061
   4 H :   -0.000064
   5 H :   -0.004222
   6 C :   -0.440649
   7 O :   -0.015550
   8 H :    0.191218
   9 H :    0.099799
  10 H :    0.103339
  11 H :    0.099035

  Mayer bond orders larger than 0.1
B(  6-C ,  7-O ) :   1.0161 B(  6-C ,  9-H ) :   0.9738 B(  6-C , 10-H ) :   0.9765
B(  6-C , 11-H ) :   0.9875 B(  7-O ,  8-H ) :   0.8902

Dispersion correction           -0.000225577
FINAL SINGLE POINT ENERGY      -115.728695963342

DIPOLE MOMENT
-------------
                                X             Y             Z
Electronic contribution:     -1.56474       0.18394       0.91086
Nuclear contribution   :      1.88830       0.38585      -1.07455
                        -----------------------------------------
Total Dipole Moment    :      0.32356       0.56980      -0.16369
                        -----------------------------------------
Magnitude (a.u.)       :      0.67539
Magnitude (Debye)      :      1.71670

Rotational constants in cm-1:     4.074146     0.899031     0.855951
Rotational constants in MHz : 122139.812124 26952.285235 25660.777881

                             ****ORCA TERMINATED NORMALLY****
TOTAL RUN TIME: 0 days 0 hours 1 minutes 7 seconds 773 msec
