                         Program Version 4.1.2  - RELEASE  -
|  1> #Run DFT-D3 single point of the dimer
|  2> ! wB97X-D3 def2-TZVP TIGHTSCF CHELPG PMODEL PAL8
|  3>
|  4> %base "7-159_DFT_AB"
|  5>
|  6> %scf
|  7> MaxIter 1000
|  8> end
|  9>
| 10> * xyz 0 1
| 11>   C                      2.456452             -8.331689            -7.586011
| 12>   O                      2.874135             -8.174088            -6.283950
| 13>   H                      2.866683             -7.217742            -6.105022
| 14>   H                      1.521849             -7.794114            -7.665348
| 15>   H                      3.150249             -8.042174            -8.359437
| 16>   H                      2.292810             -9.379852            -7.728508
| 17>   C                      3.838669             -5.005214            -4.936201
| 18>   O                      2.574122             -5.372195            -5.366238
| 19>   H                      1.943393             -4.653260            -5.166460
| 20>   H                      3.770748             -4.473046            -3.921241
| 21>   H                      4.567345             -5.767021            -4.847617
| 22>   H                      4.263845             -4.216803            -5.554866
| 23> *
| 24>
| 25> #Run DFT-D3 single point of the molecule with dimer basis set
| 26> $new_job
| 27> %base "7-159_DFT_A"
| 28> ! wB97X-D3 def2-TZVP TIGHTSCF CHELPG PMODEL
| 29>
| 30> %scf
| 31> MaxIter 1000
| 32> end
| 33>
| 34> * xyz 0 1
| 35>   C                      2.456452             -8.331689            -7.586011
| 36>   O                      2.874135             -8.174088            -6.283950
| 37>   H                      2.866683             -7.217742            -6.105022
| 38>   H                      1.521849             -7.794114            -7.665348
| 39>   H                      3.150249             -8.042174            -8.359437
| 40>   H                      2.292810             -9.379852            -7.728508
| 41>   C                    : 3.838669             -5.005214            -4.936201
| 42>   O                    : 2.574122             -5.372195            -5.366238
| 43>   H                    : 1.943393             -4.653260            -5.166460
| 44>   H                    : 3.770748             -4.473046            -3.921241
| 45>   H                    : 4.567345             -5.767021            -4.847617
| 46>   H                    : 4.263845             -4.216803            -5.554866
| 47> *
| 48>
| 49> #Run DFT-D3 single point of the particle with dimer basis set
| 50> $new_job
| 51> %base "7-159_DFT_B"
| 52> ! wB97X-D3 def2-TZVP TIGHTSCF CHELPG PMODEL
| 53>
| 54> %scf
| 55> MaxIter 1000
| 56> end
| 57>
| 58> * xyz 0 1
| 59>   C                    : 2.456452             -8.331689            -7.586011
| 60>   O                    : 2.874135             -8.174088            -6.283950
| 61>   H                    : 2.866683             -7.217742            -6.105022
| 62>   H                    : 1.521849             -7.794114            -7.665348
| 63>   H                    : 3.150249             -8.042174            -8.359437
| 64>   H                    : 2.292810             -9.379852            -7.728508
| 65>   C                      3.838669             -5.005214            -4.936201
| 66>   O                      2.574122             -5.372195            -5.366238
| 67>   H                      1.943393             -4.653260            -5.166460
| 68>   H                      3.770748             -4.473046            -3.921241
| 69>   H                      4.567345             -5.767021            -4.847617
| 70>   H                      4.263845             -4.216803            -5.554866
| 71> *
| 72>
| 73>                          ****END OF INPUT****
 Total Charge           Charge          ....    0
 Multiplicity           Mult            ....    1
 Number of Electrons    NEL             ....   36
Dispersion correction           -0.001612696
FINAL SINGLE POINT ENERGY      -231.471156793815
Dispersion correction           -0.000211069
FINAL SINGLE POINT ENERGY      -115.733393865218

CARTESIAN COORDINATES (ANGSTROEM)
---------------------------------
  C      2.456452   -8.331689   -7.586011
  O      2.874135   -8.174088   -6.283950
  H      2.866683   -7.217742   -6.105022
  H      1.521849   -7.794114   -7.665348
  H      3.150249   -8.042174   -8.359437
  H      2.292810   -9.379852   -7.728508
  C      3.838669   -5.005214   -4.936201
  O      2.574122   -5.372195   -5.366238
  H      1.943393   -4.653260   -5.166460
  H      3.770748   -4.473046   -3.921241
  H      4.567345   -5.767021   -4.847617
  H      4.263845   -4.216803   -5.554866

 Multiplicity           Mult            ....    1
 Number of Electrons    NEL             ....   18
 Basis Dimension        Dim             ....  172

ORBITAL ENERGIES
----------------

  NO   OCC          E(Eh)            E(eV)
   0   2.0000     -19.233909      -523.3813
   1   2.0000     -10.312706      -280.6230
   2   2.0000      -1.143132       -31.1062
   3   2.0000      -0.795123       -21.6364
   4   2.0000      -0.617183       -16.7944
   5   2.0000      -0.544318       -14.8116
   6   2.0000      -0.533253       -14.5106
   7   2.0000      -0.431058       -11.7297
   8   2.0000      -0.368145       -10.0177
   9   0.0000       0.098904         2.6913
  10   0.0000       0.119211         3.2439
  11   0.0000       0.151745         4.1292
  12   0.0000       0.187362         5.0984
  13   0.0000       0.201363         5.4794

MULLIKEN ATOMIC CHARGES
-----------------------
   0 C :    0.000029
   1 O :    0.000546
   2 H :   -0.005723
   3 H :   -0.001502
   4 H :   -0.000101
   5 H :   -0.000176
   6 C :   -0.170750
   7 O :   -0.457931
   8 H :    0.318387
   9 H :    0.090000
  10 H :    0.127172
  11 H :    0.100050
Sum of atomic charges:    0.0000000

LOEWDIN ATOMIC CHARGES
----------------------
   0 C :   -0.002354
   1 O :   -0.003257
   2 H :   -0.030101
   3 H :   -0.000657
   4 H :   -0.000048
   5 H :   -0.000036
   6 C :   -0.406396
   7 O :   -0.035071
   8 H :    0.184375
   9 H :    0.102461
  10 H :    0.099610
  11 H :    0.091473

  Mayer bond orders larger than 0.1
B(  6-C ,  7-O ) :   0.9996 B(  6-C ,  9-H ) :   0.9816 B(  6-C , 10-H ) :   0.9738
B(  6-C , 11-H ) :   0.9736 B(  7-O ,  8-H ) :   0.8901

Dispersion correction           -0.000233851
FINAL SINGLE POINT ENERGY      -115.730558512473

DIPOLE MOMENT
-------------
                                X             Y             Z
Electronic contribution:     -1.61241      -0.83818      -0.72530
Nuclear contribution   :      1.69673       1.43140       1.01131
                        -----------------------------------------
Total Dipole Moment    :      0.08432       0.59323       0.28601
                        -----------------------------------------
Magnitude (a.u.)       :      0.66395
Magnitude (Debye)      :      1.68763

Rotational constants in cm-1:     4.361268     0.851357     0.814055
Rotational constants in MHz : 130747.515705 25523.042348 24404.748332

                             ****ORCA TERMINATED NORMALLY****
TOTAL RUN TIME: 0 days 0 hours 1 minutes 14 seconds 628 msec
