                         Program Version 4.1.2  - RELEASE  -
|  1> #Run DFT-D3 single point of the dimer
|  2> ! wB97X-D3 def2-TZVP TIGHTSCF CHELPG PMODEL PAL8
|  3>
|  4> %base "7-31_DFT_AB"
|  5>
|  6> %scf
|  7> MaxIter 1000
|  8> end
|  9>
| 10> * xyz 0 1
| 11>   C                      0.666390             -0.715815            -0.420100
| 12>   O                      1.567490             0.321839             -0.143165
| 13>   H                      1.326093             1.086254             -0.696441
| 14>   H                      -0.316124            -0.427597            -0.014911
| 15>   H                      0.543968             -0.926248            -1.464179
| 16>   H                      1.024687             -1.624058            0.019191
| 17>   C                      -2.313152            2.209491             1.472491
| 18>   O                      -3.409687            1.365567             1.882178
| 19>   H                      -3.929460            1.988193             2.385590
| 20>   H                      -1.861746            1.840108             0.494320
| 21>   H                      -2.520141            3.299756             1.321185
| 22>   H                      -1.539403            2.151524             2.219451
| 23> *
| 24>
| 25> #Run DFT-D3 single point of the molecule with dimer basis set
| 26> $new_job
| 27> %base "7-31_DFT_A"
| 28> ! wB97X-D3 def2-TZVP TIGHTSCF CHELPG PMODEL
| 29>
| 30> %scf
| 31> MaxIter 1000
| 32> end
| 33>
| 34> * xyz 0 1
| 35>   C                      0.666390             -0.715815            -0.420100
| 36>   O                      1.567490             0.321839             -0.143165
| 37>   H                      1.326093             1.086254             -0.696441
| 38>   H                      -0.316124            -0.427597            -0.014911
| 39>   H                      0.543968             -0.926248            -1.464179
| 40>   H                      1.024687             -1.624058            0.019191
| 41>   C                    : -2.313152            2.209491             1.472491
| 42>   O                    : -3.409687            1.365567             1.882178
| 43>   H                    : -3.929460            1.988193             2.385590
| 44>   H                    : -1.861746            1.840108             0.494320
| 45>   H                    : -2.520141            3.299756             1.321185
| 46>   H                    : -1.539403            2.151524             2.219451
| 47> *
| 48>
| 49> #Run DFT-D3 single point of the particle with dimer basis set
| 50> $new_job
| 51> %base "7-31_DFT_B"
| 52> ! wB97X-D3 def2-TZVP TIGHTSCF CHELPG PMODEL
| 53>
| 54> %scf
| 55> MaxIter 1000
| 56> end
| 57>
| 58> * xyz 0 1
| 59>   C                    : 0.666390             -0.715815            -0.420100
| 60>   O                    : 1.567490             0.321839             -0.143165
| 61>   H                    : 1.326093             1.086254             -0.696441
| 62>   H                    : -0.316124            -0.427597            -0.014911
| 63>   H                    : 0.543968             -0.926248            -1.464179
| 64>   H                    : 1.024687             -1.624058            0.019191
| 65>   C                      -2.313152            2.209491             1.472491
| 66>   O                      -3.409687            1.365567             1.882178
| 67>   H                      -3.929460            1.988193             2.385590
| 68>   H                      -1.861746            1.840108             0.494320
| 69>   H                      -2.520141            3.299756             1.321185
| 70>   H                      -1.539403            2.151524             2.219451
| 71> *
| 72>
| 73>                          ****END OF INPUT****
 Total Charge           Charge          ....    0
 Multiplicity           Mult            ....    1
 Number of Electrons    NEL             ....   36
Dispersion correction           -0.001151306
FINAL SINGLE POINT ENERGY      -231.467261293825
Dispersion correction           -0.000225229
FINAL SINGLE POINT ENERGY      -115.735553981222

CARTESIAN COORDINATES (ANGSTROEM)
---------------------------------
  C      0.666390   -0.715815   -0.420100
  O      1.567490    0.321839   -0.143165
  H      1.326093    1.086254   -0.696441
  H     -0.316124   -0.427597   -0.014911
  H      0.543968   -0.926248   -1.464179
  H      1.024687   -1.624058    0.019191
  C     -2.313152    2.209491    1.472491
  O     -3.409687    1.365567    1.882178
  H     -3.929460    1.988193    2.385590
  H     -1.861746    1.840108    0.494320
  H     -2.520141    3.299756    1.321185
  H     -1.539403    2.151524    2.219451

 Multiplicity           Mult            ....    1
 Number of Electrons    NEL             ....   18
 Basis Dimension        Dim             ....  172

ORBITAL ENERGIES
----------------

  NO   OCC          E(Eh)            E(eV)
   0   2.0000     -19.234870      -523.4074
   1   2.0000     -10.321523      -280.8629
   2   2.0000      -1.135277       -30.8925
   3   2.0000      -0.791250       -21.5310
   4   2.0000      -0.606641       -16.5075
   5   2.0000      -0.537881       -14.6365
   6   2.0000      -0.517038       -14.0693
   7   2.0000      -0.444531       -12.0963
   8   2.0000      -0.376240       -10.2380
   9   0.0000       0.087073         2.3694
  10   0.0000       0.116522         3.1707
  11   0.0000       0.147168         4.0046
  12   0.0000       0.173052         4.7090
  13   0.0000       0.183332         4.9887

MULLIKEN ATOMIC CHARGES
-----------------------
   0 C :   -0.001457
   1 O :    0.000064
   2 H :   -0.000036
   3 H :    0.002049
   4 H :    0.000050
   5 H :    0.000025
   6 C :   -0.190922
   7 O :   -0.460771
   8 H :    0.313233
   9 H :    0.115020
  10 H :    0.112079
  11 H :    0.110667
Sum of atomic charges:   -0.0000000

LOEWDIN ATOMIC CHARGES
----------------------
   0 C :   -0.000778
   1 O :   -0.000033
   2 H :   -0.000176
   3 H :   -0.001171
   4 H :   -0.000006
   5 H :   -0.000004
   6 C :   -0.380277
   7 O :   -0.091061
   8 H :    0.167038
   9 H :    0.114144
  10 H :    0.100607
  11 H :    0.091717

  Mayer bond orders larger than 0.1
B(  6-C ,  7-O ) :   1.0010 B(  6-C ,  9-H ) :   0.9736 B(  6-C , 10-H ) :   0.9713
B(  6-C , 11-H ) :   0.9773 B(  7-O ,  8-H ) :   0.9047

Dispersion correction           -0.000256277
FINAL SINGLE POINT ENERGY      -115.731027922287

DIPOLE MOMENT
-------------
                                X             Y             Z
Electronic contribution:     -1.45063      -1.21171       0.48573
Nuclear contribution   :      1.55627       1.93705      -0.32973
                        -----------------------------------------
Total Dipole Moment    :      0.10564       0.72533       0.15600
                        -----------------------------------------
Magnitude (a.u.)       :      0.74940
Magnitude (Debye)      :      1.90483

Rotational constants in cm-1:     4.209066     0.804387     0.770869
Rotational constants in MHz : 126184.624857 24114.901979 23110.077380

                             ****ORCA TERMINATED NORMALLY****
TOTAL RUN TIME: 0 days 0 hours 0 minutes 58 seconds 326 msec
