                         Program Version 4.1.2  - RELEASE  -
|  1> #Run DFT-D3 single point of the dimer
|  2> ! wB97X-D3 def2-TZVP TIGHTSCF CHELPG PMODEL PAL8
|  3>
|  4> %base "6-149_DFT_AB"
|  5>
|  6> %scf
|  7> MaxIter 1000
|  8> end
|  9>
| 10> * xyz 0 1
| 11>   C                      -1.657348            -2.605589            3.107495
| 12>   O                      -1.433084            -3.963794            3.336402
| 13>   H                      -1.822367            -4.471035            2.634541
| 14>   H                      -1.025186            -1.978984            3.793105
| 15>   H                      -1.370348            -2.277809            2.137469
| 16>   H                      -2.655147            -2.318401            3.325334
| 17>   C                      1.922953             -3.077625            2.484926
| 18>   O                      1.345528             -3.086113            1.131528
| 19>   H                      1.970459             -2.601192            0.562478
| 20>   H                      2.975251             -2.827903            2.476688
| 21>   H                      1.326520             -2.461149            3.132407
| 22>   H                      1.791371             -4.136435            2.840835
| 23> *
| 24>
| 25> #Run DFT-D3 single point of the molecule with dimer basis set
| 26> $new_job
| 27> %base "6-149_DFT_A"
| 28> ! wB97X-D3 def2-TZVP TIGHTSCF CHELPG PMODEL
| 29>
| 30> %scf
| 31> MaxIter 1000
| 32> end
| 33>
| 34> * xyz 0 1
| 35>   C                      -1.657348            -2.605589            3.107495
| 36>   O                      -1.433084            -3.963794            3.336402
| 37>   H                      -1.822367            -4.471035            2.634541
| 38>   H                      -1.025186            -1.978984            3.793105
| 39>   H                      -1.370348            -2.277809            2.137469
| 40>   H                      -2.655147            -2.318401            3.325334
| 41>   C                    : 1.922953             -3.077625            2.484926
| 42>   O                    : 1.345528             -3.086113            1.131528
| 43>   H                    : 1.970459             -2.601192            0.562478
| 44>   H                    : 2.975251             -2.827903            2.476688
| 45>   H                    : 1.326520             -2.461149            3.132407
| 46>   H                    : 1.791371             -4.136435            2.840835
| 47> *
| 48>
| 49> #Run DFT-D3 single point of the particle with dimer basis set
| 50> $new_job
| 51> %base "6-149_DFT_B"
| 52> ! wB97X-D3 def2-TZVP TIGHTSCF CHELPG PMODEL
| 53>
| 54> %scf
| 55> MaxIter 1000
| 56> end
| 57>
| 58> * xyz 0 1
| 59>   C                    : -1.657348            -2.605589            3.107495
| 60>   O                    : -1.433084            -3.963794            3.336402
| 61>   H                    : -1.822367            -4.471035            2.634541
| 62>   H                    : -1.025186            -1.978984            3.793105
| 63>   H                    : -1.370348            -2.277809            2.137469
| 64>   H                    : -2.655147            -2.318401            3.325334
| 65>   C                      1.922953             -3.077625            2.484926
| 66>   O                      1.345528             -3.086113            1.131528
| 67>   H                      1.970459             -2.601192            0.562478
| 68>   H                      2.975251             -2.827903            2.476688
| 69>   H                      1.326520             -2.461149            3.132407
| 70>   H                      1.791371             -4.136435            2.840835
| 71> *
| 72>
| 73>                          ****END OF INPUT****
 Total Charge           Charge          ....    0
 Multiplicity           Mult            ....    1
 Number of Electrons    NEL             ....   36
Dispersion correction           -0.002120225
FINAL SINGLE POINT ENERGY      -231.469767367021
Dispersion correction           -0.000236371
FINAL SINGLE POINT ENERGY      -115.734560175207

CARTESIAN COORDINATES (ANGSTROEM)
---------------------------------
  C     -1.657348   -2.605589    3.107495
  O     -1.433084   -3.963794    3.336402
  H     -1.822367   -4.471035    2.634541
  H     -1.025186   -1.978984    3.793105
  H     -1.370348   -2.277809    2.137469
  H     -2.655147   -2.318401    3.325334
  C      1.922953   -3.077625    2.484926
  O      1.345528   -3.086113    1.131528
  H      1.970459   -2.601192    0.562478
  H      2.975251   -2.827903    2.476688
  H      1.326520   -2.461149    3.132407
  H      1.791371   -4.136435    2.840835

 Multiplicity           Mult            ....    1
 Number of Electrons    NEL             ....   18
 Basis Dimension        Dim             ....  172

ORBITAL ENERGIES
----------------

  NO   OCC          E(Eh)            E(eV)
   0   2.0000     -19.229333      -523.2568
   1   2.0000     -10.317588      -280.7558
   2   2.0000      -1.116629       -30.3850
   3   2.0000      -0.795031       -21.6339
   4   2.0000      -0.600160       -16.3312
   5   2.0000      -0.539218       -14.6729
   6   2.0000      -0.514346       -13.9961
   7   2.0000      -0.441243       -12.0068
   8   2.0000      -0.372454       -10.1350
   9   0.0000       0.091776         2.4974
  10   0.0000       0.120741         3.2855
  11   0.0000       0.154038         4.1916
  12   0.0000       0.165623         4.5068
  13   0.0000       0.188275         5.1232

MULLIKEN ATOMIC CHARGES
-----------------------
   0 C :    0.009618
   1 O :   -0.000533
   2 H :   -0.000444
   3 H :   -0.000840
   4 H :   -0.007929
   5 H :    0.000144
   6 C :   -0.184992
   7 O :   -0.482944
   8 H :    0.311161
   9 H :    0.125115
  10 H :    0.115390
  11 H :    0.116256
Sum of atomic charges:    0.0000000

LOEWDIN ATOMIC CHARGES
----------------------
   0 C :   -0.005750
   1 O :   -0.000464
   2 H :   -0.000192
   3 H :   -0.002291
   4 H :   -0.003784
   5 H :   -0.000014
   6 C :   -0.342382
   7 O :   -0.122069
   8 H :    0.170678
   9 H :    0.096348
  10 H :    0.096690
  11 H :    0.113229

  Mayer bond orders larger than 0.1
B(  6-C ,  7-O ) :   0.9985 B(  6-C ,  9-H ) :   0.9741 B(  6-C , 10-H ) :   0.9744
B(  6-C , 11-H ) :   0.9812 B(  7-O ,  8-H ) :   0.9031

Dispersion correction           -0.000260909
FINAL SINGLE POINT ENERGY      -115.732509963935

DIPOLE MOMENT
-------------
                                X             Y             Z
Electronic contribution:     -0.72871       0.05750      -1.55398
Nuclear contribution   :      1.38243       0.24848       1.76588
                        -----------------------------------------
Total Dipole Moment    :      0.65372       0.30597       0.21190
                        -----------------------------------------
Magnitude (a.u.)       :      0.75224
Magnitude (Debye)      :      1.91205

Rotational constants in cm-1:     4.167138     0.788753     0.757226
Rotational constants in MHz : 124927.642270 23646.208890 22701.063274

                             ****ORCA TERMINATED NORMALLY****
TOTAL RUN TIME: 0 days 0 hours 0 minutes 58 seconds 95 msec
