                         Program Version 4.1.2  - RELEASE  -
|  1> #Run DFT-D3 single point of the dimer
|  2> ! wB97X-D3 def2-TZVP TIGHTSCF CHELPG PMODEL PAL8
|  3>
|  4> %base "9-9_DFT_AB"
|  5>
|  6> %scf
|  7> MaxIter 1000
|  8> end
|  9>
| 10> * xyz 0 1
| 11>   C                      5.326910             4.806322             -3.533113
| 12>   O                      6.034877             3.972360             -4.447765
| 13>   H                      6.237275             3.163824             -3.960999
| 14>   H                      6.014065             5.326131             -2.833834
| 15>   H                      4.817935             5.581777             -4.157801
| 16>   H                      4.623172             4.233674             -2.922331
| 17>   C                      6.415215             7.720887             -0.515267
| 18>   O                      6.960690             8.090175             -1.808112
| 19>   H                      7.891432             8.299231             -1.797860
| 20>   H                      5.298850             7.836669             -0.482054
| 21>   H                      6.668831             6.667515             -0.324530
| 22>   H                      6.810055             8.262270             0.330771
| 23> *
| 24>
| 25> #Run DFT-D3 single point of the molecule with dimer basis set
| 26> $new_job
| 27> %base "9-9_DFT_A"
| 28> ! wB97X-D3 def2-TZVP TIGHTSCF CHELPG PMODEL
| 29>
| 30> %scf
| 31> MaxIter 1000
| 32> end
| 33>
| 34> * xyz 0 1
| 35>   C                      5.326910             4.806322             -3.533113
| 36>   O                      6.034877             3.972360             -4.447765
| 37>   H                      6.237275             3.163824             -3.960999
| 38>   H                      6.014065             5.326131             -2.833834
| 39>   H                      4.817935             5.581777             -4.157801
| 40>   H                      4.623172             4.233674             -2.922331
| 41>   C                    : 6.415215             7.720887             -0.515267
| 42>   O                    : 6.960690             8.090175             -1.808112
| 43>   H                    : 7.891432             8.299231             -1.797860
| 44>   H                    : 5.298850             7.836669             -0.482054
| 45>   H                    : 6.668831             6.667515             -0.324530
| 46>   H                    : 6.810055             8.262270             0.330771
| 47> *
| 48>
| 49> #Run DFT-D3 single point of the particle with dimer basis set
| 50> $new_job
| 51> %base "9-9_DFT_B"
| 52> ! wB97X-D3 def2-TZVP TIGHTSCF CHELPG PMODEL
| 53>
| 54> %scf
| 55> MaxIter 1000
| 56> end
| 57>
| 58> * xyz 0 1
| 59>   C                    : 5.326910             4.806322             -3.533113
| 60>   O                    : 6.034877             3.972360             -4.447765
| 61>   H                    : 6.237275             3.163824             -3.960999
| 62>   H                    : 6.014065             5.326131             -2.833834
| 63>   H                    : 4.817935             5.581777             -4.157801
| 64>   H                    : 4.623172             4.233674             -2.922331
| 65>   C                      6.415215             7.720887             -0.515267
| 66>   O                      6.960690             8.090175             -1.808112
| 67>   H                      7.891432             8.299231             -1.797860
| 68>   H                      5.298850             7.836669             -0.482054
| 69>   H                      6.668831             6.667515             -0.324530
| 70>   H                      6.810055             8.262270             0.330771
| 71> *
| 72>
| 73>                          ****END OF INPUT****
 Total Charge           Charge          ....    0
 Multiplicity           Mult            ....    1
 Number of Electrons    NEL             ....   36
Dispersion correction           -0.001336358
FINAL SINGLE POINT ENERGY      -231.469374160169
Dispersion correction           -0.000242129
FINAL SINGLE POINT ENERGY      -115.735859882716

CARTESIAN COORDINATES (ANGSTROEM)
---------------------------------
  C      5.326910    4.806322   -3.533113
  O      6.034877    3.972360   -4.447765
  H      6.237275    3.163824   -3.960999
  H      6.014065    5.326131   -2.833834
  H      4.817935    5.581777   -4.157801
  H      4.623172    4.233674   -2.922331
  C      6.415215    7.720887   -0.515267
  O      6.960690    8.090175   -1.808112
  H      7.891432    8.299231   -1.797860
  H      5.298850    7.836669   -0.482054
  H      6.668831    6.667515   -0.324530
  H      6.810055    8.262270    0.330771

 Multiplicity           Mult            ....    1
 Number of Electrons    NEL             ....   18
 Basis Dimension        Dim             ....  172

ORBITAL ENERGIES
----------------

  NO   OCC          E(Eh)            E(eV)
   0   2.0000     -19.228013      -523.2208
   1   2.0000     -10.319479      -280.8073
   2   2.0000      -1.122530       -30.5456
   3   2.0000      -0.799216       -21.7478
   4   2.0000      -0.609359       -16.5815
   5   2.0000      -0.533942       -14.5293
   6   2.0000      -0.521178       -14.1820
   7   2.0000      -0.430643       -11.7184
   8   2.0000      -0.373297       -10.1579
   9   0.0000       0.093867         2.5542
  10   0.0000       0.120778         3.2865
  11   0.0000       0.146344         3.9822
  12   0.0000       0.174404         4.7458
  13   0.0000       0.192126         5.2280

MULLIKEN ATOMIC CHARGES
-----------------------
   0 C :   -0.001144
   1 O :    0.000062
   2 H :    0.000008
   3 H :    0.000275
   4 H :   -0.000098
   5 H :   -0.000076
   6 C :   -0.167700
   7 O :   -0.495617
   8 H :    0.316308
   9 H :    0.124023
  10 H :    0.108610
  11 H :    0.115350
Sum of atomic charges:    0.0000000

LOEWDIN ATOMIC CHARGES
----------------------
   0 C :   -0.001475
   1 O :   -0.000014
   2 H :   -0.000001
   3 H :   -0.002684
   4 H :   -0.000122
   5 H :   -0.000019
   6 C :   -0.360251
   7 O :   -0.101172
   8 H :    0.160062
   9 H :    0.115280
  10 H :    0.097782
  11 H :    0.092615

  Mayer bond orders larger than 0.1
B(  6-C ,  7-O ) :   0.9832 B(  6-C ,  9-H ) :   0.9713 B(  6-C , 10-H ) :   0.9801
B(  6-C , 11-H ) :   0.9710 B(  7-O ,  8-H ) :   0.8957

Dispersion correction           -0.000280094
FINAL SINGLE POINT ENERGY      -115.732533743863

DIPOLE MOMENT
-------------
                                X             Y             Z
Electronic contribution:      0.57934       0.53565      -1.65377
Nuclear contribution   :     -0.19159      -0.53994       2.23867
                        -----------------------------------------
Total Dipole Moment    :      0.38775      -0.00428       0.58490
                        -----------------------------------------
Magnitude (a.u.)       :      0.70176
Magnitude (Debye)      :      1.78374

Rotational constants in cm-1:     4.397898     0.784186     0.757706
Rotational constants in MHz : 131845.666884 23509.309681 22715.466894

                             ****ORCA TERMINATED NORMALLY****
TOTAL RUN TIME: 0 days 0 hours 0 minutes 41 seconds 531 msec
