                         Program Version 4.1.2  - RELEASE  -
|  1> #Run DFT-D3 single point of the dimer
|  2> ! wB97X-D3 def2-TZVP TIGHTSCF CHELPG PMODEL PAL8
|  3>
|  4> %base "16-77_DFT_AB"
|  5>
|  6> %scf
|  7> MaxIter 1000
|  8> end
|  9>
| 10> * xyz 0 1
| 11>   C                      1.882657             -5.473259            -4.311445
| 12>   O                      1.200089             -6.616802            -4.829966
| 13>   H                      0.588911             -6.281126            -5.540718
| 14>   H                      2.877696             -5.712606            -3.843402
| 15>   H                      2.170245             -4.752331            -5.142988
| 16>   H                      1.250145             -4.869591            -3.657311
| 17>   C                      0.752530             -9.006988            -2.076473
| 18>   O                      1.144546             -9.090956            -0.685190
| 19>   H                      1.540554             -10.007459           -0.553997
| 20>   H                      0.880706             -9.947004            -2.643374
| 21>   H                      -0.154931            -8.538831            -2.366658
| 22>   H                      1.434746             -8.239179            -2.476681
| 23> *
| 24>
| 25> #Run DFT-D3 single point of the molecule with dimer basis set
| 26> $new_job
| 27> %base "16-77_DFT_A"
| 28> ! wB97X-D3 def2-TZVP TIGHTSCF CHELPG PMODEL
| 29>
| 30> %scf
| 31> MaxIter 1000
| 32> end
| 33>
| 34> * xyz 0 1
| 35>   C                      1.882657             -5.473259            -4.311445
| 36>   O                      1.200089             -6.616802            -4.829966
| 37>   H                      0.588911             -6.281126            -5.540718
| 38>   H                      2.877696             -5.712606            -3.843402
| 39>   H                      2.170245             -4.752331            -5.142988
| 40>   H                      1.250145             -4.869591            -3.657311
| 41>   C                    : 0.752530             -9.006988            -2.076473
| 42>   O                    : 1.144546             -9.090956            -0.685190
| 43>   H                    : 1.540554             -10.007459           -0.553997
| 44>   H                    : 0.880706             -9.947004            -2.643374
| 45>   H                    : -0.154931            -8.538831            -2.366658
| 46>   H                    : 1.434746             -8.239179            -2.476681
| 47> *
| 48>
| 49> #Run DFT-D3 single point of the particle with dimer basis set
| 50> $new_job
| 51> %base "16-77_DFT_B"
| 52> ! wB97X-D3 def2-TZVP TIGHTSCF CHELPG PMODEL
| 53>
| 54> %scf
| 55> MaxIter 1000
| 56> end
| 57>
| 58> * xyz 0 1
| 59>   C                    : 1.882657             -5.473259            -4.311445
| 60>   O                    : 1.200089             -6.616802            -4.829966
| 61>   H                    : 0.588911             -6.281126            -5.540718
| 62>   H                    : 2.877696             -5.712606            -3.843402
| 63>   H                    : 2.170245             -4.752331            -5.142988
| 64>   H                    : 1.250145             -4.869591            -3.657311
| 65>   C                      0.752530             -9.006988            -2.076473
| 66>   O                      1.144546             -9.090956            -0.685190
| 67>   H                      1.540554             -10.007459           -0.553997
| 68>   H                      0.880706             -9.947004            -2.643374
| 69>   H                      -0.154931            -8.538831            -2.366658
| 70>   H                      1.434746             -8.239179            -2.476681
| 71> *
| 72>
| 73>                          ****END OF INPUT****
 Total Charge           Charge          ....    0
 Multiplicity           Mult            ....    1
 Number of Electrons    NEL             ....   36
Dispersion correction           -0.001453432
FINAL SINGLE POINT ENERGY      -231.455528222627
Dispersion correction           -0.000260539
FINAL SINGLE POINT ENERGY      -115.731381110253

CARTESIAN COORDINATES (ANGSTROEM)
---------------------------------
  C      1.882657   -5.473259   -4.311445
  O      1.200089   -6.616802   -4.829966
  H      0.588911   -6.281126   -5.540718
  H      2.877696   -5.712606   -3.843402
  H      2.170245   -4.752331   -5.142988
  H      1.250145   -4.869591   -3.657311
  C      0.752530   -9.006988   -2.076473
  O      1.144546   -9.090956   -0.685190
  H      1.540554  -10.007459   -0.553997
  H      0.880706   -9.947004   -2.643374
  H     -0.154931   -8.538831   -2.366658
  H      1.434746   -8.239179   -2.476681

 Multiplicity           Mult            ....    1
 Number of Electrons    NEL             ....   18
 Basis Dimension        Dim             ....  172

ORBITAL ENERGIES
----------------

  NO   OCC          E(Eh)            E(eV)
   0   2.0000     -19.235959      -523.4370
   1   2.0000     -10.313906      -280.6557
   2   2.0000      -1.118952       -30.4482
   3   2.0000      -0.796963       -21.6865
   4   2.0000      -0.601069       -16.3559
   5   2.0000      -0.537603       -14.6289
   6   2.0000      -0.520003       -14.1500
   7   2.0000      -0.440165       -11.9775
   8   2.0000      -0.366456        -9.9718
   9   0.0000       0.082410         2.2425
  10   0.0000       0.107613         2.9283
  11   0.0000       0.147160         4.0044
  12   0.0000       0.162232         4.4146
  13   0.0000       0.188128         5.1192

MULLIKEN ATOMIC CHARGES
-----------------------
   0 C :    0.000120
   1 O :   -0.000416
   2 H :   -0.000055
   3 H :   -0.000199
   4 H :    0.000035
   5 H :   -0.000133
   6 C :   -0.196108
   7 O :   -0.474617
   8 H :    0.321005
   9 H :    0.112737
  10 H :    0.119509
  11 H :    0.118121
Sum of atomic charges:   -0.0000000

LOEWDIN ATOMIC CHARGES
----------------------
   0 C :   -0.002741
   1 O :   -0.002075
   2 H :   -0.000098
   3 H :   -0.000467
   4 H :   -0.000037
   5 H :   -0.000104
   6 C :   -0.374101
   7 O :   -0.120671
   8 H :    0.196163
   9 H :    0.101045
  10 H :    0.096258
  11 H :    0.106829

  Mayer bond orders larger than 0.1
B(  6-C ,  7-O ) :   0.9999 B(  6-C ,  9-H ) :   0.9783 B(  6-C , 10-H ) :   0.9687
B(  6-C , 11-H ) :   0.9850 B(  7-O ,  8-H ) :   0.8933

Dispersion correction           -0.000269922
FINAL SINGLE POINT ENERGY      -115.722381359166

DIPOLE MOMENT
-------------
                                X             Y             Z
Electronic contribution:      0.25260      -0.10250       1.88651
Nuclear contribution   :     -0.16530      -0.42075      -2.37929
                        -----------------------------------------
Total Dipole Moment    :      0.08730      -0.52325      -0.49278
                        -----------------------------------------
Magnitude (a.u.)       :      0.72405
Magnitude (Debye)      :      1.84039

Rotational constants in cm-1:     4.367747     0.799791     0.755868
Rotational constants in MHz : 130941.752797 23977.129291 22660.367320

                             ****ORCA TERMINATED NORMALLY****
TOTAL RUN TIME: 0 days 0 hours 1 minutes 0 seconds 445 msec
