                         Program Version 4.1.2  - RELEASE  -
|  1> #Run DFT-D3 single point of the dimer
|  2> ! wB97X-D3 def2-TZVP TIGHTSCF CHELPG PMODEL PAL8
|  3>
|  4> %base "13-68_DFT_AB"
|  5>
|  6> %scf
|  7> MaxIter 1000
|  8> end
|  9>
| 10> * xyz 0 1
| 11>   C                      6.579677             -4.656054            2.098122
| 12>   O                      6.418017             -5.253259            3.379541
| 13>   H                      5.507121             -5.599913            3.333520
| 14>   H                      5.924402             -3.782596            1.864666
| 15>   H                      7.523478             -4.087973            1.999012
| 16>   H                      6.439044             -5.427651            1.315982
| 17>   C                      0.931299             -4.887291            1.729372
| 18>   O                      1.899001             -4.635179            0.812990
| 19>   H                      2.752696             -4.659677            1.330891
| 20>   H                      1.230511             -5.631169            2.488092
| 21>   H                      0.711567             -3.944448            2.221123
| 22>   H                      -0.019507            -5.280675            1.303522
| 23> *
| 24>
| 25> #Run DFT-D3 single point of the molecule with dimer basis set
| 26> $new_job
| 27> %base "13-68_DFT_A"
| 28> ! wB97X-D3 def2-TZVP TIGHTSCF CHELPG PMODEL
| 29>
| 30> %scf
| 31> MaxIter 1000
| 32> end
| 33>
| 34> * xyz 0 1
| 35>   C                      6.579677             -4.656054            2.098122
| 36>   O                      6.418017             -5.253259            3.379541
| 37>   H                      5.507121             -5.599913            3.333520
| 38>   H                      5.924402             -3.782596            1.864666
| 39>   H                      7.523478             -4.087973            1.999012
| 40>   H                      6.439044             -5.427651            1.315982
| 41>   C                    : 0.931299             -4.887291            1.729372
| 42>   O                    : 1.899001             -4.635179            0.812990
| 43>   H                    : 2.752696             -4.659677            1.330891
| 44>   H                    : 1.230511             -5.631169            2.488092
| 45>   H                    : 0.711567             -3.944448            2.221123
| 46>   H                    : -0.019507            -5.280675            1.303522
| 47> *
| 48>
| 49> #Run DFT-D3 single point of the particle with dimer basis set
| 50> $new_job
| 51> %base "13-68_DFT_B"
| 52> ! wB97X-D3 def2-TZVP TIGHTSCF CHELPG PMODEL
| 53>
| 54> %scf
| 55> MaxIter 1000
| 56> end
| 57>
| 58> * xyz 0 1
| 59>   C                    : 6.579677             -4.656054            2.098122
| 60>   O                    : 6.418017             -5.253259            3.379541
| 61>   H                    : 5.507121             -5.599913            3.333520
| 62>   H                    : 5.924402             -3.782596            1.864666
| 63>   H                    : 7.523478             -4.087973            1.999012
| 64>   H                    : 6.439044             -5.427651            1.315982
| 65>   C                      0.931299             -4.887291            1.729372
| 66>   O                      1.899001             -4.635179            0.812990
| 67>   H                      2.752696             -4.659677            1.330891
| 68>   H                      1.230511             -5.631169            2.488092
| 69>   H                      0.711567             -3.944448            2.221123
| 70>   H                      -0.019507            -5.280675            1.303522
| 71> *
| 72>
| 73>                          ****END OF INPUT****
 Total Charge           Charge          ....    0
 Multiplicity           Mult            ....    1
 Number of Electrons    NEL             ....   36
Dispersion correction           -0.000878015
FINAL SINGLE POINT ENERGY      -231.459264654595
Dispersion correction           -0.000250269
FINAL SINGLE POINT ENERGY      -115.729829303347

CARTESIAN COORDINATES (ANGSTROEM)
---------------------------------
  C      6.579677   -4.656054    2.098122
  O      6.418017   -5.253259    3.379541
  H      5.507121   -5.599913    3.333520
  H      5.924402   -3.782596    1.864666
  H      7.523478   -4.087973    1.999012
  H      6.439044   -5.427651    1.315982
  C      0.931299   -4.887291    1.729372
  O      1.899001   -4.635179    0.812990
  H      2.752696   -4.659677    1.330891
  H      1.230511   -5.631169    2.488092
  H      0.711567   -3.944448    2.221123
  H     -0.019507   -5.280675    1.303522

 Multiplicity           Mult            ....    1
 Number of Electrons    NEL             ....   18
 Basis Dimension        Dim             ....  172

ORBITAL ENERGIES
----------------

  NO   OCC          E(Eh)            E(eV)
   0   2.0000     -19.233553      -523.3716
   1   2.0000     -10.309224      -280.5283
   2   2.0000      -1.151539       -31.3350
   3   2.0000      -0.785449       -21.3732
   4   2.0000      -0.616616       -16.7790
   5   2.0000      -0.551677       -15.0119
   6   2.0000      -0.533116       -14.5068
   7   2.0000      -0.427487       -11.6325
   8   2.0000      -0.367917       -10.0115
   9   0.0000       0.067529         1.8376
  10   0.0000       0.119434         3.2500
  11   0.0000       0.153523         4.1776
  12   0.0000       0.161758         4.4017
  13   0.0000       0.194022         5.2796

MULLIKEN ATOMIC CHARGES
-----------------------
   0 C :   -0.000054
   1 O :    0.000021
   2 H :   -0.000092
   3 H :   -0.000226
   4 H :   -0.000005
   5 H :   -0.000009
   6 C :   -0.162965
   7 O :   -0.457220
   8 H :    0.323460
   9 H :    0.094891
  10 H :    0.094422
  11 H :    0.107777
Sum of atomic charges:    0.0000000

LOEWDIN ATOMIC CHARGES
----------------------
   0 C :   -0.000389
   1 O :   -0.000009
   2 H :   -0.000118
   3 H :   -0.000253
   4 H :   -0.000004
   5 H :   -0.000042
   6 C :   -0.442155
   7 O :   -0.050789
   8 H :    0.200952
   9 H :    0.093601
  10 H :    0.091036
  11 H :    0.108171

  Mayer bond orders larger than 0.1
B(  6-C ,  7-O ) :   1.0076 B(  6-C ,  9-H ) :   0.9827 B(  6-C , 10-H ) :   0.9837
B(  6-C , 11-H ) :   0.9689 B(  7-O ,  8-H ) :   0.8898

Dispersion correction           -0.000211515
FINAL SINGLE POINT ENERGY      -115.729876975704

DIPOLE MOMENT
-------------
                                X             Y             Z
Electronic contribution:      1.21834       0.32629      -1.41644
Nuclear contribution   :     -1.02736      -0.44333       2.05960
                        -----------------------------------------
Total Dipole Moment    :      0.19098      -0.11704       0.64315
                        -----------------------------------------
Magnitude (a.u.)       :      0.68104
Magnitude (Debye)      :      1.73107

Rotational constants in cm-1:     4.205229     0.888228     0.852130
Rotational constants in MHz : 126069.600612 26628.418357 25546.227796

                             ****ORCA TERMINATED NORMALLY****
TOTAL RUN TIME: 0 days 0 hours 1 minutes 10 seconds 915 msec
