                         Program Version 4.1.2  - RELEASE  -
|  1> #Run DFT-D3 single point of the dimer
|  2> ! wB97X-D3 def2-TZVP TIGHTSCF CHELPG PMODEL PAL8
|  3>
|  4> %base "16-191_DFT_AB"
|  5>
|  6> %scf
|  7> MaxIter 1000
|  8> end
|  9>
| 10> * xyz 0 1
| 11>   C                      10.999349            -5.266649            -1.319768
| 12>   O                      11.616505            -5.919857            -0.228641
| 13>   H                      10.790786            -6.069596            0.322672
| 14>   H                      11.675425            -4.939022            -2.153195
| 15>   H                      10.217054            -5.852464            -1.723310
| 16>   H                      10.436245            -4.378384            -0.978400
| 17>   C                      8.386589             -2.071084            0.136548
| 18>   O                      8.601120             -2.945565            1.138944
| 19>   H                      8.944620             -3.784595            0.801443
| 20>   H                      9.232089             -1.678624            -0.281873
| 21>   H                      7.906528             -2.696329            -0.613378
| 22>   H                      7.677471             -1.266587            0.351767
| 23> *
| 24>
| 25> #Run DFT-D3 single point of the molecule with dimer basis set
| 26> $new_job
| 27> %base "16-191_DFT_A"
| 28> ! wB97X-D3 def2-TZVP TIGHTSCF CHELPG PMODEL
| 29>
| 30> %scf
| 31> MaxIter 1000
| 32> end
| 33>
| 34> * xyz 0 1
| 35>   C                      10.999349            -5.266649            -1.319768
| 36>   O                      11.616505            -5.919857            -0.228641
| 37>   H                      10.790786            -6.069596            0.322672
| 38>   H                      11.675425            -4.939022            -2.153195
| 39>   H                      10.217054            -5.852464            -1.723310
| 40>   H                      10.436245            -4.378384            -0.978400
| 41>   C                    : 8.386589             -2.071084            0.136548
| 42>   O                    : 8.601120             -2.945565            1.138944
| 43>   H                    : 8.944620             -3.784595            0.801443
| 44>   H                    : 9.232089             -1.678624            -0.281873
| 45>   H                    : 7.906528             -2.696329            -0.613378
| 46>   H                    : 7.677471             -1.266587            0.351767
| 47> *
| 48>
| 49> #Run DFT-D3 single point of the particle with dimer basis set
| 50> $new_job
| 51> %base "16-191_DFT_B"
| 52> ! wB97X-D3 def2-TZVP TIGHTSCF CHELPG PMODEL
| 53>
| 54> %scf
| 55> MaxIter 1000
| 56> end
| 57>
| 58> * xyz 0 1
| 59>   C                    : 10.999349            -5.266649            -1.319768
| 60>   O                    : 11.616505            -5.919857            -0.228641
| 61>   H                    : 10.790786            -6.069596            0.322672
| 62>   H                    : 11.675425            -4.939022            -2.153195
| 63>   H                    : 10.217054            -5.852464            -1.723310
| 64>   H                    : 10.436245            -4.378384            -0.978400
| 65>   C                      8.386589             -2.071084            0.136548
| 66>   O                      8.601120             -2.945565            1.138944
| 67>   H                      8.944620             -3.784595            0.801443
| 68>   H                      9.232089             -1.678624            -0.281873
| 69>   H                      7.906528             -2.696329            -0.613378
| 70>   H                      7.677471             -1.266587            0.351767
| 71> *
| 72>
| 73>                          ****END OF INPUT****
 Total Charge           Charge          ....    0
 Multiplicity           Mult            ....    1
 Number of Electrons    NEL             ....   36
Dispersion correction           -0.001527248
FINAL SINGLE POINT ENERGY      -231.450298563558
Dispersion correction           -0.000215747
FINAL SINGLE POINT ENERGY      -115.727203400321

CARTESIAN COORDINATES (ANGSTROEM)
---------------------------------
  C     10.999349   -5.266649   -1.319768
  O     11.616505   -5.919857   -0.228641
  H     10.790786   -6.069596    0.322672
  H     11.675425   -4.939022   -2.153195
  H     10.217054   -5.852464   -1.723310
  H     10.436245   -4.378384   -0.978400
  C      8.386589   -2.071084    0.136548
  O      8.601120   -2.945565    1.138944
  H      8.944620   -3.784595    0.801443
  H      9.232089   -1.678624   -0.281873
  H      7.906528   -2.696329   -0.613378
  H      7.677471   -1.266587    0.351767

 Multiplicity           Mult            ....    1
 Number of Electrons    NEL             ....   18
 Basis Dimension        Dim             ....  172

ORBITAL ENERGIES
----------------

  NO   OCC          E(Eh)            E(eV)
   0   2.0000     -19.225907      -523.1635
   1   2.0000     -10.298082      -280.2251
   2   2.0000      -1.154587       -31.4179
   3   2.0000      -0.798187       -21.7198
   4   2.0000      -0.624528       -16.9943
   5   2.0000      -0.558563       -15.1993
   6   2.0000      -0.542114       -14.7517
   7   2.0000      -0.418561       -11.3896
   8   2.0000      -0.367569       -10.0021
   9   0.0000       0.068739         1.8705
  10   0.0000       0.132484         3.6051
  11   0.0000       0.143853         3.9145
  12   0.0000       0.177796         4.8381
  13   0.0000       0.183535         4.9942

MULLIKEN ATOMIC CHARGES
-----------------------
   0 C :    0.001974
   1 O :    0.000059
   2 H :   -0.000230
   3 H :   -0.000082
   4 H :   -0.000119
   5 H :   -0.004235
   6 C :   -0.152350
   7 O :   -0.475046
   8 H :    0.324306
   9 H :    0.097954
  10 H :    0.088375
  11 H :    0.119394
Sum of atomic charges:   -0.0000000

LOEWDIN ATOMIC CHARGES
----------------------
   0 C :   -0.001593
   1 O :   -0.000044
   2 H :   -0.000476
   3 H :   -0.000012
   4 H :   -0.000037
   5 H :   -0.003033
   6 C :   -0.425809
   7 O :   -0.031291
   8 H :    0.179942
   9 H :    0.075731
  10 H :    0.097076
  11 H :    0.109547

  Mayer bond orders larger than 0.1
B(  6-C ,  7-O ) :   0.9941 B(  6-C ,  9-H ) :   0.9747 B(  6-C , 10-H ) :   1.0092
B(  6-C , 11-H ) :   0.9706 B(  7-O ,  8-H ) :   0.8931

Dispersion correction           -0.000197617
FINAL SINGLE POINT ENERGY      -115.723679640645

DIPOLE MOMENT
-------------
                                X             Y             Z
Electronic contribution:      0.36405      -0.91090       1.50892
Nuclear contribution   :     -0.22470       0.69622      -2.10710
                        -----------------------------------------
Total Dipole Moment    :      0.13935      -0.21467      -0.59818
                        -----------------------------------------
Magnitude (a.u.)       :      0.65063
Magnitude (Debye)      :      1.65377

Rotational constants in cm-1:     4.547920     0.903091     0.867040
Rotational constants in MHz : 136343.201427 27073.977656 25993.216602

                             ****ORCA TERMINATED NORMALLY****
TOTAL RUN TIME: 0 days 0 hours 0 minutes 58 seconds 713 msec
