                         Program Version 4.1.2  - RELEASE  -
|  1> #Run DFT-D3 single point of the dimer
|  2> ! wB97X-D3 def2-TZVP TIGHTSCF CHELPG PMODEL PAL8
|  3>
|  4> %base "7-18_DFT_AB"
|  5>
|  6> %scf
|  7> MaxIter 1000
|  8> end
|  9>
| 10> * xyz 0 1
| 11>   C                      -1.043704            -4.234054            3.067058
| 12>   O                      -0.967894            -4.898226            4.364749
| 13>   H                      -1.811567            -5.220936            4.592340
| 14>   H                      -1.580061            -3.307889            3.073810
| 15>   H                      -0.006759            -3.989458            2.723288
| 16>   H                      -1.542091            -4.895781            2.312860
| 17>   C                      -0.939052            -8.127681            1.759857
| 18>   O                      -2.146726            -8.792579            1.430857
| 19>   H                      -1.913014            -9.269738            0.629961
| 20>   H                      -0.962725            -7.226038            2.449969
| 21>   H                      -0.312505            -8.902315            2.236363
| 22>   H                      -0.412223            -7.730860            0.825161
| 23> *
| 24>
| 25> #Run DFT-D3 single point of the molecule with dimer basis set
| 26> $new_job
| 27> %base "7-18_DFT_A"
| 28> ! wB97X-D3 def2-TZVP TIGHTSCF CHELPG PMODEL
| 29>
| 30> %scf
| 31> MaxIter 1000
| 32> end
| 33>
| 34> * xyz 0 1
| 35>   C                      -1.043704            -4.234054            3.067058
| 36>   O                      -0.967894            -4.898226            4.364749
| 37>   H                      -1.811567            -5.220936            4.592340
| 38>   H                      -1.580061            -3.307889            3.073810
| 39>   H                      -0.006759            -3.989458            2.723288
| 40>   H                      -1.542091            -4.895781            2.312860
| 41>   C                    : -0.939052            -8.127681            1.759857
| 42>   O                    : -2.146726            -8.792579            1.430857
| 43>   H                    : -1.913014            -9.269738            0.629961
| 44>   H                    : -0.962725            -7.226038            2.449969
| 45>   H                    : -0.312505            -8.902315            2.236363
| 46>   H                    : -0.412223            -7.730860            0.825161
| 47> *
| 48>
| 49> #Run DFT-D3 single point of the particle with dimer basis set
| 50> $new_job
| 51> %base "7-18_DFT_B"
| 52> ! wB97X-D3 def2-TZVP TIGHTSCF CHELPG PMODEL
| 53>
| 54> %scf
| 55> MaxIter 1000
| 56> end
| 57>
| 58> * xyz 0 1
| 59>   C                    : -1.043704            -4.234054            3.067058
| 60>   O                    : -0.967894            -4.898226            4.364749
| 61>   H                    : -1.811567            -5.220936            4.592340
| 62>   H                    : -1.580061            -3.307889            3.073810
| 63>   H                    : -0.006759            -3.989458            2.723288
| 64>   H                    : -1.542091            -4.895781            2.312860
| 65>   C                      -0.939052            -8.127681            1.759857
| 66>   O                      -2.146726            -8.792579            1.430857
| 67>   H                      -1.913014            -9.269738            0.629961
| 68>   H                      -0.962725            -7.226038            2.449969
| 69>   H                      -0.312505            -8.902315            2.236363
| 70>   H                      -0.412223            -7.730860            0.825161
| 71> *
| 72>
| 73>                          ****END OF INPUT****
 Total Charge           Charge          ....    0
 Multiplicity           Mult            ....    1
 Number of Electrons    NEL             ....   36
Dispersion correction           -0.001479695
FINAL SINGLE POINT ENERGY      -231.463436066925
Dispersion correction           -0.000268682
FINAL SINGLE POINT ENERGY      -115.733703424630

CARTESIAN COORDINATES (ANGSTROEM)
---------------------------------
  C     -1.043704   -4.234054    3.067058
  O     -0.967894   -4.898226    4.364749
  H     -1.811567   -5.220936    4.592340
  H     -1.580061   -3.307889    3.073810
  H     -0.006759   -3.989458    2.723288
  H     -1.542091   -4.895781    2.312860
  C     -0.939052   -8.127681    1.759857
  O     -2.146726   -8.792579    1.430857
  H     -1.913014   -9.269738    0.629961
  H     -0.962725   -7.226038    2.449969
  H     -0.312505   -8.902315    2.236363
  H     -0.412223   -7.730860    0.825161

 Multiplicity           Mult            ....    1
 Number of Electrons    NEL             ....   18
 Basis Dimension        Dim             ....  172

ORBITAL ENERGIES
----------------

  NO   OCC          E(Eh)            E(eV)
   0   2.0000     -19.232900      -523.3538
   1   2.0000     -10.325154      -280.9617
   2   2.0000      -1.140214       -31.0268
   3   2.0000      -0.785601       -21.3773
   4   2.0000      -0.606159       -16.4944
   5   2.0000      -0.543404       -14.7868
   6   2.0000      -0.526722       -14.3328
   7   2.0000      -0.430862       -11.7244
   8   2.0000      -0.372330       -10.1316
   9   0.0000       0.085195         2.3183
  10   0.0000       0.113976         3.1015
  11   0.0000       0.156000         4.2450
  12   0.0000       0.161258         4.3880
  13   0.0000       0.186459         5.0738

MULLIKEN ATOMIC CHARGES
-----------------------
   0 C :   -0.001400
   1 O :    0.000203
   2 H :   -0.000087
   3 H :    0.000029
   4 H :    0.000038
   5 H :    0.001365
   6 C :   -0.189433
   7 O :   -0.462844
   8 H :    0.319759
   9 H :    0.123470
  10 H :    0.110345
  11 H :    0.098555
Sum of atomic charges:    0.0000000

LOEWDIN ATOMIC CHARGES
----------------------
   0 C :   -0.004592
   1 O :   -0.000694
   2 H :   -0.000484
   3 H :   -0.000039
   4 H :   -0.000120
   5 H :   -0.003104
   6 C :   -0.400672
   7 O :   -0.082231
   8 H :    0.174670
   9 H :    0.117089
  10 H :    0.097649
  11 H :    0.102529

  Mayer bond orders larger than 0.1
B(  6-C ,  7-O ) :   0.9985 B(  6-C ,  9-H ) :   0.9664 B(  6-C , 10-H ) :   0.9812
B(  6-C , 11-H ) :   0.9804 B(  7-O ,  8-H ) :   0.8975

Dispersion correction           -0.000240173
FINAL SINGLE POINT ENERGY      -115.727996881007

DIPOLE MOMENT
-------------
                                X             Y             Z
Electronic contribution:     -1.77602      -0.76983      -0.24910
Nuclear contribution   :      2.38162       0.73421      -0.12199
                        -----------------------------------------
Total Dipole Moment    :      0.60560      -0.03561      -0.37109
                        -----------------------------------------
Magnitude (a.u.)       :      0.71115
Magnitude (Debye)      :      1.80759

Rotational constants in cm-1:     4.137872     0.820612     0.792979
Rotational constants in MHz : 124050.284576 24601.336274 23772.917845

                             ****ORCA TERMINATED NORMALLY****
TOTAL RUN TIME: 0 days 0 hours 1 minutes 3 seconds 510 msec
