                         Program Version 4.1.2  - RELEASE  -
|  1> #Run DFT-D3 single point of the dimer
|  2> ! wB97X-D3 def2-TZVP TIGHTSCF CHELPG PMODEL PAL8
|  3>
|  4> %base "8-156_DFT_AB"
|  5>
|  6> %scf
|  7> MaxIter 1000
|  8> end
|  9>
| 10> * xyz 0 1
| 11>   C                      3.429850             6.986127             -2.815014
| 12>   O                      3.051718             7.490879             -4.094373
| 13>   H                      3.233975             6.849611             -4.819645
| 14>   H                      2.761065             6.224084             -2.616282
| 15>   H                      4.472148             6.688260             -2.703500
| 16>   H                      3.189052             7.789298             -2.132348
| 17>   C                      -0.106739            9.521801             -5.307521
| 18>   O                      0.614074             9.137865             -4.140551
| 19>   H                      1.175984             8.393284             -4.348319
| 20>   H                      -0.119439            8.705154             -6.072556
| 21>   H                      -1.199206            9.672196             -5.112654
| 22>   H                      0.292130             10.479332            -5.655162
| 23> *
| 24>
| 25> #Run DFT-D3 single point of the molecule with dimer basis set
| 26> $new_job
| 27> %base "8-156_DFT_A"
| 28> ! wB97X-D3 def2-TZVP TIGHTSCF CHELPG PMODEL
| 29>
| 30> %scf
| 31> MaxIter 1000
| 32> end
| 33>
| 34> * xyz 0 1
| 35>   C                      3.429850             6.986127             -2.815014
| 36>   O                      3.051718             7.490879             -4.094373
| 37>   H                      3.233975             6.849611             -4.819645
| 38>   H                      2.761065             6.224084             -2.616282
| 39>   H                      4.472148             6.688260             -2.703500
| 40>   H                      3.189052             7.789298             -2.132348
| 41>   C                    : -0.106739            9.521801             -5.307521
| 42>   O                    : 0.614074             9.137865             -4.140551
| 43>   H                    : 1.175984             8.393284             -4.348319
| 44>   H                    : -0.119439            8.705154             -6.072556
| 45>   H                    : -1.199206            9.672196             -5.112654
| 46>   H                    : 0.292130             10.479332            -5.655162
| 47> *
| 48>
| 49> #Run DFT-D3 single point of the particle with dimer basis set
| 50> $new_job
| 51> %base "8-156_DFT_B"
| 52> ! wB97X-D3 def2-TZVP TIGHTSCF CHELPG PMODEL
| 53>
| 54> %scf
| 55> MaxIter 1000
| 56> end
| 57>
| 58> * xyz 0 1
| 59>   C                    : 3.429850             6.986127             -2.815014
| 60>   O                    : 3.051718             7.490879             -4.094373
| 61>   H                    : 3.233975             6.849611             -4.819645
| 62>   H                    : 2.761065             6.224084             -2.616282
| 63>   H                    : 4.472148             6.688260             -2.703500
| 64>   H                    : 3.189052             7.789298             -2.132348
| 65>   C                      -0.106739            9.521801             -5.307521
| 66>   O                      0.614074             9.137865             -4.140551
| 67>   H                      1.175984             8.393284             -4.348319
| 68>   H                      -0.119439            8.705154             -6.072556
| 69>   H                      -1.199206            9.672196             -5.112654
| 70>   H                      0.292130             10.479332            -5.655162
| 71> *
| 72>
| 73>                          ****END OF INPUT****
 Total Charge           Charge          ....    0
 Multiplicity           Mult            ....    1
 Number of Electrons    NEL             ....   36
Dispersion correction           -0.001530693
FINAL SINGLE POINT ENERGY      -231.471351932177
Dispersion correction           -0.000240913
FINAL SINGLE POINT ENERGY      -115.731587617708

CARTESIAN COORDINATES (ANGSTROEM)
---------------------------------
  C      3.429850    6.986127   -2.815014
  O      3.051718    7.490879   -4.094373
  H      3.233975    6.849611   -4.819645
  H      2.761065    6.224084   -2.616282
  H      4.472148    6.688260   -2.703500
  H      3.189052    7.789298   -2.132348
  C     -0.106739    9.521801   -5.307521
  O      0.614074    9.137865   -4.140551
  H      1.175984    8.393284   -4.348319
  H     -0.119439    8.705154   -6.072556
  H     -1.199206    9.672196   -5.112654
  H      0.292130   10.479332   -5.655162

 Multiplicity           Mult            ....    1
 Number of Electrons    NEL             ....   18
 Basis Dimension        Dim             ....  172

ORBITAL ENERGIES
----------------

  NO   OCC          E(Eh)            E(eV)
   0   2.0000     -19.229598      -523.2640
   1   2.0000     -10.320604      -280.8379
   2   2.0000      -1.133386       -30.8410
   3   2.0000      -0.793328       -21.5875
   4   2.0000      -0.608906       -16.5692
   5   2.0000      -0.541927       -14.7466
   6   2.0000      -0.524113       -14.2618
   7   2.0000      -0.429332       -11.6827
   8   2.0000      -0.373862       -10.1733
   9   0.0000       0.073568         2.0019
  10   0.0000       0.126382         3.4390
  11   0.0000       0.153694         4.1822
  12   0.0000       0.170563         4.6412
  13   0.0000       0.193274         5.2593

MULLIKEN ATOMIC CHARGES
-----------------------
   0 C :   -0.000428
   1 O :   -0.002230
   2 H :   -0.000296
   3 H :   -0.000224
   4 H :    0.000070
   5 H :   -0.000598
   6 C :   -0.163438
   7 O :   -0.469077
   8 H :    0.312904
   9 H :    0.104943
  10 H :    0.110163
  11 H :    0.108211
Sum of atomic charges:    0.0000000

LOEWDIN ATOMIC CHARGES
----------------------
   0 C :   -0.002473
   1 O :   -0.013620
   2 H :   -0.001146
   3 H :   -0.000175
   4 H :   -0.000031
   5 H :   -0.000475
   6 C :   -0.381573
   7 O :   -0.077140
   8 H :    0.170604
   9 H :    0.101412
  10 H :    0.106402
  11 H :    0.098215

  Mayer bond orders larger than 0.1
B(  6-C ,  7-O ) :   1.0040 B(  6-C ,  9-H ) :   0.9828 B(  6-C , 10-H ) :   0.9720
B(  6-C , 11-H ) :   0.9762 B(  7-O ,  8-H ) :   0.9027

Dispersion correction           -0.000260322
FINAL SINGLE POINT ENERGY      -115.733509039218

DIPOLE MOMENT
-------------
                                X             Y             Z
Electronic contribution:      0.92908      -0.36635       1.54020
Nuclear contribution   :     -0.87283       0.03032      -2.14407
                        -----------------------------------------
Total Dipole Moment    :      0.05625      -0.33603      -0.60388
                        -----------------------------------------
Magnitude (a.u.)       :      0.69336
Magnitude (Debye)      :      1.76237

Rotational constants in cm-1:     4.222461     0.815510     0.787804
Rotational constants in MHz : 126586.209637 24448.364872 23617.775095

                             ****ORCA TERMINATED NORMALLY****
TOTAL RUN TIME: 0 days 0 hours 0 minutes 45 seconds 568 msec
