                         Program Version 4.1.2  - RELEASE  -
|  1> #Run DFT-D3 single point of the dimer
|  2> ! wB97X-D3 def2-TZVP TIGHTSCF CHELPG PMODEL PAL8
|  3>
|  4> %base "16-148_DFT_AB"
|  5>
|  6> %scf
|  7> MaxIter 1000
|  8> end
|  9>
| 10> * xyz 0 1
| 11>   C                      3.966741             6.720232             0.746698
| 12>   O                      3.416166             6.261532             2.001378
| 13>   H                      3.399390             5.330941             2.007699
| 14>   H                      4.958919             6.341420             0.529668
| 15>   H                      3.288763             6.520529             -0.083598
| 16>   H                      4.116659             7.806077             0.736759
| 17>   C                      1.197715             6.939054             3.872696
| 18>   O                      2.146857             7.938076             3.927715
| 19>   H                      2.852398             7.761809             3.278307
| 20>   H                      0.345884             7.264611             4.507729
| 21>   H                      0.938358             6.770201             2.820675
| 22>   H                      1.508983             5.993760             4.298612
| 23> *
| 24>
| 25> #Run DFT-D3 single point of the molecule with dimer basis set
| 26> $new_job
| 27> %base "16-148_DFT_A"
| 28> ! wB97X-D3 def2-TZVP TIGHTSCF CHELPG PMODEL
| 29>
| 30> %scf
| 31> MaxIter 1000
| 32> end
| 33>
| 34> * xyz 0 1
| 35>   C                      3.966741             6.720232             0.746698
| 36>   O                      3.416166             6.261532             2.001378
| 37>   H                      3.399390             5.330941             2.007699
| 38>   H                      4.958919             6.341420             0.529668
| 39>   H                      3.288763             6.520529             -0.083598
| 40>   H                      4.116659             7.806077             0.736759
| 41>   C                    : 1.197715             6.939054             3.872696
| 42>   O                    : 2.146857             7.938076             3.927715
| 43>   H                    : 2.852398             7.761809             3.278307
| 44>   H                    : 0.345884             7.264611             4.507729
| 45>   H                    : 0.938358             6.770201             2.820675
| 46>   H                    : 1.508983             5.993760             4.298612
| 47> *
| 48>
| 49> #Run DFT-D3 single point of the particle with dimer basis set
| 50> $new_job
| 51> %base "16-148_DFT_B"
| 52> ! wB97X-D3 def2-TZVP TIGHTSCF CHELPG PMODEL
| 53>
| 54> %scf
| 55> MaxIter 1000
| 56> end
| 57>
| 58> * xyz 0 1
| 59>   C                    : 3.966741             6.720232             0.746698
| 60>   O                    : 3.416166             6.261532             2.001378
| 61>   H                    : 3.399390             5.330941             2.007699
| 62>   H                    : 4.958919             6.341420             0.529668
| 63>   H                    : 3.288763             6.520529             -0.083598
| 64>   H                    : 4.116659             7.806077             0.736759
| 65>   C                      1.197715             6.939054             3.872696
| 66>   O                      2.146857             7.938076             3.927715
| 67>   H                      2.852398             7.761809             3.278307
| 68>   H                      0.345884             7.264611             4.507729
| 69>   H                      0.938358             6.770201             2.820675
| 70>   H                      1.508983             5.993760             4.298612
| 71> *
| 72>
| 73>                          ****END OF INPUT****
 Total Charge           Charge          ....    0
 Multiplicity           Mult            ....    1
 Number of Electrons    NEL             ....   36
Dispersion correction           -0.002062088
FINAL SINGLE POINT ENERGY      -231.475464410026
Dispersion correction           -0.000264223
FINAL SINGLE POINT ENERGY      -115.734574517693

CARTESIAN COORDINATES (ANGSTROEM)
---------------------------------
  C      3.966741    6.720232    0.746698
  O      3.416166    6.261532    2.001378
  H      3.399390    5.330941    2.007699
  H      4.958919    6.341420    0.529668
  H      3.288763    6.520529   -0.083598
  H      4.116659    7.806077    0.736759
  C      1.197715    6.939054    3.872696
  O      2.146857    7.938076    3.927715
  H      2.852398    7.761809    3.278307
  H      0.345884    7.264611    4.507729
  H      0.938358    6.770201    2.820675
  H      1.508983    5.993760    4.298612

 Multiplicity           Mult            ....    1
 Number of Electrons    NEL             ....   18
 Basis Dimension        Dim             ....  172

ORBITAL ENERGIES
----------------

  NO   OCC          E(Eh)            E(eV)
   0   2.0000     -19.230082      -523.2771
   1   2.0000     -10.309966      -280.5484
   2   2.0000      -1.143606       -31.1191
   3   2.0000      -0.791872       -21.5479
   4   2.0000      -0.616905       -16.7868
   5   2.0000      -0.548701       -14.9309
   6   2.0000      -0.526492       -14.3266
   7   2.0000      -0.429513       -11.6877
   8   2.0000      -0.369604       -10.0574
   9   0.0000       0.066139         1.7997
  10   0.0000       0.135749         3.6939
  11   0.0000       0.144274         3.9259
  12   0.0000       0.168800         4.5933
  13   0.0000       0.187336         5.0977

MULLIKEN ATOMIC CHARGES
-----------------------
   0 C :   -0.001842
   1 O :   -0.004189
   2 H :   -0.000229
   3 H :    0.000050
   4 H :   -0.000071
   5 H :   -0.000227
   6 C :   -0.150182
   7 O :   -0.467979
   8 H :    0.317759
   9 H :    0.120305
  10 H :    0.094840
  11 H :    0.091765
Sum of atomic charges:   -0.0000000

LOEWDIN ATOMIC CHARGES
----------------------
   0 C :   -0.003608
   1 O :   -0.018836
   2 H :   -0.001339
   3 H :   -0.000053
   4 H :   -0.000089
   5 H :   -0.000613
   6 C :   -0.408694
   7 O :   -0.049244
   8 H :    0.184217
   9 H :    0.113954
  10 H :    0.095728
  11 H :    0.088577

  Mayer bond orders larger than 0.1
B(  6-C ,  7-O ) :   0.9962 B(  6-C ,  9-H ) :   0.9729 B(  6-C , 10-H ) :   0.9865
B(  6-C , 11-H ) :   0.9751 B(  7-O ,  8-H ) :   0.9009

Dispersion correction           -0.000225850
FINAL SINGLE POINT ENERGY      -115.734524252857

DIPOLE MOMENT
-------------
                                X             Y             Z
Electronic contribution:      1.16287       1.35399       0.16051
Nuclear contribution   :     -1.07084      -1.83654      -0.58256
                        -----------------------------------------
Total Dipole Moment    :      0.09203      -0.48255      -0.42205
                        -----------------------------------------
Magnitude (a.u.)       :      0.64765
Magnitude (Debye)      :      1.64620

Rotational constants in cm-1:     4.245571     0.871051     0.829823
Rotational constants in MHz : 127279.022812 26113.450159 24877.474619

                             ****ORCA TERMINATED NORMALLY****
TOTAL RUN TIME: 0 days 0 hours 0 minutes 57 seconds 643 msec
