                         Program Version 4.1.2  - RELEASE  -
|  1> #Run DFT-D3 single point of the dimer
|  2> ! wB97X-D3 def2-TZVP TIGHTSCF CHELPG PMODEL PAL8
|  3>
|  4> %base "4-147_DFT_AB"
|  5>
|  6> %scf
|  7> MaxIter 1000
|  8> end
|  9>
| 10> * xyz 0 1
| 11>   C                      -5.506058            -1.317867            -8.266987
| 12>   O                      -6.144623            -0.197786            -7.648836
| 13>   H                      -6.625206            0.214050             -8.380967
| 14>   H                      -6.295067            -1.864258            -8.774842
| 15>   H                      -4.853261            -0.980029            -9.058349
| 16>   H                      -4.979811            -1.980948            -7.508206
| 17>   C                      -9.722676            0.090196             -9.715413
| 18>   O                      -8.664704            -0.786785            -9.465984
| 19>   H                      -9.039120            -1.682389            -9.353190
| 20>   H                      -10.261986           0.452385             -8.763524
| 21>   H                      -9.239347            1.000189             -10.163217
| 22>   H                      -10.563039           -0.221792            -10.368653
| 23> *
| 24>
| 25> #Run DFT-D3 single point of the molecule with dimer basis set
| 26> $new_job
| 27> %base "4-147_DFT_A"
| 28> ! wB97X-D3 def2-TZVP TIGHTSCF CHELPG PMODEL
| 29>
| 30> %scf
| 31> MaxIter 1000
| 32> end
| 33>
| 34> * xyz 0 1
| 35>   C                      -5.506058            -1.317867            -8.266987
| 36>   O                      -6.144623            -0.197786            -7.648836
| 37>   H                      -6.625206            0.214050             -8.380967
| 38>   H                      -6.295067            -1.864258            -8.774842
| 39>   H                      -4.853261            -0.980029            -9.058349
| 40>   H                      -4.979811            -1.980948            -7.508206
| 41>   C                    : -9.722676            0.090196             -9.715413
| 42>   O                    : -8.664704            -0.786785            -9.465984
| 43>   H                    : -9.039120            -1.682389            -9.353190
| 44>   H                    : -10.261986           0.452385             -8.763524
| 45>   H                    : -9.239347            1.000189             -10.163217
| 46>   H                    : -10.563039           -0.221792            -10.368653
| 47> *
| 48>
| 49> #Run DFT-D3 single point of the particle with dimer basis set
| 50> $new_job
| 51> %base "4-147_DFT_B"
| 52> ! wB97X-D3 def2-TZVP TIGHTSCF CHELPG PMODEL
| 53>
| 54> %scf
| 55> MaxIter 1000
| 56> end
| 57>
| 58> * xyz 0 1
| 59>   C                    : -5.506058            -1.317867            -8.266987
| 60>   O                    : -6.144623            -0.197786            -7.648836
| 61>   H                    : -6.625206            0.214050             -8.380967
| 62>   H                    : -6.295067            -1.864258            -8.774842
| 63>   H                    : -4.853261            -0.980029            -9.058349
| 64>   H                    : -4.979811            -1.980948            -7.508206
| 65>   C                      -9.722676            0.090196             -9.715413
| 66>   O                      -8.664704            -0.786785            -9.465984
| 67>   H                      -9.039120            -1.682389            -9.353190
| 68>   H                      -10.261986           0.452385             -8.763524
| 69>   H                      -9.239347            1.000189             -10.163217
| 70>   H                      -10.563039           -0.221792            -10.368653
| 71> *
| 72>
| 73>                          ****END OF INPUT****
 Total Charge           Charge          ....    0
 Multiplicity           Mult            ....    1
 Number of Electrons    NEL             ....   36
Dispersion correction           -0.001784621
FINAL SINGLE POINT ENERGY      -231.468612433785
Dispersion correction           -0.000216502
FINAL SINGLE POINT ENERGY      -115.732281789611

CARTESIAN COORDINATES (ANGSTROEM)
---------------------------------
  C     -5.506058   -1.317867   -8.266987
  O     -6.144623   -0.197786   -7.648836
  H     -6.625206    0.214050   -8.380967
  H     -6.295067   -1.864258   -8.774842
  H     -4.853261   -0.980029   -9.058349
  H     -4.979811   -1.980948   -7.508206
  C     -9.722676    0.090196   -9.715413
  O     -8.664704   -0.786785   -9.465984
  H     -9.039120   -1.682389   -9.353190
  H    -10.261986    0.452385   -8.763524
  H     -9.239347    1.000189  -10.163217
  H    -10.563039   -0.221792  -10.368653

 Multiplicity           Mult            ....    1
 Number of Electrons    NEL             ....   18
 Basis Dimension        Dim             ....  172

ORBITAL ENERGIES
----------------

  NO   OCC          E(Eh)            E(eV)
   0   2.0000     -19.239058      -523.5214
   1   2.0000     -10.322074      -280.8779
   2   2.0000      -1.142660       -31.0934
   3   2.0000      -0.787716       -21.4348
   4   2.0000      -0.618500       -16.8303
   5   2.0000      -0.529543       -14.4096
   6   2.0000      -0.523740       -14.2517
   7   2.0000      -0.437839       -11.9142
   8   2.0000      -0.372165       -10.1271
   9   0.0000       0.098221         2.6727
  10   0.0000       0.123983         3.3738
  11   0.0000       0.147698         4.0191
  12   0.0000       0.178497         4.8572
  13   0.0000       0.199773         5.4361

MULLIKEN ATOMIC CHARGES
-----------------------
   0 C :    0.004512
   1 O :    0.000540
   2 H :   -0.004659
   3 H :   -0.007121
   4 H :   -0.000784
   5 H :    0.000002
   6 C :   -0.175755
   7 O :   -0.451851
   8 H :    0.315783
   9 H :    0.089849
  10 H :    0.119761
  11 H :    0.109723
Sum of atomic charges:   -0.0000000

LOEWDIN ATOMIC CHARGES
----------------------
   0 C :   -0.006100
   1 O :   -0.002755
   2 H :   -0.009726
   3 H :   -0.005498
   4 H :   -0.000120
   5 H :   -0.000032
   6 C :   -0.420444
   7 O :   -0.047122
   8 H :    0.181665
   9 H :    0.099162
  10 H :    0.114550
  11 H :    0.096420

  Mayer bond orders larger than 0.1
B(  6-C ,  7-O ) :   1.0044 B(  6-C ,  9-H ) :   0.9685 B(  6-C , 10-H ) :   0.9793
B(  6-C , 11-H ) :   0.9623 B(  7-O ,  8-H ) :   0.8933

Dispersion correction           -0.000273812
FINAL SINGLE POINT ENERGY      -115.732177061136

DIPOLE MOMENT
-------------
                                X             Y             Z
Electronic contribution:      1.52151      -1.22649       0.24145
Nuclear contribution   :     -2.14898       0.97089      -0.29088
                        -----------------------------------------
Total Dipole Moment    :     -0.62747      -0.25560      -0.04944
                        -----------------------------------------
Magnitude (a.u.)       :      0.67933
Magnitude (Debye)      :      1.72672

Rotational constants in cm-1:     4.168408     0.833467     0.799387
Rotational constants in MHz : 124965.737410 24986.703421 23965.030503

                             ****ORCA TERMINATED NORMALLY****
TOTAL RUN TIME: 0 days 0 hours 1 minutes 36 seconds 826 msec
