                         Program Version 4.1.2  - RELEASE  -
|  1> #Run DFT-D3 single point of the dimer
|  2> ! wB97X-D3 def2-TZVP TIGHTSCF CHELPG PMODEL PAL8
|  3>
|  4> %base "21-86_DFT_AB"
|  5>
|  6> %scf
|  7> MaxIter 1000
|  8> end
|  9>
| 10> * xyz 0 1
| 11>   C                      -0.279772            8.880130             -5.984317
| 12>   O                      0.783245             8.630714             -6.886738
| 13>   H                      0.274807             8.473379             -7.649880
| 14>   H                      -0.903684            9.718744             -6.263217
| 15>   H                      -0.970593            8.024726             -5.917269
| 16>   H                      0.085905             9.093486             -4.943612
| 17>   C                      4.061097             9.985144             -6.070502
| 18>   O                      3.441151             9.246290             -7.049608
| 19>   H                      2.507525             9.449036             -6.878413
| 20>   H                      5.166325             9.778828             -5.975345
| 21>   H                      4.055554             11.054834            -6.343649
| 22>   H                      3.619307             9.736825             -5.105719
| 23> *
| 24>
| 25> #Run DFT-D3 single point of the molecule with dimer basis set
| 26> $new_job
| 27> %base "21-86_DFT_A"
| 28> ! wB97X-D3 def2-TZVP TIGHTSCF CHELPG PMODEL
| 29>
| 30> %scf
| 31> MaxIter 1000
| 32> end
| 33>
| 34> * xyz 0 1
| 35>   C                      -0.279772            8.880130             -5.984317
| 36>   O                      0.783245             8.630714             -6.886738
| 37>   H                      0.274807             8.473379             -7.649880
| 38>   H                      -0.903684            9.718744             -6.263217
| 39>   H                      -0.970593            8.024726             -5.917269
| 40>   H                      0.085905             9.093486             -4.943612
| 41>   C                    : 4.061097             9.985144             -6.070502
| 42>   O                    : 3.441151             9.246290             -7.049608
| 43>   H                    : 2.507525             9.449036             -6.878413
| 44>   H                    : 5.166325             9.778828             -5.975345
| 45>   H                    : 4.055554             11.054834            -6.343649
| 46>   H                    : 3.619307             9.736825             -5.105719
| 47> *
| 48>
| 49> #Run DFT-D3 single point of the particle with dimer basis set
| 50> $new_job
| 51> %base "21-86_DFT_B"
| 52> ! wB97X-D3 def2-TZVP TIGHTSCF CHELPG PMODEL
| 53>
| 54> %scf
| 55> MaxIter 1000
| 56> end
| 57>
| 58> * xyz 0 1
| 59>   C                    : -0.279772            8.880130             -5.984317
| 60>   O                    : 0.783245             8.630714             -6.886738
| 61>   H                    : 0.274807             8.473379             -7.649880
| 62>   H                    : -0.903684            9.718744             -6.263217
| 63>   H                    : -0.970593            8.024726             -5.917269
| 64>   H                    : 0.085905             9.093486             -4.943612
| 65>   C                      4.061097             9.985144             -6.070502
| 66>   O                      3.441151             9.246290             -7.049608
| 67>   H                      2.507525             9.449036             -6.878413
| 68>   H                      5.166325             9.778828             -5.975345
| 69>   H                      4.055554             11.054834            -6.343649
| 70>   H                      3.619307             9.736825             -5.105719
| 71> *
| 72>
| 73>                          ****END OF INPUT****
 Total Charge           Charge          ....    0
 Multiplicity           Mult            ....    1
 Number of Electrons    NEL             ....   36
Dispersion correction           -0.001555014
FINAL SINGLE POINT ENERGY      -231.468021721287
Dispersion correction           -0.000223180
FINAL SINGLE POINT ENERGY      -115.732205765326

CARTESIAN COORDINATES (ANGSTROEM)
---------------------------------
  C     -0.279772    8.880130   -5.984317
  O      0.783245    8.630714   -6.886738
  H      0.274807    8.473379   -7.649880
  H     -0.903684    9.718744   -6.263217
  H     -0.970593    8.024726   -5.917269
  H      0.085905    9.093486   -4.943612
  C      4.061097    9.985144   -6.070502
  O      3.441151    9.246290   -7.049608
  H      2.507525    9.449036   -6.878413
  H      5.166325    9.778828   -5.975345
  H      4.055554   11.054834   -6.343649
  H      3.619307    9.736825   -5.105719

 Multiplicity           Mult            ....    1
 Number of Electrons    NEL             ....   18
 Basis Dimension        Dim             ....  172

ORBITAL ENERGIES
----------------

  NO   OCC          E(Eh)            E(eV)
   0   2.0000     -19.233043      -523.3577
   1   2.0000     -10.314008      -280.6584
   2   2.0000      -1.153070       -31.3766
   3   2.0000      -0.786366       -21.3981
   4   2.0000      -0.612390       -16.6640
   5   2.0000      -0.557058       -15.1583
   6   2.0000      -0.531070       -14.4511
   7   2.0000      -0.427503       -11.6330
   8   2.0000      -0.373192       -10.1551
   9   0.0000       0.069312         1.8861
  10   0.0000       0.129588         3.5263
  11   0.0000       0.147844         4.0230
  12   0.0000       0.170686         4.6446
  13   0.0000       0.191042         5.1985

MULLIKEN ATOMIC CHARGES
-----------------------
   0 C :   -0.001813
   1 O :   -0.003641
   2 H :   -0.000310
   3 H :    0.000056
   4 H :    0.000005
   5 H :    0.000005
   6 C :   -0.178185
   7 O :   -0.447283
   8 H :    0.317200
   9 H :    0.111212
  10 H :    0.102296
  11 H :    0.100459
Sum of atomic charges:   -0.0000000

LOEWDIN ATOMIC CHARGES
----------------------
   0 C :   -0.003046
   1 O :   -0.024055
   2 H :   -0.001343
   3 H :   -0.000062
   4 H :   -0.000078
   5 H :   -0.000188
   6 C :   -0.428969
   7 O :   -0.039194
   8 H :    0.194269
   9 H :    0.112645
  10 H :    0.095988
  11 H :    0.094033

  Mayer bond orders larger than 0.1
B(  6-C ,  7-O ) :   1.0031 B(  6-C ,  9-H ) :   0.9707 B(  6-C , 10-H ) :   0.9808
B(  6-C , 11-H ) :   0.9811 B(  7-O ,  8-H ) :   0.8999

Dispersion correction           -0.000209741
FINAL SINGLE POINT ENERGY      -115.730902029234

DIPOLE MOMENT
-------------
                                X             Y             Z
Electronic contribution:     -0.74776      -1.06624      -1.35207
Nuclear contribution   :      0.42290       1.44369       1.81007
                        -----------------------------------------
Total Dipole Moment    :     -0.32486       0.37744       0.45799
                        -----------------------------------------
Magnitude (a.u.)       :      0.67657
Magnitude (Debye)      :      1.71972

Rotational constants in cm-1:     4.166833     0.871876     0.844269
Rotational constants in MHz : 124918.520122 26138.198903 25310.538612

                             ****ORCA TERMINATED NORMALLY****
TOTAL RUN TIME: 0 days 0 hours 1 minutes 3 seconds 840 msec
