                         Program Version 4.1.2  - RELEASE  -
|  1> #Run DFT-D3 single point of the dimer
|  2> ! wB97X-D3 def2-TZVP TIGHTSCF CHELPG PMODEL PAL8
|  3>
|  4> %base "4-104_DFT_AB"
|  5>
|  6> %scf
|  7> MaxIter 1000
|  8> end
|  9>
| 10> * xyz 0 1
| 11>   C                      -2.198624            9.615270             1.579089
| 12>   O                      -2.591249            8.515751             2.357670
| 13>   H                      -3.042198            8.817431             3.150511
| 14>   H                      -2.964768            10.342810            1.400862
| 15>   H                      -1.380174            10.190098            2.092665
| 16>   H                      -1.801923            9.420872             0.610234
| 17>   C                      3.208912             8.523574             1.890041
| 18>   O                      4.022419             9.685875             2.003729
| 19>   H                      4.329274             9.884666             1.116175
| 20>   H                      3.838737             7.602119             1.554761
| 21>   H                      2.728100             8.354032             2.919526
| 22>   H                      2.387934             8.697139             1.159460
| 23> *
| 24>
| 25> #Run DFT-D3 single point of the molecule with dimer basis set
| 26> $new_job
| 27> %base "4-104_DFT_A"
| 28> ! wB97X-D3 def2-TZVP TIGHTSCF CHELPG PMODEL
| 29>
| 30> %scf
| 31> MaxIter 1000
| 32> end
| 33>
| 34> * xyz 0 1
| 35>   C                      -2.198624            9.615270             1.579089
| 36>   O                      -2.591249            8.515751             2.357670
| 37>   H                      -3.042198            8.817431             3.150511
| 38>   H                      -2.964768            10.342810            1.400862
| 39>   H                      -1.380174            10.190098            2.092665
| 40>   H                      -1.801923            9.420872             0.610234
| 41>   C                    : 3.208912             8.523574             1.890041
| 42>   O                    : 4.022419             9.685875             2.003729
| 43>   H                    : 4.329274             9.884666             1.116175
| 44>   H                    : 3.838737             7.602119             1.554761
| 45>   H                    : 2.728100             8.354032             2.919526
| 46>   H                    : 2.387934             8.697139             1.159460
| 47> *
| 48>
| 49> #Run DFT-D3 single point of the particle with dimer basis set
| 50> $new_job
| 51> %base "4-104_DFT_B"
| 52> ! wB97X-D3 def2-TZVP TIGHTSCF CHELPG PMODEL
| 53>
| 54> %scf
| 55> MaxIter 1000
| 56> end
| 57>
| 58> * xyz 0 1
| 59>   C                    : -2.198624            9.615270             1.579089
| 60>   O                    : -2.591249            8.515751             2.357670
| 61>   H                    : -3.042198            8.817431             3.150511
| 62>   H                    : -2.964768            10.342810            1.400862
| 63>   H                    : -1.380174            10.190098            2.092665
| 64>   H                    : -1.801923            9.420872             0.610234
| 65>   C                      3.208912             8.523574             1.890041
| 66>   O                      4.022419             9.685875             2.003729
| 67>   H                      4.329274             9.884666             1.116175
| 68>   H                      3.838737             7.602119             1.554761
| 69>   H                      2.728100             8.354032             2.919526
| 70>   H                      2.387934             8.697139             1.159460
| 71> *
| 72>
| 73>                          ****END OF INPUT****
 Total Charge           Charge          ....    0
 Multiplicity           Mult            ....    1
 Number of Electrons    NEL             ....   36
Dispersion correction           -0.000683716
FINAL SINGLE POINT ENERGY      -231.464458457425
Dispersion correction           -0.000249903
FINAL SINGLE POINT ENERGY      -115.731879539366

CARTESIAN COORDINATES (ANGSTROEM)
---------------------------------
  C     -2.198624    9.615270    1.579089
  O     -2.591249    8.515751    2.357670
  H     -3.042198    8.817431    3.150511
  H     -2.964768   10.342810    1.400862
  H     -1.380174   10.190098    2.092665
  H     -1.801923    9.420872    0.610234
  C      3.208912    8.523574    1.890041
  O      4.022419    9.685875    2.003729
  H      4.329274    9.884666    1.116175
  H      3.838737    7.602119    1.554761
  H      2.728100    8.354032    2.919526
  H      2.387934    8.697139    1.159460

 Multiplicity           Mult            ....    1
 Number of Electrons    NEL             ....   18
 Basis Dimension        Dim             ....  172

ORBITAL ENERGIES
----------------

  NO   OCC          E(Eh)            E(eV)
   0   2.0000     -19.231363      -523.3120
   1   2.0000     -10.329227      -281.0725
   2   2.0000      -1.135541       -30.8996
   3   2.0000      -0.783374       -21.3167
   4   2.0000      -0.606393       -16.5008
   5   2.0000      -0.536188       -14.5904
   6   2.0000      -0.519135       -14.1264
   7   2.0000      -0.434058       -11.8113
   8   2.0000      -0.373189       -10.1550
   9   0.0000       0.083555         2.2737
  10   0.0000       0.113187         3.0800
  11   0.0000       0.147494         4.0135
  12   0.0000       0.162464         4.4209
  13   0.0000       0.186846         5.0843

MULLIKEN ATOMIC CHARGES
-----------------------
   0 C :   -0.000058
   1 O :    0.000005
   2 H :    0.000001
   3 H :   -0.000003
   4 H :    0.000025
   5 H :   -0.000038
   6 C :   -0.174067
   7 O :   -0.467686
   8 H :    0.313136
   9 H :    0.100171
  10 H :    0.121694
  11 H :    0.106821
Sum of atomic charges:   -0.0000000

LOEWDIN ATOMIC CHARGES
----------------------
   0 C :   -0.000074
   1 O :   -0.000001
   2 H :   -0.000000
   3 H :   -0.000001
   4 H :   -0.000021
   5 H :   -0.000030
   6 C :   -0.397717
   7 O :   -0.087402
   8 H :    0.167045
   9 H :    0.104178
  10 H :    0.118939
  11 H :    0.095083

  Mayer bond orders larger than 0.1
B(  6-C ,  7-O ) :   0.9974 B(  6-C ,  9-H ) :   0.9677 B(  6-C , 10-H ) :   0.9706
B(  6-C , 11-H ) :   0.9727 B(  7-O ,  8-H ) :   0.9003

Dispersion correction           -0.000252827
FINAL SINGLE POINT ENERGY      -115.732224001308

DIPOLE MOMENT
-------------
                                X             Y             Z
Electronic contribution:      1.01232       1.50375       0.27772
Nuclear contribution   :     -1.15077      -1.80564      -0.87630
                        -----------------------------------------
Total Dipole Moment    :     -0.13846      -0.30189      -0.59859
                        -----------------------------------------
Magnitude (a.u.)       :      0.68455
Magnitude (Debye)      :      1.74000

Rotational constants in cm-1:     3.925355     0.820812     0.790189
Rotational constants in MHz : 117679.187497 24607.332102 23689.258972

                             ****ORCA TERMINATED NORMALLY****
TOTAL RUN TIME: 0 days 0 hours 1 minutes 34 seconds 205 msec
