                         Program Version 4.1.2  - RELEASE  -
|  1> #Run DFT-D3 single point of the dimer
|  2> ! wB97X-D3 def2-TZVP TIGHTSCF CHELPG PMODEL PAL8
|  3>
|  4> %base "4-35_DFT_AB"
|  5>
|  6> %scf
|  7> MaxIter 1000
|  8> end
|  9>
| 10> * xyz 0 1
| 11>   C                      -5.192736            -2.225288            6.637700
| 12>   O                      -5.408181            -1.507434            5.386835
| 13>   H                      -4.517370            -1.420161            5.041826
| 14>   H                      -4.838058            -1.544956            7.408872
| 15>   H                      -6.004383            -2.688830            7.117625
| 16>   H                      -4.338427            -2.918640            6.592779
| 17>   C                      -2.050972            -5.786880            7.202433
| 18>   O                      -1.911438            -7.184478            7.428273
| 19>   H                      -2.003453            -7.469639            8.348375
| 20>   H                      -1.718456            -5.517412            6.170520
| 21>   H                      -3.122139            -5.500541            7.306506
| 22>   H                      -1.507892            -5.167264            7.911689
| 23> *
| 24>
| 25> #Run DFT-D3 single point of the molecule with dimer basis set
| 26> $new_job
| 27> %base "4-35_DFT_A"
| 28> ! wB97X-D3 def2-TZVP TIGHTSCF CHELPG PMODEL
| 29>
| 30> %scf
| 31> MaxIter 1000
| 32> end
| 33>
| 34> * xyz 0 1
| 35>   C                      -5.192736            -2.225288            6.637700
| 36>   O                      -5.408181            -1.507434            5.386835
| 37>   H                      -4.517370            -1.420161            5.041826
| 38>   H                      -4.838058            -1.544956            7.408872
| 39>   H                      -6.004383            -2.688830            7.117625
| 40>   H                      -4.338427            -2.918640            6.592779
| 41>   C                    : -2.050972            -5.786880            7.202433
| 42>   O                    : -1.911438            -7.184478            7.428273
| 43>   H                    : -2.003453            -7.469639            8.348375
| 44>   H                    : -1.718456            -5.517412            6.170520
| 45>   H                    : -3.122139            -5.500541            7.306506
| 46>   H                    : -1.507892            -5.167264            7.911689
| 47> *
| 48>
| 49> #Run DFT-D3 single point of the particle with dimer basis set
| 50> $new_job
| 51> %base "4-35_DFT_B"
| 52> ! wB97X-D3 def2-TZVP TIGHTSCF CHELPG PMODEL
| 53>
| 54> %scf
| 55> MaxIter 1000
| 56> end
| 57>
| 58> * xyz 0 1
| 59>   C                    : -5.192736            -2.225288            6.637700
| 60>   O                    : -5.408181            -1.507434            5.386835
| 61>   H                    : -4.517370            -1.420161            5.041826
| 62>   H                    : -4.838058            -1.544956            7.408872
| 63>   H                    : -6.004383            -2.688830            7.117625
| 64>   H                    : -4.338427            -2.918640            6.592779
| 65>   C                      -2.050972            -5.786880            7.202433
| 66>   O                      -1.911438            -7.184478            7.428273
| 67>   H                      -2.003453            -7.469639            8.348375
| 68>   H                      -1.718456            -5.517412            6.170520
| 69>   H                      -3.122139            -5.500541            7.306506
| 70>   H                      -1.507892            -5.167264            7.911689
| 71> *
| 72>
| 73>                          ****END OF INPUT****
 Total Charge           Charge          ....    0
 Multiplicity           Mult            ....    1
 Number of Electrons    NEL             ....   36
Dispersion correction           -0.000971972
FINAL SINGLE POINT ENERGY      -231.461366951692
Dispersion correction           -0.000252548
FINAL SINGLE POINT ENERGY      -115.726911287178

CARTESIAN COORDINATES (ANGSTROEM)
---------------------------------
  C     -5.192736   -2.225288    6.637700
  O     -5.408181   -1.507434    5.386835
  H     -4.517370   -1.420161    5.041826
  H     -4.838058   -1.544956    7.408872
  H     -6.004383   -2.688830    7.117625
  H     -4.338427   -2.918640    6.592779
  C     -2.050972   -5.786880    7.202433
  O     -1.911438   -7.184478    7.428273
  H     -2.003453   -7.469639    8.348375
  H     -1.718456   -5.517412    6.170520
  H     -3.122139   -5.500541    7.306506
  H     -1.507892   -5.167264    7.911689

 Multiplicity           Mult            ....    1
 Number of Electrons    NEL             ....   18
 Basis Dimension        Dim             ....  172

ORBITAL ENERGIES
----------------

  NO   OCC          E(Eh)            E(eV)
   0   2.0000     -19.227831      -523.2159
   1   2.0000     -10.318871      -280.7908
   2   2.0000      -1.126993       -30.6670
   3   2.0000      -0.795702       -21.6522
   4   2.0000      -0.611068       -16.6280
   5   2.0000      -0.534317       -14.5395
   6   2.0000      -0.526511       -14.3271
   7   2.0000      -0.426285       -11.5998
   8   2.0000      -0.370809       -10.0902
   9   0.0000       0.083411         2.2697
  10   0.0000       0.116089         3.1589
  11   0.0000       0.144157         3.9227
  12   0.0000       0.162968         4.4346
  13   0.0000       0.191473         5.2102

MULLIKEN ATOMIC CHARGES
-----------------------
   0 C :    0.000712
   1 O :   -0.000019
   2 H :   -0.000008
   3 H :   -0.000078
   4 H :   -0.000042
   5 H :   -0.001411
   6 C :   -0.144984
   7 O :   -0.493860
   8 H :    0.318975
   9 H :    0.119836
  10 H :    0.099079
  11 H :    0.101800
Sum of atomic charges:   -0.0000000

LOEWDIN ATOMIC CHARGES
----------------------
   0 C :   -0.000499
   1 O :   -0.000006
   2 H :   -0.000001
   3 H :   -0.000006
   4 H :   -0.000026
   5 H :   -0.001424
   6 C :   -0.380094
   7 O :   -0.091507
   8 H :    0.170316
   9 H :    0.113878
  10 H :    0.097825
  11 H :    0.091544

  Mayer bond orders larger than 0.1
B(  6-C ,  7-O ) :   0.9932 B(  6-C ,  9-H ) :   0.9692 B(  6-C , 10-H ) :   0.9801
B(  6-C , 11-H ) :   0.9736 B(  7-O ,  8-H ) :   0.8909

Dispersion correction           -0.000268640
FINAL SINGLE POINT ENERGY      -115.734249769594

DIPOLE MOMENT
-------------
                                X             Y             Z
Electronic contribution:      0.27613      -1.79554       0.17817
Nuclear contribution   :     -0.38177       2.19260       0.33861
                        -----------------------------------------
Total Dipole Moment    :     -0.10565       0.39706       0.51678
                        -----------------------------------------
Magnitude (a.u.)       :      0.66021
Magnitude (Debye)      :      1.67813

Rotational constants in cm-1:     4.327990     0.809645     0.780943
Rotational constants in MHz : 129749.867178 24272.547625 23412.096703

                             ****ORCA TERMINATED NORMALLY****
TOTAL RUN TIME: 0 days 0 hours 1 minutes 34 seconds 176 msec
