                         Program Version 4.1.2  - RELEASE  -
|  1> #Run DFT-D3 single point of the dimer
|  2> ! wB97X-D3 def2-TZVP TIGHTSCF CHELPG PMODEL PAL8
|  3>
|  4> %base "12-114_DFT_AB"
|  5>
|  6> %scf
|  7> MaxIter 1000
|  8> end
|  9>
| 10> * xyz 0 1
| 11>   C                      0.458656             -0.930274            -4.011846
| 12>   O                      1.515919             -0.989407            -3.097757
| 13>   H                      2.343066             -1.128490            -3.561394
| 14>   H                      0.659038             -0.054227            -4.714166
| 15>   H                      0.496070             -1.799020            -4.676867
| 16>   H                      -0.554769            -0.926448            -3.628725
| 17>   C                      -0.339149            -4.423199            -5.326055
| 18>   O                      -0.038769            -3.807960            -6.553983
| 19>   H                      0.856931             -4.029601            -6.766577
| 20>   H                      -1.183695            -3.938080            -4.910688
| 21>   H                      -0.641640            -5.450036            -5.588658
| 22>   H                      0.493558             -4.491203            -4.588605
| 23> *
| 24>
| 25> #Run DFT-D3 single point of the molecule with dimer basis set
| 26> $new_job
| 27> %base "12-114_DFT_A"
| 28> ! wB97X-D3 def2-TZVP TIGHTSCF CHELPG PMODEL
| 29>
| 30> %scf
| 31> MaxIter 1000
| 32> end
| 33>
| 34> * xyz 0 1
| 35>   C                      0.458656             -0.930274            -4.011846
| 36>   O                      1.515919             -0.989407            -3.097757
| 37>   H                      2.343066             -1.128490            -3.561394
| 38>   H                      0.659038             -0.054227            -4.714166
| 39>   H                      0.496070             -1.799020            -4.676867
| 40>   H                      -0.554769            -0.926448            -3.628725
| 41>   C                    : -0.339149            -4.423199            -5.326055
| 42>   O                    : -0.038769            -3.807960            -6.553983
| 43>   H                    : 0.856931             -4.029601            -6.766577
| 44>   H                    : -1.183695            -3.938080            -4.910688
| 45>   H                    : -0.641640            -5.450036            -5.588658
| 46>   H                    : 0.493558             -4.491203            -4.588605
| 47> *
| 48>
| 49> #Run DFT-D3 single point of the particle with dimer basis set
| 50> $new_job
| 51> %base "12-114_DFT_B"
| 52> ! wB97X-D3 def2-TZVP TIGHTSCF CHELPG PMODEL
| 53>
| 54> %scf
| 55> MaxIter 1000
| 56> end
| 57>
| 58> * xyz 0 1
| 59>   C                    : 0.458656             -0.930274            -4.011846
| 60>   O                    : 1.515919             -0.989407            -3.097757
| 61>   H                    : 2.343066             -1.128490            -3.561394
| 62>   H                    : 0.659038             -0.054227            -4.714166
| 63>   H                    : 0.496070             -1.799020            -4.676867
| 64>   H                    : -0.554769            -0.926448            -3.628725
| 65>   C                      -0.339149            -4.423199            -5.326055
| 66>   O                      -0.038769            -3.807960            -6.553983
| 67>   H                      0.856931             -4.029601            -6.766577
| 68>   H                      -1.183695            -3.938080            -4.910688
| 69>   H                      -0.641640            -5.450036            -5.588658
| 70>   H                      0.493558             -4.491203            -4.588605
| 71> *
| 72>
| 73>                          ****END OF INPUT****
 Total Charge           Charge          ....    0
 Multiplicity           Mult            ....    1
 Number of Electrons    NEL             ....   36
Dispersion correction           -0.001701851
FINAL SINGLE POINT ENERGY      -231.466018905885
Dispersion correction           -0.000231921
FINAL SINGLE POINT ENERGY      -115.730539964787

CARTESIAN COORDINATES (ANGSTROEM)
---------------------------------
  C      0.458656   -0.930274   -4.011846
  O      1.515919   -0.989407   -3.097757
  H      2.343066   -1.128490   -3.561394
  H      0.659038   -0.054227   -4.714166
  H      0.496070   -1.799020   -4.676867
  H     -0.554769   -0.926448   -3.628725
  C     -0.339149   -4.423199   -5.326055
  O     -0.038769   -3.807960   -6.553983
  H      0.856931   -4.029601   -6.766577
  H     -1.183695   -3.938080   -4.910688
  H     -0.641640   -5.450036   -5.588658
  H      0.493558   -4.491203   -4.588605

 Multiplicity           Mult            ....    1
 Number of Electrons    NEL             ....   18
 Basis Dimension        Dim             ....  172

ORBITAL ENERGIES
----------------

  NO   OCC          E(Eh)            E(eV)
   0   2.0000     -19.228141      -523.2243
   1   2.0000     -10.311259      -280.5836
   2   2.0000      -1.141857       -31.0715
   3   2.0000      -0.796534       -21.6748
   4   2.0000      -0.613322       -16.6893
   5   2.0000      -0.541534       -14.7359
   6   2.0000      -0.529219       -14.4008
   7   2.0000      -0.440325       -11.9818
   8   2.0000      -0.369300       -10.0492
   9   0.0000       0.086922         2.3653
  10   0.0000       0.124816         3.3964
  11   0.0000       0.154124         4.1939
  12   0.0000       0.162073         4.4102
  13   0.0000       0.199568         5.4305

MULLIKEN ATOMIC CHARGES
-----------------------
   0 C :    0.000368
   1 O :    0.000061
   2 H :   -0.000016
   3 H :   -0.000158
   4 H :   -0.003473
   5 H :   -0.000394
   6 C :   -0.169262
   7 O :   -0.473297
   8 H :    0.312033
   9 H :    0.121180
  10 H :    0.107084
  11 H :    0.105873
Sum of atomic charges:    0.0000000

LOEWDIN ATOMIC CHARGES
----------------------
   0 C :   -0.003028
   1 O :   -0.000037
   2 H :   -0.000017
   3 H :   -0.000047
   4 H :   -0.006544
   5 H :   -0.000184
   6 C :   -0.387813
   7 O :   -0.062845
   8 H :    0.161126
   9 H :    0.100810
  10 H :    0.098899
  11 H :    0.099681

  Mayer bond orders larger than 0.1
B(  6-C ,  7-O ) :   0.9727 B(  6-C ,  9-H ) :   0.9793 B(  6-C , 10-H ) :   0.9817
B(  6-C , 11-H ) :   0.9758 B(  7-O ,  8-H ) :   0.9037

Dispersion correction           -0.000229591
FINAL SINGLE POINT ENERGY      -115.733985563218

DIPOLE MOMENT
-------------
                                X             Y             Z
Electronic contribution:      0.28189       0.94380      -1.50066
Nuclear contribution   :      0.16211      -1.32541       1.84071
                        -----------------------------------------
Total Dipole Moment    :      0.44400      -0.38161       0.34004
                        -----------------------------------------
Magnitude (a.u.)       :      0.67705
Magnitude (Debye)      :      1.72093

Rotational constants in cm-1:     4.291687     0.846501     0.813625
Rotational constants in MHz : 128661.536777 25377.460418 24391.874336

                             ****ORCA TERMINATED NORMALLY****
TOTAL RUN TIME: 0 days 0 hours 1 minutes 4 seconds 686 msec
