                         Program Version 4.1.2  - RELEASE  -
|  1> #Run DFT-D3 single point of the dimer
|  2> ! wB97X-D3 def2-TZVP TIGHTSCF CHELPG PMODEL PAL8
|  3>
|  4> %base "4-154_DFT_AB"
|  5>
|  6> %scf
|  7> MaxIter 1000
|  8> end
|  9>
| 10> * xyz 0 1
| 11>   C                      -6.028193            8.180333             -8.171106
| 12>   O                      -7.415356            8.188994             -8.329444
| 13>   H                      -7.623527            8.087600             -9.276900
| 14>   H                      -5.589405            7.195899             -8.463429
| 15>   H                      -5.616492            8.764085             -8.970565
| 16>   H                      -5.606030            8.585105             -7.252456
| 17>   C                      -3.931636            7.456160             -10.952322
| 18>   O                      -4.916667            6.551378             -10.608866
| 19>   H                      -4.560695            6.053864             -9.907272
| 20>   H                      -3.878751            8.180621             -10.228351
| 21>   H                      -2.970646            6.930433             -11.041460
| 22>   H                      -4.076316            8.054251             -11.893189
| 23> *
| 24>
| 25> #Run DFT-D3 single point of the molecule with dimer basis set
| 26> $new_job
| 27> %base "4-154_DFT_A"
| 28> ! wB97X-D3 def2-TZVP TIGHTSCF CHELPG PMODEL
| 29>
| 30> %scf
| 31> MaxIter 1000
| 32> end
| 33>
| 34> * xyz 0 1
| 35>   C                      -6.028193            8.180333             -8.171106
| 36>   O                      -7.415356            8.188994             -8.329444
| 37>   H                      -7.623527            8.087600             -9.276900
| 38>   H                      -5.589405            7.195899             -8.463429
| 39>   H                      -5.616492            8.764085             -8.970565
| 40>   H                      -5.606030            8.585105             -7.252456
| 41>   C                    : -3.931636            7.456160             -10.952322
| 42>   O                    : -4.916667            6.551378             -10.608866
| 43>   H                    : -4.560695            6.053864             -9.907272
| 44>   H                    : -3.878751            8.180621             -10.228351
| 45>   H                    : -2.970646            6.930433             -11.041460
| 46>   H                    : -4.076316            8.054251             -11.893189
| 47> *
| 48>
| 49> #Run DFT-D3 single point of the particle with dimer basis set
| 50> $new_job
| 51> %base "4-154_DFT_B"
| 52> ! wB97X-D3 def2-TZVP TIGHTSCF CHELPG PMODEL
| 53>
| 54> %scf
| 55> MaxIter 1000
| 56> end
| 57>
| 58> * xyz 0 1
| 59>   C                    : -6.028193            8.180333             -8.171106
| 60>   O                    : -7.415356            8.188994             -8.329444
| 61>   H                    : -7.623527            8.087600             -9.276900
| 62>   H                    : -5.589405            7.195899             -8.463429
| 63>   H                    : -5.616492            8.764085             -8.970565
| 64>   H                    : -5.606030            8.585105             -7.252456
| 65>   C                      -3.931636            7.456160             -10.952322
| 66>   O                      -4.916667            6.551378             -10.608866
| 67>   H                      -4.560695            6.053864             -9.907272
| 68>   H                      -3.878751            8.180621             -10.228351
| 69>   H                      -2.970646            6.930433             -11.041460
| 70>   H                      -4.076316            8.054251             -11.893189
| 71> *
| 72>
| 73>                          ****END OF INPUT****
 Total Charge           Charge          ....    0
 Multiplicity           Mult            ....    1
 Number of Electrons    NEL             ....   36
Dispersion correction           -0.002097710
FINAL SINGLE POINT ENERGY      -231.456238669522
Dispersion correction           -0.000225872
FINAL SINGLE POINT ENERGY      -115.727858586393

CARTESIAN COORDINATES (ANGSTROEM)
---------------------------------
  C     -6.028193    8.180333   -8.171106
  O     -7.415356    8.188994   -8.329444
  H     -7.623527    8.087600   -9.276900
  H     -5.589405    7.195899   -8.463429
  H     -5.616492    8.764085   -8.970565
  H     -5.606030    8.585105   -7.252456
  C     -3.931636    7.456160  -10.952322
  O     -4.916667    6.551378  -10.608866
  H     -4.560695    6.053864   -9.907272
  H     -3.878751    8.180621  -10.228351
  H     -2.970646    6.930433  -11.041460
  H     -4.076316    8.054251  -11.893189

 Multiplicity           Mult            ....    1
 Number of Electrons    NEL             ....   18
 Basis Dimension        Dim             ....  172

ORBITAL ENERGIES
----------------

  NO   OCC          E(Eh)            E(eV)
   0   2.0000     -19.228677      -523.2389
   1   2.0000     -10.307075      -280.4698
   2   2.0000      -1.155777       -31.4503
   3   2.0000      -0.799439       -21.7538
   4   2.0000      -0.620214       -16.8769
   5   2.0000      -0.556980       -15.1562
   6   2.0000      -0.534863       -14.5544
   7   2.0000      -0.429524       -11.6880
   8   2.0000      -0.374333       -10.1861
   9   0.0000       0.091149         2.4803
  10   0.0000       0.136062         3.7024
  11   0.0000       0.152632         4.1533
  12   0.0000       0.169874         4.6225
  13   0.0000       0.200941         5.4679

MULLIKEN ATOMIC CHARGES
-----------------------
   0 C :    0.022204
   1 O :   -0.000623
   2 H :   -0.002235
   3 H :   -0.031433
   4 H :   -0.000058
   5 H :   -0.000109
   6 C :   -0.168984
   7 O :   -0.454266
   8 H :    0.316293
   9 H :    0.104072
  10 H :    0.102793
  11 H :    0.112346
Sum of atomic charges:    0.0000000

LOEWDIN ATOMIC CHARGES
----------------------
   0 C :   -0.014765
   1 O :   -0.000220
   2 H :   -0.001350
   3 H :   -0.016464
   4 H :   -0.004906
   5 H :   -0.000130
   6 C :   -0.399415
   7 O :   -0.015357
   8 H :    0.159040
   9 H :    0.080594
  10 H :    0.097494
  11 H :    0.115479

  Mayer bond orders larger than 0.1
B(  6-C ,  7-O ) :   0.9980 B(  6-C ,  9-H ) :   0.9779 B(  6-C , 10-H ) :   0.9916
B(  6-C , 11-H ) :   0.9730 B(  7-O ,  8-H ) :   0.9013

Dispersion correction           -0.000207381
FINAL SINGLE POINT ENERGY      -115.728042441512

DIPOLE MOMENT
-------------
                                X             Y             Z
Electronic contribution:     -1.42532      -1.14695       0.34824
Nuclear contribution   :      2.03526       1.19238      -0.03528
                        -----------------------------------------
Total Dipole Moment    :      0.60994       0.04543       0.31297
                        -----------------------------------------
Magnitude (a.u.)       :      0.68705
Magnitude (Debye)      :      1.74635

Rotational constants in cm-1:     4.490757     0.867805     0.832948
Rotational constants in MHz : 134629.501637 26016.134108 24971.153526

                             ****ORCA TERMINATED NORMALLY****
TOTAL RUN TIME: 0 days 0 hours 1 minutes 35 seconds 142 msec
