                         Program Version 4.1.2  - RELEASE  -
|  1> #Run DFT-D3 single point of the dimer
|  2> ! wB97X-D3 def2-TZVP TIGHTSCF CHELPG PMODEL PAL8
|  3>
|  4> %base "10-1_DFT_AB"
|  5>
|  6> %scf
|  7> MaxIter 1000
|  8> end
|  9>
| 10> * xyz 0 1
| 11>   C                      -6.423069            5.566092             9.013381
| 12>   O                      -6.490406            6.939785             8.703720
| 13>   H                      -5.816488            7.100692             8.090013
| 14>   H                      -7.316964            5.205827             9.520099
| 15>   H                      -6.371598            4.942767             8.107187
| 16>   H                      -5.565183            5.306817             9.669080
| 17>   C                      -4.428457            9.457185             6.975211
| 18>   O                      -3.977799            8.276667             7.423609
| 19>   H                      -3.298247            8.485323             8.074216
| 20>   H                      -3.876182            10.238919            7.490986
| 21>   H                      -4.354874            9.603095             5.907255
| 22>   H                      -5.539428            9.552613             7.158782
| 23> *
| 24>
| 25> #Run DFT-D3 single point of the molecule with dimer basis set
| 26> $new_job
| 27> %base "10-1_DFT_A"
| 28> ! wB97X-D3 def2-TZVP TIGHTSCF CHELPG PMODEL
| 29>
| 30> %scf
| 31> MaxIter 1000
| 32> end
| 33>
| 34> * xyz 0 1
| 35>   C                      -6.423069            5.566092             9.013381
| 36>   O                      -6.490406            6.939785             8.703720
| 37>   H                      -5.816488            7.100692             8.090013
| 38>   H                      -7.316964            5.205827             9.520099
| 39>   H                      -6.371598            4.942767             8.107187
| 40>   H                      -5.565183            5.306817             9.669080
| 41>   C                    : -4.428457            9.457185             6.975211
| 42>   O                    : -3.977799            8.276667             7.423609
| 43>   H                    : -3.298247            8.485323             8.074216
| 44>   H                    : -3.876182            10.238919            7.490986
| 45>   H                    : -4.354874            9.603095             5.907255
| 46>   H                    : -5.539428            9.552613             7.158782
| 47> *
| 48>
| 49> #Run DFT-D3 single point of the particle with dimer basis set
| 50> $new_job
| 51> %base "10-1_DFT_B"
| 52> ! wB97X-D3 def2-TZVP TIGHTSCF CHELPG PMODEL
| 53>
| 54> %scf
| 55> MaxIter 1000
| 56> end
| 57>
| 58> * xyz 0 1
| 59>   C                    : -6.423069            5.566092             9.013381
| 60>   O                    : -6.490406            6.939785             8.703720
| 61>   H                    : -5.816488            7.100692             8.090013
| 62>   H                    : -7.316964            5.205827             9.520099
| 63>   H                    : -6.371598            4.942767             8.107187
| 64>   H                    : -5.565183            5.306817             9.669080
| 65>   C                      -4.428457            9.457185             6.975211
| 66>   O                      -3.977799            8.276667             7.423609
| 67>   H                      -3.298247            8.485323             8.074216
| 68>   H                      -3.876182            10.238919            7.490986
| 69>   H                      -4.354874            9.603095             5.907255
| 70>   H                      -5.539428            9.552613             7.158782
| 71> *
| 72>
| 73>                          ****END OF INPUT****
 Total Charge           Charge          ....    0
 Multiplicity           Mult            ....    1
 Number of Electrons    NEL             ....   36
Dispersion correction           -0.001561052
FINAL SINGLE POINT ENERGY      -231.469721875057
Dispersion correction           -0.000241908
FINAL SINGLE POINT ENERGY      -115.735237227055

CARTESIAN COORDINATES (ANGSTROEM)
---------------------------------
  C     -6.423069    5.566092    9.013381
  O     -6.490406    6.939785    8.703720
  H     -5.816488    7.100692    8.090013
  H     -7.316964    5.205827    9.520099
  H     -6.371598    4.942767    8.107187
  H     -5.565183    5.306817    9.669080
  C     -4.428457    9.457185    6.975211
  O     -3.977799    8.276667    7.423609
  H     -3.298247    8.485323    8.074216
  H     -3.876182   10.238919    7.490986
  H     -4.354874    9.603095    5.907255
  H     -5.539428    9.552613    7.158782

 Multiplicity           Mult            ....    1
 Number of Electrons    NEL             ....   18
 Basis Dimension        Dim             ....  172

ORBITAL ENERGIES
----------------

  NO   OCC          E(Eh)            E(eV)
   0   2.0000     -19.231702      -523.3212
   1   2.0000     -10.308164      -280.4994
   2   2.0000      -1.164058       -31.6756
   3   2.0000      -0.789432       -21.4815
   4   2.0000      -0.628534       -17.1033
   5   2.0000      -0.549526       -14.9534
   6   2.0000      -0.539845       -14.6899
   7   2.0000      -0.430526       -11.7152
   8   2.0000      -0.366250        -9.9662
   9   0.0000       0.095387         2.5956
  10   0.0000       0.115451         3.1416
  11   0.0000       0.155167         4.2223
  12   0.0000       0.181904         4.9499
  13   0.0000       0.206522         5.6197

MULLIKEN ATOMIC CHARGES
-----------------------
   0 C :   -0.001376
   1 O :   -0.002189
   2 H :    0.000280
   3 H :   -0.000089
   4 H :   -0.000080
   5 H :   -0.000181
   6 C :   -0.150964
   7 O :   -0.444644
   8 H :    0.320724
   9 H :    0.086374
  10 H :    0.100411
  11 H :    0.091735
Sum of atomic charges:    0.0000000

LOEWDIN ATOMIC CHARGES
----------------------
   0 C :   -0.001192
   1 O :   -0.002990
   2 H :   -0.018292
   3 H :   -0.000020
   4 H :   -0.000038
   5 H :   -0.000108
   6 C :   -0.444324
   7 O :   -0.004566
   8 H :    0.182482
   9 H :    0.094002
  10 H :    0.092951
  11 H :    0.102095

  Mayer bond orders larger than 0.1
B(  6-C ,  7-O ) :   1.0211 B(  6-C ,  9-H ) :   0.9976 B(  6-C , 10-H ) :   0.9715
B(  6-C , 11-H ) :   0.9803 B(  7-O ,  8-H ) :   0.8968

Dispersion correction           -0.000217365
FINAL SINGLE POINT ENERGY      -115.728261286755

DIPOLE MOMENT
-------------
                                X             Y             Z
Electronic contribution:      0.63231      -1.70323       0.50435
Nuclear contribution   :     -0.31234       2.24526      -0.23820
                        -----------------------------------------
Total Dipole Moment    :      0.31997       0.54203       0.26615
                        -----------------------------------------
Magnitude (a.u.)       :      0.68338
Magnitude (Debye)      :      1.73701

Rotational constants in cm-1:     4.274431     0.912588     0.867708
Rotational constants in MHz : 128144.229844 27358.687849 26013.233817

                             ****ORCA TERMINATED NORMALLY****
TOTAL RUN TIME: 0 days 0 hours 1 minutes 5 seconds 655 msec
