                         Program Version 4.1.2  - RELEASE  -
|  1> #Run DFT-D3 single point of the dimer
|  2> ! wB97X-D3 def2-TZVP TIGHTSCF CHELPG PMODEL PAL8
|  3>
|  4> %base "1-10_DFT_AB"
|  5>
|  6> %scf
|  7> MaxIter 1000
|  8> end
|  9>
| 10> * xyz 0 1
| 11>   C                      9.200212             -0.043180            -9.565434
| 12>   O                      9.554774             -1.096549            -10.437954
| 13>   H                      8.810074             -1.397216            -10.963282
| 14>   H                      8.999381             0.938435             -10.111305
| 15>   H                      8.186143             -0.271036            -9.063142
| 16>   H                      9.978247             0.232531             -8.802907
| 17>   C                      5.063099             -1.500940            -9.334182
| 18>   O                      4.808947             -0.973593            -8.100371
| 19>   H                      5.054176             -1.569019            -7.353234
| 20>   H                      6.141937             -1.618277            -9.421419
| 21>   H                      4.541301             -2.439187            -9.608588
| 22>   H                      4.776940             -0.855996            -10.258623
| 23> *
| 24>
| 25> #Run DFT-D3 single point of the molecule with dimer basis set
| 26> $new_job
| 27> %base "1-10_DFT_A"
| 28> ! wB97X-D3 def2-TZVP TIGHTSCF CHELPG PMODEL
| 29>
| 30> %scf
| 31> MaxIter 1000
| 32> end
| 33>
| 34> * xyz 0 1
| 35>   C                      9.200212             -0.043180            -9.565434
| 36>   O                      9.554774             -1.096549            -10.437954
| 37>   H                      8.810074             -1.397216            -10.963282
| 38>   H                      8.999381             0.938435             -10.111305
| 39>   H                      8.186143             -0.271036            -9.063142
| 40>   H                      9.978247             0.232531             -8.802907
| 41>   C                    : 5.063099             -1.500940            -9.334182
| 42>   O                    : 4.808947             -0.973593            -8.100371
| 43>   H                    : 5.054176             -1.569019            -7.353234
| 44>   H                    : 6.141937             -1.618277            -9.421419
| 45>   H                    : 4.541301             -2.439187            -9.608588
| 46>   H                    : 4.776940             -0.855996            -10.258623
| 47> *
| 48>
| 49> #Run DFT-D3 single point of the particle with dimer basis set
| 50> $new_job
| 51> %base "1-10_DFT_B"
| 52> ! wB97X-D3 def2-TZVP TIGHTSCF CHELPG PMODEL
| 53>
| 54> %scf
| 55> MaxIter 1000
| 56> end
| 57>
| 58> * xyz 0 1
| 59>   C                    : 9.200212             -0.043180            -9.565434
| 60>   O                    : 9.554774             -1.096549            -10.437954
| 61>   H                    : 8.810074             -1.397216            -10.963282
| 62>   H                    : 8.999381             0.938435             -10.111305
| 63>   H                    : 8.186143             -0.271036            -9.063142
| 64>   H                    : 9.978247             0.232531             -8.802907
| 65>   C                      5.063099             -1.500940            -9.334182
| 66>   O                      4.808947             -0.973593            -8.100371
| 67>   H                      5.054176             -1.569019            -7.353234
| 68>   H                      6.141937             -1.618277            -9.421419
| 69>   H                      4.541301             -2.439187            -9.608588
| 70>   H                      4.776940             -0.855996            -10.258623
| 71> *
| 72>
| 73>                          ****END OF INPUT****
 Total Charge           Charge          ....    0
 Multiplicity           Mult            ....    1
 Number of Electrons    NEL             ....   36
Dispersion correction           -0.001384743
FINAL SINGLE POINT ENERGY      -231.457530326931
Dispersion correction           -0.000274072
FINAL SINGLE POINT ENERGY      -115.730180678044

CARTESIAN COORDINATES (ANGSTROEM)
---------------------------------
  C      9.200212   -0.043180   -9.565434
  O      9.554774   -1.096549  -10.437954
  H      8.810074   -1.397216  -10.963282
  H      8.999381    0.938435  -10.111305
  H      8.186143   -0.271036   -9.063142
  H      9.978247    0.232531   -8.802907
  C      5.063099   -1.500940   -9.334182
  O      4.808947   -0.973593   -8.100371
  H      5.054176   -1.569019   -7.353234
  H      6.141937   -1.618277   -9.421419
  H      4.541301   -2.439187   -9.608588
  H      4.776940   -0.855996  -10.258623

 Multiplicity           Mult            ....    1
 Number of Electrons    NEL             ....   18
 Basis Dimension        Dim             ....  172

ORBITAL ENERGIES
----------------

  NO   OCC          E(Eh)            E(eV)
   0   2.0000     -19.233980      -523.3832
   1   2.0000     -10.316956      -280.7387
   2   2.0000      -1.145793       -31.1786
   3   2.0000      -0.789887       -21.4939
   4   2.0000      -0.618787       -16.8381
   5   2.0000      -0.550726       -14.9860
   6   2.0000      -0.527155       -14.3446
   7   2.0000      -0.411925       -11.2091
   8   2.0000      -0.372175       -10.1274
   9   0.0000       0.086484         2.3534
  10   0.0000       0.116399         3.1674
  11   0.0000       0.144525         3.9327
  12   0.0000       0.167024         4.5449
  13   0.0000       0.196589         5.3494

MULLIKEN ATOMIC CHARGES
-----------------------
   0 C :   -0.004392
   1 O :    0.000167
   2 H :   -0.000218
   3 H :    0.000143
   4 H :    0.006242
   5 H :    0.000118
   6 C :   -0.161794
   7 O :   -0.475925
   8 H :    0.327292
   9 H :    0.096053
  10 H :    0.100458
  11 H :    0.111854
Sum of atomic charges:    0.0000000

LOEWDIN ATOMIC CHARGES
----------------------
   0 C :   -0.001593
   1 O :   -0.000103
   2 H :   -0.000865
   3 H :   -0.000016
   4 H :   -0.002237
   5 H :   -0.000008
   6 C :   -0.439741
   7 O :   -0.052409
   8 H :    0.191017
   9 H :    0.092415
  10 H :    0.092873
  11 H :    0.120668

  Mayer bond orders larger than 0.1
B(  6-C ,  7-O ) :   1.0017 B(  6-C ,  9-H ) :   0.9873 B(  6-C , 10-H ) :   0.9741
B(  6-C , 11-H ) :   0.9651 B(  7-O ,  8-H ) :   0.8812

Dispersion correction           -0.000257958
FINAL SINGLE POINT ENERGY      -115.726436126941

DIPOLE MOMENT
-------------
                                X             Y             Z
Electronic contribution:     -0.43679       0.79573       1.76162
Nuclear contribution   :      0.68906      -1.37661      -1.73320
                        -----------------------------------------
Total Dipole Moment    :      0.25226      -0.58088       0.02842
                        -----------------------------------------
Magnitude (a.u.)       :      0.63393
Magnitude (Debye)      :      1.61133

Rotational constants in cm-1:     4.384949     0.846401     0.822475
Rotational constants in MHz : 131457.470964 25374.454461 24657.191649

                             ****ORCA TERMINATED NORMALLY****
TOTAL RUN TIME: 0 days 0 hours 4 minutes 15 seconds 176 msec
