                         Program Version 4.1.2  - RELEASE  -
|  1> #Run DFT-D3 single point of the dimer
|  2> ! wB97X-D3 def2-TZVP TIGHTSCF CHELPG PMODEL PAL8
|  3>
|  4> %base "15-108_DFT_AB"
|  5>
|  6> %scf
|  7> MaxIter 1000
|  8> end
|  9>
| 10> * xyz 0 1
| 11>   C                      3.793136             -2.119971            5.263232
| 12>   O                      4.220589             -3.495471            5.145390
| 13>   H                      3.619160             -3.900213            4.545235
| 14>   H                      3.588674             -1.651833            4.345481
| 15>   H                      2.919482             -2.042182            5.867256
| 16>   H                      4.566814             -1.552746            5.743861
| 17>   C                      0.670655             -3.364613            3.881287
| 18>   O                      1.611052             -4.392072            3.681750
| 19>   H                      1.133974             -5.221009            3.843205
| 20>   H                      1.203016             -2.432358            4.074149
| 21>   H                      -0.108688            -3.330389            3.112099
| 22>   H                      0.043285             -3.570151            4.731426
| 23> *
| 24>
| 25> #Run DFT-D3 single point of the molecule with dimer basis set
| 26> $new_job
| 27> %base "15-108_DFT_A"
| 28> ! wB97X-D3 def2-TZVP TIGHTSCF CHELPG PMODEL
| 29>
| 30> %scf
| 31> MaxIter 1000
| 32> end
| 33>
| 34> * xyz 0 1
| 35>   C                      3.793136             -2.119971            5.263232
| 36>   O                      4.220589             -3.495471            5.145390
| 37>   H                      3.619160             -3.900213            4.545235
| 38>   H                      3.588674             -1.651833            4.345481
| 39>   H                      2.919482             -2.042182            5.867256
| 40>   H                      4.566814             -1.552746            5.743861
| 41>   C                    : 0.670655             -3.364613            3.881287
| 42>   O                    : 1.611052             -4.392072            3.681750
| 43>   H                    : 1.133974             -5.221009            3.843205
| 44>   H                    : 1.203016             -2.432358            4.074149
| 45>   H                    : -0.108688            -3.330389            3.112099
| 46>   H                    : 0.043285             -3.570151            4.731426
| 47> *
| 48>
| 49> #Run DFT-D3 single point of the particle with dimer basis set
| 50> $new_job
| 51> %base "15-108_DFT_B"
| 52> ! wB97X-D3 def2-TZVP TIGHTSCF CHELPG PMODEL
| 53>
| 54> %scf
| 55> MaxIter 1000
| 56> end
| 57>
| 58> * xyz 0 1
| 59>   C                    : 3.793136             -2.119971            5.263232
| 60>   O                    : 4.220589             -3.495471            5.145390
| 61>   H                    : 3.619160             -3.900213            4.545235
| 62>   H                    : 3.588674             -1.651833            4.345481
| 63>   H                    : 2.919482             -2.042182            5.867256
| 64>   H                    : 4.566814             -1.552746            5.743861
| 65>   C                      0.670655             -3.364613            3.881287
| 66>   O                      1.611052             -4.392072            3.681750
| 67>   H                      1.133974             -5.221009            3.843205
| 68>   H                      1.203016             -2.432358            4.074149
| 69>   H                      -0.108688            -3.330389            3.112099
| 70>   H                      0.043285             -3.570151            4.731426
| 71> *
| 72>
| 73>                          ****END OF INPUT****
 Total Charge           Charge          ....    0
 Multiplicity           Mult            ....    1
 Number of Electrons    NEL             ....   36
Dispersion correction           -0.002145926
FINAL SINGLE POINT ENERGY      -231.473899370659
Dispersion correction           -0.000236627
FINAL SINGLE POINT ENERGY      -115.734314405475

CARTESIAN COORDINATES (ANGSTROEM)
---------------------------------
  C      3.793136   -2.119971    5.263232
  O      4.220589   -3.495471    5.145390
  H      3.619160   -3.900213    4.545235
  H      3.588674   -1.651833    4.345481
  H      2.919482   -2.042182    5.867256
  H      4.566814   -1.552746    5.743861
  C      0.670655   -3.364613    3.881287
  O      1.611052   -4.392072    3.681750
  H      1.133974   -5.221009    3.843205
  H      1.203016   -2.432358    4.074149
  H     -0.108688   -3.330389    3.112099
  H      0.043285   -3.570151    4.731426

 Multiplicity           Mult            ....    1
 Number of Electrons    NEL             ....   18
 Basis Dimension        Dim             ....  172

ORBITAL ENERGIES
----------------

  NO   OCC          E(Eh)            E(eV)
   0   2.0000     -19.232433      -523.3411
   1   2.0000     -10.310515      -280.5634
   2   2.0000      -1.138686       -30.9852
   3   2.0000      -0.795574       -21.6487
   4   2.0000      -0.619155       -16.8481
   5   2.0000      -0.539675       -14.6853
   6   2.0000      -0.523186       -14.2366
   7   2.0000      -0.442023       -12.0281
   8   2.0000      -0.370579       -10.0840
   9   0.0000       0.094592         2.5740
  10   0.0000       0.121787         3.3140
  11   0.0000       0.154858         4.2139
  12   0.0000       0.190133         5.1738
  13   0.0000       0.197829         5.3832

MULLIKEN ATOMIC CHARGES
-----------------------
   0 C :    0.006134
   1 O :   -0.001871
   2 H :   -0.007207
   3 H :   -0.001097
   4 H :   -0.001574
   5 H :    0.000215
   6 C :   -0.168184
   7 O :   -0.459859
   8 H :    0.312281
   9 H :    0.121460
  10 H :    0.098356
  11 H :    0.101348
Sum of atomic charges:   -0.0000000

LOEWDIN ATOMIC CHARGES
----------------------
   0 C :   -0.007108
   1 O :   -0.002772
   2 H :   -0.022814
   3 H :   -0.001566
   4 H :   -0.001794
   5 H :   -0.000024
   6 C :   -0.388303
   7 O :   -0.051524
   8 H :    0.176469
   9 H :    0.113180
  10 H :    0.094726
  11 H :    0.091531

  Mayer bond orders larger than 0.1
B(  6-C ,  7-O ) :   0.9944 B(  6-C ,  9-H ) :   0.9782 B(  6-C , 10-H ) :   0.9714
B(  6-C , 11-H ) :   0.9826 B(  7-O ,  8-H ) :   0.8983

Dispersion correction           -0.000225718
FINAL SINGLE POINT ENERGY      -115.732926814408

DIPOLE MOMENT
-------------
                                X             Y             Z
Electronic contribution:      1.41017      -1.15304      -0.35874
Nuclear contribution   :     -2.09204       1.01972       0.56563
                        -----------------------------------------
Total Dipole Moment    :     -0.68187      -0.13332       0.20689
                        -----------------------------------------
Magnitude (a.u.)       :      0.72493
Magnitude (Debye)      :      1.84262

Rotational constants in cm-1:     4.301921     0.847783     0.803917
Rotational constants in MHz : 128968.352535 25415.898153 24100.837411

                             ****ORCA TERMINATED NORMALLY****
TOTAL RUN TIME: 0 days 0 hours 1 minutes 0 seconds 409 msec
