                         Program Version 4.1.2  - RELEASE  -
|  1> #Run DFT-D3 single point of the dimer
|  2> ! wB97X-D3 def2-TZVP TIGHTSCF CHELPG PMODEL PAL8
|  3>
|  4> %base "11-88_DFT_AB"
|  5>
|  6> %scf
|  7> MaxIter 1000
|  8> end
|  9>
| 10> * xyz 0 1
| 11>   C                      10.085171            9.090846             -6.497490
| 12>   O                      9.870105             7.743981             -6.738684
| 13>   H                      9.596428             7.627402             -7.668537
| 14>   H                      10.240051            9.593562             -7.467117
| 15>   H                      9.364494             9.634166             -5.908815
| 16>   H                      11.032180            9.300689             -5.983905
| 17>   C                      10.128805            5.956775             -9.767449
| 18>   O                      9.371061             7.123447             -9.449911
| 19>   H                      8.536866             7.023984             -9.955294
| 20>   H                      9.497726             5.098683             -9.608329
| 21>   H                      10.500042            6.009298             -10.804009
| 22>   H                      10.994305            5.757026             -9.130638
| 23> *
| 24>
| 25> #Run DFT-D3 single point of the molecule with dimer basis set
| 26> $new_job
| 27> %base "11-88_DFT_A"
| 28> ! wB97X-D3 def2-TZVP TIGHTSCF CHELPG PMODEL
| 29>
| 30> %scf
| 31> MaxIter 1000
| 32> end
| 33>
| 34> * xyz 0 1
| 35>   C                      10.085171            9.090846             -6.497490
| 36>   O                      9.870105             7.743981             -6.738684
| 37>   H                      9.596428             7.627402             -7.668537
| 38>   H                      10.240051            9.593562             -7.467117
| 39>   H                      9.364494             9.634166             -5.908815
| 40>   H                      11.032180            9.300689             -5.983905
| 41>   C                    : 10.128805            5.956775             -9.767449
| 42>   O                    : 9.371061             7.123447             -9.449911
| 43>   H                    : 8.536866             7.023984             -9.955294
| 44>   H                    : 9.497726             5.098683             -9.608329
| 45>   H                    : 10.500042            6.009298             -10.804009
| 46>   H                    : 10.994305            5.757026             -9.130638
| 47> *
| 48>
| 49> #Run DFT-D3 single point of the particle with dimer basis set
| 50> $new_job
| 51> %base "11-88_DFT_B"
| 52> ! wB97X-D3 def2-TZVP TIGHTSCF CHELPG PMODEL
| 53>
| 54> %scf
| 55> MaxIter 1000
| 56> end
| 57>
| 58> * xyz 0 1
| 59>   C                    : 10.085171            9.090846             -6.497490
| 60>   O                    : 9.870105             7.743981             -6.738684
| 61>   H                    : 9.596428             7.627402             -7.668537
| 62>   H                    : 10.240051            9.593562             -7.467117
| 63>   H                    : 9.364494             9.634166             -5.908815
| 64>   H                    : 11.032180            9.300689             -5.983905
| 65>   C                      10.128805            5.956775             -9.767449
| 66>   O                      9.371061             7.123447             -9.449911
| 67>   H                      8.536866             7.023984             -9.955294
| 68>   H                      9.497726             5.098683             -9.608329
| 69>   H                      10.500042            6.009298             -10.804009
| 70>   H                      10.994305            5.757026             -9.130638
| 71> *
| 72>
| 73>                          ****END OF INPUT****
 Total Charge           Charge          ....    0
 Multiplicity           Mult            ....    1
 Number of Electrons    NEL             ....   36
Dispersion correction           -0.001695387
FINAL SINGLE POINT ENERGY      -231.475013507232
Dispersion correction           -0.000246814
FINAL SINGLE POINT ENERGY      -115.731404584706

CARTESIAN COORDINATES (ANGSTROEM)
---------------------------------
  C     10.085171    9.090846   -6.497490
  O      9.870105    7.743981   -6.738684
  H      9.596428    7.627402   -7.668537
  H     10.240051    9.593562   -7.467117
  H      9.364494    9.634166   -5.908815
  H     11.032180    9.300689   -5.983905
  C     10.128805    5.956775   -9.767449
  O      9.371061    7.123447   -9.449911
  H      8.536866    7.023984   -9.955294
  H      9.497726    5.098683   -9.608329
  H     10.500042    6.009298  -10.804009
  H     10.994305    5.757026   -9.130638

 Multiplicity           Mult            ....    1
 Number of Electrons    NEL             ....   18
 Basis Dimension        Dim             ....  172

ORBITAL ENERGIES
----------------

  NO   OCC          E(Eh)            E(eV)
   0   2.0000     -19.232802      -523.3512
   1   2.0000     -10.313260      -280.6381
   2   2.0000      -1.130783       -30.7702
   3   2.0000      -0.794254       -21.6128
   4   2.0000      -0.602612       -16.3979
   5   2.0000      -0.546750       -14.8778
   6   2.0000      -0.529616       -14.4116
   7   2.0000      -0.430965       -11.7271
   8   2.0000      -0.374756       -10.1976
   9   0.0000       0.100395         2.7319
  10   0.0000       0.121351         3.3021
  11   0.0000       0.150800         4.1035
  12   0.0000       0.191649         5.2150
  13   0.0000       0.202497         5.5102

MULLIKEN ATOMIC CHARGES
-----------------------
   0 C :    0.002162
   1 O :   -0.001376
   2 H :   -0.007596
   3 H :   -0.002808
   4 H :   -0.000075
   5 H :   -0.000121
   6 C :   -0.170895
   7 O :   -0.471350
   8 H :    0.316884
   9 H :    0.107244
  10 H :    0.105130
  11 H :    0.122802
Sum of atomic charges:   -0.0000000

LOEWDIN ATOMIC CHARGES
----------------------
   0 C :   -0.002179
   1 O :   -0.005633
   2 H :   -0.049118
   3 H :   -0.001212
   4 H :   -0.000016
   5 H :   -0.000018
   6 C :   -0.375972
   7 O :   -0.049701
   8 H :    0.182864
   9 H :    0.093573
  10 H :    0.098773
  11 H :    0.108641

  Mayer bond orders larger than 0.1
B(  6-C ,  7-O ) :   0.9807 B(  6-C ,  9-H ) :   0.9841 B(  6-C , 10-H ) :   0.9706
B(  6-C , 11-H ) :   0.9748 B(  7-O ,  8-H ) :   0.8944

Dispersion correction           -0.000233763
FINAL SINGLE POINT ENERGY      -115.733383132361

DIPOLE MOMENT
-------------
                                X             Y             Z
Electronic contribution:     -0.81079       1.57698       0.51634
Nuclear contribution   :      0.60582      -2.12671      -0.94385
                        -----------------------------------------
Total Dipole Moment    :     -0.20497      -0.54974      -0.42751
                        -----------------------------------------
Magnitude (a.u.)       :      0.72594
Magnitude (Debye)      :      1.84519

Rotational constants in cm-1:     4.300942     0.815834     0.792895
Rotational constants in MHz : 128938.983195 24458.081779 23770.396208

                             ****ORCA TERMINATED NORMALLY****
TOTAL RUN TIME: 0 days 0 hours 1 minutes 12 seconds 499 msec
