                         Program Version 4.1.2  - RELEASE  -
|  1> #Run DFT-D3 single point of the dimer
|  2> ! wB97X-D3 def2-TZVP TIGHTSCF CHELPG PMODEL PAL8
|  3>
|  4> %base "13-203_DFT_AB"
|  5>
|  6> %scf
|  7> MaxIter 1000
|  8> end
|  9>
| 10> * xyz 0 1
| 11>   C                      4.530417             2.251809             6.628512
| 12>   O                      4.137787             1.012880             7.225468
| 13>   H                      4.455139             0.294657             6.696131
| 14>   H                      5.637235             2.348464             6.717939
| 15>   H                      4.287020             2.341423             5.578256
| 16>   H                      4.010123             3.065728             7.176024
| 17>   C                      5.373942             -1.129285            4.694461
| 18>   O                      4.224974             -1.272723            5.530153
| 19>   H                      3.640740             -1.777807            4.982052
| 20>   H                      5.386971             -1.888202            3.956504
| 21>   H                      5.324224             -0.209936            4.139052
| 22>   H                      6.365160             -1.008160            5.245248
| 23> *
| 24>
| 25> #Run DFT-D3 single point of the molecule with dimer basis set
| 26> $new_job
| 27> %base "13-203_DFT_A"
| 28> ! wB97X-D3 def2-TZVP TIGHTSCF CHELPG PMODEL
| 29>
| 30> %scf
| 31> MaxIter 1000
| 32> end
| 33>
| 34> * xyz 0 1
| 35>   C                      4.530417             2.251809             6.628512
| 36>   O                      4.137787             1.012880             7.225468
| 37>   H                      4.455139             0.294657             6.696131
| 38>   H                      5.637235             2.348464             6.717939
| 39>   H                      4.287020             2.341423             5.578256
| 40>   H                      4.010123             3.065728             7.176024
| 41>   C                    : 5.373942             -1.129285            4.694461
| 42>   O                    : 4.224974             -1.272723            5.530153
| 43>   H                    : 3.640740             -1.777807            4.982052
| 44>   H                    : 5.386971             -1.888202            3.956504
| 45>   H                    : 5.324224             -0.209936            4.139052
| 46>   H                    : 6.365160             -1.008160            5.245248
| 47> *
| 48>
| 49> #Run DFT-D3 single point of the particle with dimer basis set
| 50> $new_job
| 51> %base "13-203_DFT_B"
| 52> ! wB97X-D3 def2-TZVP TIGHTSCF CHELPG PMODEL
| 53>
| 54> %scf
| 55> MaxIter 1000
| 56> end
| 57>
| 58> * xyz 0 1
| 59>   C                    : 4.530417             2.251809             6.628512
| 60>   O                    : 4.137787             1.012880             7.225468
| 61>   H                    : 4.455139             0.294657             6.696131
| 62>   H                    : 5.637235             2.348464             6.717939
| 63>   H                    : 4.287020             2.341423             5.578256
| 64>   H                    : 4.010123             3.065728             7.176024
| 65>   C                      5.373942             -1.129285            4.694461
| 66>   O                      4.224974             -1.272723            5.530153
| 67>   H                      3.640740             -1.777807            4.982052
| 68>   H                      5.386971             -1.888202            3.956504
| 69>   H                      5.324224             -0.209936            4.139052
| 70>   H                      6.365160             -1.008160            5.245248
| 71> *
| 72>
| 73>                          ****END OF INPUT****
 Total Charge           Charge          ....    0
 Multiplicity           Mult            ....    1
 Number of Electrons    NEL             ....   36
Dispersion correction           -0.001952047
FINAL SINGLE POINT ENERGY      -231.470043322744
Dispersion correction           -0.000247261
FINAL SINGLE POINT ENERGY      -115.736344031122

CARTESIAN COORDINATES (ANGSTROEM)
---------------------------------
  C      4.530417    2.251809    6.628512
  O      4.137787    1.012880    7.225468
  H      4.455139    0.294657    6.696131
  H      5.637235    2.348464    6.717939
  H      4.287020    2.341423    5.578256
  H      4.010123    3.065728    7.176024
  C      5.373942   -1.129285    4.694461
  O      4.224974   -1.272723    5.530153
  H      3.640740   -1.777807    4.982052
  H      5.386971   -1.888202    3.956504
  H      5.324224   -0.209936    4.139052
  H      6.365160   -1.008160    5.245248

 Multiplicity           Mult            ....    1
 Number of Electrons    NEL             ....   18
 Basis Dimension        Dim             ....  172

ORBITAL ENERGIES
----------------

  NO   OCC          E(Eh)            E(eV)
   0   2.0000     -19.232326      -523.3382
   1   2.0000     -10.314201      -280.6637
   2   2.0000      -1.139955       -31.0198
   3   2.0000      -0.797005       -21.6876
   4   2.0000      -0.614913       -16.7326
   5   2.0000      -0.538859       -14.6631
   6   2.0000      -0.524926       -14.2840
   7   2.0000      -0.445899       -12.1335
   8   2.0000      -0.372263       -10.1298
   9   0.0000       0.093864         2.5542
  10   0.0000       0.123692         3.3658
  11   0.0000       0.150965         4.1080
  12   0.0000       0.183674         4.9980
  13   0.0000       0.190942         5.1958

MULLIKEN ATOMIC CHARGES
-----------------------
   0 C :    0.000729
   1 O :    0.000071
   2 H :   -0.006073
   3 H :   -0.000353
   4 H :   -0.000508
   5 H :    0.000055
   6 C :   -0.186015
   7 O :   -0.457123
   8 H :    0.307825
   9 H :    0.113335
  10 H :    0.110077
  11 H :    0.117980
Sum of atomic charges:   -0.0000000

LOEWDIN ATOMIC CHARGES
----------------------
   0 C :   -0.001870
   1 O :   -0.006258
   2 H :   -0.033814
   3 H :   -0.000072
   4 H :   -0.000399
   5 H :   -0.000013
   6 C :   -0.374080
   7 O :   -0.046909
   8 H :    0.162665
   9 H :    0.090121
  10 H :    0.093317
  11 H :    0.117311

  Mayer bond orders larger than 0.1
B(  6-C ,  7-O ) :   0.9930 B(  6-C ,  9-H ) :   0.9812 B(  6-C , 10-H ) :   0.9756
B(  6-C , 11-H ) :   0.9764 B(  7-O ,  8-H ) :   0.9056

Dispersion correction           -0.000236431
FINAL SINGLE POINT ENERGY      -115.729495096625

DIPOLE MOMENT
-------------
                                X             Y             Z
Electronic contribution:     -1.42412      -0.22855       1.22768
Nuclear contribution   :      1.50616      -0.03308      -1.93265
                        -----------------------------------------
Total Dipole Moment    :      0.08204      -0.26163      -0.70496
                        -----------------------------------------
Magnitude (a.u.)       :      0.75641
Magnitude (Debye)      :      1.92264

Rotational constants in cm-1:     4.362981     0.826527     0.784460
Rotational constants in MHz : 130798.892738 24778.664760 23517.511379

                             ****ORCA TERMINATED NORMALLY****
TOTAL RUN TIME: 0 days 0 hours 1 minutes 1 seconds 522 msec
