                         Program Version 4.1.2  - RELEASE  -
|  1> #Run DFT-D3 single point of the dimer
|  2> ! wB97X-D3 def2-TZVP TIGHTSCF CHELPG PMODEL PAL8
|  3>
|  4> %base "21-116_DFT_AB"
|  5>
|  6> %scf
|  7> MaxIter 1000
|  8> end
|  9>
| 10> * xyz 0 1
| 11>   C                      11.122431            -6.628041            -1.890317
| 12>   O                      9.905243             -7.179315            -1.501402
| 13>   H                      10.068682            -7.746275            -0.749948
| 14>   H                      10.926274            -6.025471            -2.797524
| 15>   H                      11.515017            -5.906287            -1.184463
| 16>   H                      11.829085            -7.345357            -2.185761
| 17>   C                      10.945043            -9.349417            0.957887
| 18>   O                      11.539931            -9.408974            -0.392450
| 19>   H                      12.085055            -10.186081           -0.517375
| 20>   H                      11.705863            -9.675544            1.657389
| 21>   H                      10.583126            -8.329971            1.119522
| 22>   H                      10.167700            -9.991379            1.076542
| 23> *
| 24>
| 25> #Run DFT-D3 single point of the molecule with dimer basis set
| 26> $new_job
| 27> %base "21-116_DFT_A"
| 28> ! wB97X-D3 def2-TZVP TIGHTSCF CHELPG PMODEL
| 29>
| 30> %scf
| 31> MaxIter 1000
| 32> end
| 33>
| 34> * xyz 0 1
| 35>   C                      11.122431            -6.628041            -1.890317
| 36>   O                      9.905243             -7.179315            -1.501402
| 37>   H                      10.068682            -7.746275            -0.749948
| 38>   H                      10.926274            -6.025471            -2.797524
| 39>   H                      11.515017            -5.906287            -1.184463
| 40>   H                      11.829085            -7.345357            -2.185761
| 41>   C                    : 10.945043            -9.349417            0.957887
| 42>   O                    : 11.539931            -9.408974            -0.392450
| 43>   H                    : 12.085055            -10.186081           -0.517375
| 44>   H                    : 11.705863            -9.675544            1.657389
| 45>   H                    : 10.583126            -8.329971            1.119522
| 46>   H                    : 10.167700            -9.991379            1.076542
| 47> *
| 48>
| 49> #Run DFT-D3 single point of the particle with dimer basis set
| 50> $new_job
| 51> %base "21-116_DFT_B"
| 52> ! wB97X-D3 def2-TZVP TIGHTSCF CHELPG PMODEL
| 53>
| 54> %scf
| 55> MaxIter 1000
| 56> end
| 57>
| 58> * xyz 0 1
| 59>   C                    : 11.122431            -6.628041            -1.890317
| 60>   O                    : 9.905243             -7.179315            -1.501402
| 61>   H                    : 10.068682            -7.746275            -0.749948
| 62>   H                    : 10.926274            -6.025471            -2.797524
| 63>   H                    : 11.515017            -5.906287            -1.184463
| 64>   H                    : 11.829085            -7.345357            -2.185761
| 65>   C                      10.945043            -9.349417            0.957887
| 66>   O                      11.539931            -9.408974            -0.392450
| 67>   H                      12.085055            -10.186081           -0.517375
| 68>   H                      11.705863            -9.675544            1.657389
| 69>   H                      10.583126            -8.329971            1.119522
| 70>   H                      10.167700            -9.991379            1.076542
| 71> *
| 72>
| 73>                          ****END OF INPUT****
 Total Charge           Charge          ....    0
 Multiplicity           Mult            ....    1
 Number of Electrons    NEL             ....   36
Dispersion correction           -0.002102242
FINAL SINGLE POINT ENERGY      -231.465953562744
Dispersion correction           -0.000228908
FINAL SINGLE POINT ENERGY      -115.735183554681

CARTESIAN COORDINATES (ANGSTROEM)
---------------------------------
  C     11.122431   -6.628041   -1.890317
  O      9.905243   -7.179315   -1.501402
  H     10.068682   -7.746275   -0.749948
  H     10.926274   -6.025471   -2.797524
  H     11.515017   -5.906287   -1.184463
  H     11.829085   -7.345357   -2.185761
  C     10.945043   -9.349417    0.957887
  O     11.539931   -9.408974   -0.392450
  H     12.085055  -10.186081   -0.517375
  H     11.705863   -9.675544    1.657389
  H     10.583126   -8.329971    1.119522
  H     10.167700   -9.991379    1.076542

 Multiplicity           Mult            ....    1
 Number of Electrons    NEL             ....   18
 Basis Dimension        Dim             ....  172

ORBITAL ENERGIES
----------------

  NO   OCC          E(Eh)            E(eV)
   0   2.0000     -19.224635      -523.1289
   1   2.0000     -10.309830      -280.5447
   2   2.0000      -1.114191       -30.3187
   3   2.0000      -0.807302       -21.9678
   4   2.0000      -0.603803       -16.4303
   5   2.0000      -0.540802       -14.7160
   6   2.0000      -0.524828       -14.2813
   7   2.0000      -0.433132       -11.7861
   8   2.0000      -0.373761       -10.1705
   9   0.0000       0.099999         2.7211
  10   0.0000       0.128920         3.5081
  11   0.0000       0.150871         4.1054
  12   0.0000       0.187689         5.1073
  13   0.0000       0.201144         5.4734

MULLIKEN ATOMIC CHARGES
-----------------------
   0 C :    0.005326
   1 O :   -0.000710
   2 H :    0.002506
   3 H :   -0.000349
   4 H :   -0.000973
   5 H :   -0.008675
   6 C :   -0.167557
   7 O :   -0.493814
   8 H :    0.308479
   9 H :    0.114781
  10 H :    0.124757
  11 H :    0.116228
Sum of atomic charges:    0.0000000

LOEWDIN ATOMIC CHARGES
----------------------
   0 C :   -0.011621
   1 O :   -0.003477
   2 H :   -0.017182
   3 H :   -0.000088
   4 H :   -0.000258
   5 H :   -0.006390
   6 C :   -0.313813
   7 O :   -0.098044
   8 H :    0.157533
   9 H :    0.099423
  10 H :    0.115847
  11 H :    0.078070

  Mayer bond orders larger than 0.1
B(  6-C ,  7-O ) :   0.9845 B(  6-C ,  9-H ) :   0.9838 B(  6-C , 10-H ) :   0.9784
B(  6-C , 11-H ) :   0.9693 B(  7-O ,  8-H ) :   0.9002

Dispersion correction           -0.000252706
FINAL SINGLE POINT ENERGY      -115.728639052246

DIPOLE MOMENT
-------------
                                X             Y             Z
Electronic contribution:      0.55677       0.03319      -1.57225
Nuclear contribution   :     -0.48605      -0.53253       2.11412
                        -----------------------------------------
Total Dipole Moment    :      0.07071      -0.49934       0.54187
                        -----------------------------------------
Magnitude (a.u.)       :      0.74024
Magnitude (Debye)      :      1.88154

Rotational constants in cm-1:     4.473870     0.784927     0.748367
Rotational constants in MHz : 134123.260818 23531.518236 22435.482298

                             ****ORCA TERMINATED NORMALLY****
TOTAL RUN TIME: 0 days 0 hours 1 minutes 4 seconds 746 msec
