                         Program Version 4.1.2  - RELEASE  -
|  1> #Run DFT-D3 single point of the dimer
|  2> ! wB97X-D3 def2-TZVP TIGHTSCF CHELPG PMODEL PAL8
|  3>
|  4> %base "15-91_DFT_AB"
|  5>
|  6> %scf
|  7> MaxIter 1000
|  8> end
|  9>
| 10> * xyz 0 1
| 11>   C                      -9.298286            -3.963653            -8.912593
| 12>   O                      -9.166355            -4.048198            -10.336452
| 13>   H                      -8.265125            -4.216737            -10.593542
| 14>   H                      -8.442000            -3.655143            -8.442609
| 15>   H                      -10.045310           -3.234867            -8.637548
| 16>   H                      -9.578055            -4.961619            -8.479259
| 17>   C                      -8.573909            -2.077596            -4.345326
| 18>   O                      -9.735790            -2.214274            -3.613718
| 19>   H                      -9.935774            -3.090446            -3.276745
| 20>   H                      -8.233384            -1.011311            -4.283582
| 21>   H                      -7.841778            -2.740519            -3.977391
| 22>   H                      -8.738142            -2.353538            -5.386780
| 23> *
| 24>
| 25> #Run DFT-D3 single point of the molecule with dimer basis set
| 26> $new_job
| 27> %base "15-91_DFT_A"
| 28> ! wB97X-D3 def2-TZVP TIGHTSCF CHELPG PMODEL
| 29>
| 30> %scf
| 31> MaxIter 1000
| 32> end
| 33>
| 34> * xyz 0 1
| 35>   C                      -9.298286            -3.963653            -8.912593
| 36>   O                      -9.166355            -4.048198            -10.336452
| 37>   H                      -8.265125            -4.216737            -10.593542
| 38>   H                      -8.442000            -3.655143            -8.442609
| 39>   H                      -10.045310           -3.234867            -8.637548
| 40>   H                      -9.578055            -4.961619            -8.479259
| 41>   C                    : -8.573909            -2.077596            -4.345326
| 42>   O                    : -9.735790            -2.214274            -3.613718
| 43>   H                    : -9.935774            -3.090446            -3.276745
| 44>   H                    : -8.233384            -1.011311            -4.283582
| 45>   H                    : -7.841778            -2.740519            -3.977391
| 46>   H                    : -8.738142            -2.353538            -5.386780
| 47> *
| 48>
| 49> #Run DFT-D3 single point of the particle with dimer basis set
| 50> $new_job
| 51> %base "15-91_DFT_B"
| 52> ! wB97X-D3 def2-TZVP TIGHTSCF CHELPG PMODEL
| 53>
| 54> %scf
| 55> MaxIter 1000
| 56> end
| 57>
| 58> * xyz 0 1
| 59>   C                    : -9.298286            -3.963653            -8.912593
| 60>   O                    : -9.166355            -4.048198            -10.336452
| 61>   H                    : -8.265125            -4.216737            -10.593542
| 62>   H                    : -8.442000            -3.655143            -8.442609
| 63>   H                    : -10.045310           -3.234867            -8.637548
| 64>   H                    : -9.578055            -4.961619            -8.479259
| 65>   C                      -8.573909            -2.077596            -4.345326
| 66>   O                      -9.735790            -2.214274            -3.613718
| 67>   H                      -9.935774            -3.090446            -3.276745
| 68>   H                      -8.233384            -1.011311            -4.283582
| 69>   H                      -7.841778            -2.740519            -3.977391
| 70>   H                      -8.738142            -2.353538            -5.386780
| 71> *
| 72>
| 73>                          ****END OF INPUT****
 Total Charge           Charge          ....    0
 Multiplicity           Mult            ....    1
 Number of Electrons    NEL             ....   36
Dispersion correction           -0.000839746
FINAL SINGLE POINT ENERGY      -231.464216428759
Dispersion correction           -0.000255864
FINAL SINGLE POINT ENERGY      -115.731670863680

CARTESIAN COORDINATES (ANGSTROEM)
---------------------------------
  C     -9.298286   -3.963653   -8.912593
  O     -9.166355   -4.048198  -10.336452
  H     -8.265125   -4.216737  -10.593542
  H     -8.442000   -3.655143   -8.442609
  H    -10.045310   -3.234867   -8.637548
  H     -9.578055   -4.961619   -8.479259
  C     -8.573909   -2.077596   -4.345326
  O     -9.735790   -2.214274   -3.613718
  H     -9.935774   -3.090446   -3.276745
  H     -8.233384   -1.011311   -4.283582
  H     -7.841778   -2.740519   -3.977391
  H     -8.738142   -2.353538   -5.386780

 Multiplicity           Mult            ....    1
 Number of Electrons    NEL             ....   18
 Basis Dimension        Dim             ....  172

ORBITAL ENERGIES
----------------

  NO   OCC          E(Eh)            E(eV)
   0   2.0000     -19.223080      -523.0866
   1   2.0000     -10.308100      -280.4977
   2   2.0000      -1.139877       -31.0176
   3   2.0000      -0.797929       -21.7128
   4   2.0000      -0.620778       -16.8922
   5   2.0000      -0.543147       -14.7798
   6   2.0000      -0.533002       -14.5037
   7   2.0000      -0.421771       -11.4770
   8   2.0000      -0.367641       -10.0040
   9   0.0000       0.083406         2.2696
  10   0.0000       0.117073         3.1857
  11   0.0000       0.146769         3.9938
  12   0.0000       0.170103         4.6287
  13   0.0000       0.192252         5.2315

MULLIKEN ATOMIC CHARGES
-----------------------
   0 C :    0.000541
   1 O :    0.000003
   2 H :    0.000001
   3 H :   -0.000721
   4 H :   -0.000045
   5 H :   -0.000084
   6 C :   -0.136710
   7 O :   -0.493601
   8 H :    0.319538
   9 H :    0.114184
  10 H :    0.101501
  11 H :    0.095395
Sum of atomic charges:   -0.0000000

LOEWDIN ATOMIC CHARGES
----------------------
   0 C :   -0.000656
   1 O :   -0.000006
   2 H :   -0.000001
   3 H :   -0.000527
   4 H :   -0.000127
   5 H :   -0.000018
   6 C :   -0.401323
   7 O :   -0.058806
   8 H :    0.167740
   9 H :    0.114740
  10 H :    0.086356
  11 H :    0.092628

  Mayer bond orders larger than 0.1
B(  6-C ,  7-O ) :   0.9929 B(  6-C ,  9-H ) :   0.9697 B(  6-C , 10-H ) :   0.9867
B(  6-C , 11-H ) :   0.9761 B(  7-O ,  8-H ) :   0.8907

Dispersion correction           -0.000234068
FINAL SINGLE POINT ENERGY      -115.732306648664

DIPOLE MOMENT
-------------
                                X             Y             Z
Electronic contribution:     -1.45450      -0.07936       0.94324
Nuclear contribution   :      1.79684      -0.47066      -0.99103
                        -----------------------------------------
Total Dipole Moment    :      0.34233      -0.55001      -0.04778
                        -----------------------------------------
Magnitude (a.u.)       :      0.64961
Magnitude (Debye)      :      1.65117

Rotational constants in cm-1:     4.400527     0.862314     0.828557
Rotational constants in MHz : 131924.490664 25851.534361 24839.525352

                             ****ORCA TERMINATED NORMALLY****
TOTAL RUN TIME: 0 days 0 hours 0 minutes 43 seconds 353 msec
