                         Program Version 4.1.2  - RELEASE  -
|  1> #Run DFT geometry optimization
|  2> ! wB97X-D3 def2-TZVP TIGHTSCF Grid5 FinalGrid6 Opt CHELPG PAL4
|  3>
|  4> %base "1_geo_opt"
|  5> %geom MaxIter 500
|  6> end
|  7>
|  8> %geom
|  9>   Constraints
| 10>     { A 2 1 0 C }
| 11>   end
| 12> end
| 13>
| 14>
| 15> * xyz 0 1
| 16>   C                    3.010904             -1.184905            0.601330
| 17>   O                    4.394673             -1.128050            0.874308
| 18>   H                    4.775205             -0.379782            0.413733
| 19>   H                    2.806434             -1.318965            -0.469350
| 20>   H                    2.611632             -2.040265            1.135898
| 21>   H                    2.484757             -0.284491            0.945659
| 22> *
| 23>
| 24>                          ****END OF INPUT****
 Total Charge           Charge          ....    0
 Multiplicity           Mult            ....    1
 Number of Electrons    NEL             ....   18
Dispersion correction           -0.000239858
FINAL SINGLE POINT ENERGY      -115.738021271663
Dispersion correction            ... done
Dispersion correction           -0.000239857
FINAL SINGLE POINT ENERGY      -115.738044928044
Dispersion correction            ... done
Dispersion correction           -0.000240068
FINAL SINGLE POINT ENERGY      -115.738046862059
Dispersion correction            ... done
                    ***********************HURRAY********************

CARTESIAN COORDINATES (ANGSTROEM)
---------------------------------
  C      3.011099   -1.181563    0.598914
  O      4.393977   -1.128038    0.874072
  H      4.776898   -0.380426    0.414676
  H      2.805372   -1.319765   -0.468759
  H      2.612436   -2.041166    1.136765
  H      2.483823   -0.285501    0.945910

 Multiplicity           Mult            ....    1
 Number of Electrons    NEL             ....   18
 Basis Dimension        Dim             ....   86

ORBITAL ENERGIES
----------------

  NO   OCC          E(Eh)            E(eV)
   0   2.0000     -19.227924      -523.2184
   1   2.0000     -10.315090      -280.6879
   2   2.0000      -1.136719       -30.9317
   3   2.0000      -0.795516       -21.6471
   4   2.0000      -0.611778       -16.6473
   5   2.0000      -0.541689       -14.7401
   6   2.0000      -0.526492       -14.3266
   7   2.0000      -0.433308       -11.7909
   8   2.0000      -0.373523       -10.1641
   9   0.0000       0.116740         3.1767
  10   0.0000       0.156629         4.2621
  11   0.0000       0.202617         5.5135
  12   0.0000       0.205207         5.5840
  13   0.0000       0.226497         6.1633

MULLIKEN ATOMIC CHARGES
-----------------------
   0 C :   -0.149921
   1 O :   -0.478398
   2 H :    0.313145
   3 H :    0.098454
   4 H :    0.118261
   5 H :    0.098458
Sum of atomic charges:   -0.0000000

LOEWDIN ATOMIC CHARGES
----------------------
   0 C :   -0.385324
   1 O :   -0.075743
   2 H :    0.165582
   3 H :    0.093362
   4 H :    0.108762
   5 H :    0.093361

  Mayer bond orders larger than 0.1
B(  0-C ,  1-O ) :   0.9985 B(  0-C ,  3-H ) :   0.9755 B(  0-C ,  4-H ) :   0.9749
B(  0-C ,  5-H ) :   0.9755 B(  1-O ,  2-H ) :   0.8999

Dispersion correction           -0.000240176
FINAL SINGLE POINT ENERGY      -115.738047075926

DIPOLE MOMENT
-------------
                                X             Y             Z
Electronic contribution:      1.75495      -0.02603       0.41787
Nuclear contribution   :     -2.06119       0.47336      -0.81441
                        -----------------------------------------
Total Dipole Moment    :     -0.30625       0.44734      -0.39654
                        -----------------------------------------
Magnitude (a.u.)       :      0.67167
Magnitude (Debye)      :      1.70725

Rotational constants in cm-1:     4.297949     0.833819     0.805051
Rotational constants in MHz : 128849.276735 24997.278641 24134.813121

                             ****ORCA TERMINATED NORMALLY****
TOTAL RUN TIME: 0 days 0 hours 0 minutes 48 seconds 768 msec
