                         Program Version 4.1.2  - RELEASE  -
|  1> #Run DFT-D3 single point of the dimer
|  2> ! wB97X-D3 def2-TZVP TIGHTSCF CHELPG PMODEL PAL8
|  3>
|  4> %base "8-212_DFT_AB"
|  5>
|  6> %scf
|  7> MaxIter 1000
|  8> end
|  9>
| 10> * xyz 0 1
| 11>   C                      3.362927             11.157361            -3.972100
| 12>   O                      4.487657             10.281833            -3.992414
| 13>   H                      4.173519             9.428726             -4.311482
| 14>   H                      3.703825             12.269431            -3.982698
| 15>   H                      2.690348             11.042286            -4.867255
| 16>   H                      2.719439             11.027690            -3.065363
| 17>   C                      7.604302             9.430594             -4.653184
| 18>   O                      7.420304             9.981691             -3.343697
| 19>   H                      6.456757             10.199901            -3.331682
| 20>   H                      6.931500             8.548023             -4.760006
| 21>   H                      7.497435             10.232315            -5.420013
| 22>   H                      8.610127             9.069031             -4.734967
| 23> *
| 24>
| 25> #Run DFT-D3 single point of the molecule with dimer basis set
| 26> $new_job
| 27> %base "8-212_DFT_A"
| 28> ! wB97X-D3 def2-TZVP TIGHTSCF CHELPG PMODEL
| 29>
| 30> %scf
| 31> MaxIter 1000
| 32> end
| 33>
| 34> * xyz 0 1
| 35>   C                      3.362927             11.157361            -3.972100
| 36>   O                      4.487657             10.281833            -3.992414
| 37>   H                      4.173519             9.428726             -4.311482
| 38>   H                      3.703825             12.269431            -3.982698
| 39>   H                      2.690348             11.042286            -4.867255
| 40>   H                      2.719439             11.027690            -3.065363
| 41>   C                    : 7.604302             9.430594             -4.653184
| 42>   O                    : 7.420304             9.981691             -3.343697
| 43>   H                    : 6.456757             10.199901            -3.331682
| 44>   H                    : 6.931500             8.548023             -4.760006
| 45>   H                    : 7.497435             10.232315            -5.420013
| 46>   H                    : 8.610127             9.069031             -4.734967
| 47> *
| 48>
| 49> #Run DFT-D3 single point of the particle with dimer basis set
| 50> $new_job
| 51> %base "8-212_DFT_B"
| 52> ! wB97X-D3 def2-TZVP TIGHTSCF CHELPG PMODEL
| 53>
| 54> %scf
| 55> MaxIter 1000
| 56> end
| 57>
| 58> * xyz 0 1
| 59>   C                    : 3.362927             11.157361            -3.972100
| 60>   O                    : 4.487657             10.281833            -3.992414
| 61>   H                    : 4.173519             9.428726             -4.311482
| 62>   H                    : 3.703825             12.269431            -3.982698
| 63>   H                    : 2.690348             11.042286            -4.867255
| 64>   H                    : 2.719439             11.027690            -3.065363
| 65>   C                      7.604302             9.430594             -4.653184
| 66>   O                      7.420304             9.981691             -3.343697
| 67>   H                      6.456757             10.199901            -3.331682
| 68>   H                      6.931500             8.548023             -4.760006
| 69>   H                      7.497435             10.232315            -5.420013
| 70>   H                      8.610127             9.069031             -4.734967
| 71> *
| 72>
| 73>                          ****END OF INPUT****
 Total Charge           Charge          ....    0
 Multiplicity           Mult            ....    1
 Number of Electrons    NEL             ....   36
Dispersion correction           -0.001758421
FINAL SINGLE POINT ENERGY      -231.474528369868
Dispersion correction           -0.000272846
FINAL SINGLE POINT ENERGY      -115.733023379640

CARTESIAN COORDINATES (ANGSTROEM)
---------------------------------
  C      3.362927   11.157361   -3.972100
  O      4.487657   10.281833   -3.992414
  H      4.173519    9.428726   -4.311482
  H      3.703825   12.269431   -3.982698
  H      2.690348   11.042286   -4.867255
  H      2.719439   11.027690   -3.065363
  C      7.604302    9.430594   -4.653184
  O      7.420304    9.981691   -3.343697
  H      6.456757   10.199901   -3.331682
  H      6.931500    8.548023   -4.760006
  H      7.497435   10.232315   -5.420013
  H      8.610127    9.069031   -4.734967

 Multiplicity           Mult            ....    1
 Number of Electrons    NEL             ....   18
 Basis Dimension        Dim             ....  172

ORBITAL ENERGIES
----------------

  NO   OCC          E(Eh)            E(eV)
   0   2.0000     -19.232254      -523.3362
   1   2.0000     -10.316232      -280.7189
   2   2.0000      -1.127973       -30.6937
   3   2.0000      -0.789756       -21.4903
   4   2.0000      -0.596744       -16.2382
   5   2.0000      -0.547161       -14.8890
   6   2.0000      -0.524305       -14.2671
   7   2.0000      -0.434294       -11.8177
   8   2.0000      -0.374288       -10.1849
   9   0.0000       0.067927         1.8484
  10   0.0000       0.124612         3.3909
  11   0.0000       0.150261         4.0888
  12   0.0000       0.164810         4.4847
  13   0.0000       0.192189         5.2297

MULLIKEN ATOMIC CHARGES
-----------------------
   0 C :   -0.001412
   1 O :   -0.003328
   2 H :   -0.000074
   3 H :   -0.000053
   4 H :    0.000001
   5 H :    0.000054
   6 C :   -0.170278
   7 O :   -0.473510
   8 H :    0.315280
   9 H :    0.105179
  10 H :    0.104843
  11 H :    0.123298
Sum of atomic charges:   -0.0000000

LOEWDIN ATOMIC CHARGES
----------------------
   0 C :   -0.001421
   1 O :   -0.014814
   2 H :   -0.001533
   3 H :   -0.000089
   4 H :   -0.000032
   5 H :   -0.000029
   6 C :   -0.377794
   7 O :   -0.098698
   8 H :    0.189827
   9 H :    0.101607
  10 H :    0.100541
  11 H :    0.102435

  Mayer bond orders larger than 0.1
B(  6-C ,  7-O ) :   0.9907 B(  6-C ,  9-H ) :   0.9796 B(  6-C , 10-H ) :   0.9745
B(  6-C , 11-H ) :   0.9740 B(  7-O ,  8-H ) :   0.9063

Dispersion correction           -0.000230494
FINAL SINGLE POINT ENERGY      -115.733763910713

DIPOLE MOMENT
-------------
                                X             Y             Z
Electronic contribution:     -0.06617       0.66305       1.64109
Nuclear contribution   :     -0.41181      -0.76061      -2.14394
                        -----------------------------------------
Total Dipole Moment    :     -0.47799      -0.09756      -0.50285
                        -----------------------------------------
Magnitude (a.u.)       :      0.70060
Magnitude (Debye)      :      1.78079

Rotational constants in cm-1:     4.081935     0.818678     0.798327
Rotational constants in MHz : 122373.330032 24543.336943 23933.247879

                             ****ORCA TERMINATED NORMALLY****
TOTAL RUN TIME: 0 days 0 hours 0 minutes 46 seconds 456 msec
