                         Program Version 4.1.2  - RELEASE  -
|  1> #Run DFT-D3 single point of the dimer
|  2> ! wB97X-D3 def2-TZVP TIGHTSCF CHELPG PMODEL PAL8
|  3>
|  4> %base "7-132_DFT_AB"
|  5>
|  6> %scf
|  7> MaxIter 1000
|  8> end
|  9>
| 10> * xyz 0 1
| 11>   C                      6.456207             -9.635121            -3.002352
| 12>   O                      5.313552             -8.929165            -2.542253
| 13>   H                      4.539224             -9.296089            -2.995425
| 14>   H                      6.621316             -9.549502            -4.115482
| 15>   H                      7.368162             -9.420814            -2.398574
| 16>   H                      6.249894             -10.692458           -2.982951
| 17>   C                      1.775487             -5.850397            -1.722327
| 18>   O                      2.810676             -6.793449            -1.944086
| 19>   H                      2.419186             -7.565538            -2.296030
| 20>   H                      1.421974             -5.903203            -0.654926
| 21>   H                      2.131401             -4.852611            -1.820649
| 22>   H                      0.974114             -5.960712            -2.478591
| 23> *
| 24>
| 25> #Run DFT-D3 single point of the molecule with dimer basis set
| 26> $new_job
| 27> %base "7-132_DFT_A"
| 28> ! wB97X-D3 def2-TZVP TIGHTSCF CHELPG PMODEL
| 29>
| 30> %scf
| 31> MaxIter 1000
| 32> end
| 33>
| 34> * xyz 0 1
| 35>   C                      6.456207             -9.635121            -3.002352
| 36>   O                      5.313552             -8.929165            -2.542253
| 37>   H                      4.539224             -9.296089            -2.995425
| 38>   H                      6.621316             -9.549502            -4.115482
| 39>   H                      7.368162             -9.420814            -2.398574
| 40>   H                      6.249894             -10.692458           -2.982951
| 41>   C                    : 1.775487             -5.850397            -1.722327
| 42>   O                    : 2.810676             -6.793449            -1.944086
| 43>   H                    : 2.419186             -7.565538            -2.296030
| 44>   H                    : 1.421974             -5.903203            -0.654926
| 45>   H                    : 2.131401             -4.852611            -1.820649
| 46>   H                    : 0.974114             -5.960712            -2.478591
| 47> *
| 48>
| 49> #Run DFT-D3 single point of the particle with dimer basis set
| 50> $new_job
| 51> %base "7-132_DFT_B"
| 52> ! wB97X-D3 def2-TZVP TIGHTSCF CHELPG PMODEL
| 53>
| 54> %scf
| 55> MaxIter 1000
| 56> end
| 57>
| 58> * xyz 0 1
| 59>   C                    : 6.456207             -9.635121            -3.002352
| 60>   O                    : 5.313552             -8.929165            -2.542253
| 61>   H                    : 4.539224             -9.296089            -2.995425
| 62>   H                    : 6.621316             -9.549502            -4.115482
| 63>   H                    : 7.368162             -9.420814            -2.398574
| 64>   H                    : 6.249894             -10.692458           -2.982951
| 65>   C                      1.775487             -5.850397            -1.722327
| 66>   O                      2.810676             -6.793449            -1.944086
| 67>   H                      2.419186             -7.565538            -2.296030
| 68>   H                      1.421974             -5.903203            -0.654926
| 69>   H                      2.131401             -4.852611            -1.820649
| 70>   H                      0.974114             -5.960712            -2.478591
| 71> *
| 72>
| 73>                          ****END OF INPUT****
 Total Charge           Charge          ....    0
 Multiplicity           Mult            ....    1
 Number of Electrons    NEL             ....   36
Dispersion correction           -0.001068138
FINAL SINGLE POINT ENERGY      -231.461292802818
Dispersion correction           -0.000242611
FINAL SINGLE POINT ENERGY      -115.730747064554

CARTESIAN COORDINATES (ANGSTROEM)
---------------------------------
  C      6.456207   -9.635121   -3.002352
  O      5.313552   -8.929165   -2.542253
  H      4.539224   -9.296089   -2.995425
  H      6.621316   -9.549502   -4.115482
  H      7.368162   -9.420814   -2.398574
  H      6.249894  -10.692458   -2.982951
  C      1.775487   -5.850397   -1.722327
  O      2.810676   -6.793449   -1.944086
  H      2.419186   -7.565538   -2.296030
  H      1.421974   -5.903203   -0.654926
  H      2.131401   -4.852611   -1.820649
  H      0.974114   -5.960712   -2.478591

 Multiplicity           Mult            ....    1
 Number of Electrons    NEL             ....   18
 Basis Dimension        Dim             ....  172

ORBITAL ENERGIES
----------------

  NO   OCC          E(Eh)            E(eV)
   0   2.0000     -19.227786      -523.2147
   1   2.0000     -10.315359      -280.6952
   2   2.0000      -1.140401       -31.0319
   3   2.0000      -0.797825       -21.7099
   4   2.0000      -0.610440       -16.6109
   5   2.0000      -0.540520       -14.7083
   6   2.0000      -0.532544       -14.4913
   7   2.0000      -0.433372       -11.7927
   8   2.0000      -0.373932       -10.1752
   9   0.0000       0.089595         2.4380
  10   0.0000       0.117794         3.2053
  11   0.0000       0.148853         4.0505
  12   0.0000       0.189109         5.1459
  13   0.0000       0.196089         5.3359

MULLIKEN ATOMIC CHARGES
-----------------------
   0 C :    0.000013
   1 O :   -0.000595
   2 H :   -0.001073
   3 H :   -0.000012
   4 H :    0.000020
   5 H :   -0.000005
   6 C :   -0.168751
   7 O :   -0.468909
   8 H :    0.314472
   9 H :    0.100459
  10 H :    0.120415
  11 H :    0.103966
Sum of atomic charges:   -0.0000000

LOEWDIN ATOMIC CHARGES
----------------------
   0 C :   -0.000117
   1 O :   -0.001820
   2 H :   -0.001234
   3 H :   -0.000003
   4 H :   -0.000002
   5 H :   -0.000004
   6 C :   -0.381937
   7 O :   -0.068084
   8 H :    0.152932
   9 H :    0.102478
  10 H :    0.098131
  11 H :    0.099659

  Mayer bond orders larger than 0.1
B(  6-C ,  7-O ) :   1.0044 B(  6-C ,  9-H ) :   0.9753 B(  6-C , 10-H ) :   0.9755
B(  6-C , 11-H ) :   0.9818 B(  7-O ,  8-H ) :   0.9026

Dispersion correction           -0.000246357
FINAL SINGLE POINT ENERGY      -115.733559110824

DIPOLE MOMENT
-------------
                                X             Y             Z
Electronic contribution:      1.40453      -1.13481      -0.28214
Nuclear contribution   :     -2.05932       1.03840       0.11808
                        -----------------------------------------
Total Dipole Moment    :     -0.65478      -0.09641      -0.16406
                        -----------------------------------------
Magnitude (a.u.)       :      0.68187
Magnitude (Debye)      :      1.73319

Rotational constants in cm-1:     4.305668     0.826339     0.800509
Rotational constants in MHz : 129080.690900 24773.030683 23998.648252

                             ****ORCA TERMINATED NORMALLY****
TOTAL RUN TIME: 0 days 0 hours 1 minutes 0 seconds 964 msec
