                         Program Version 4.1.2  - RELEASE  -
|  1> #Run DFT-D3 single point of the dimer
|  2> ! wB97X-D3 def2-TZVP TIGHTSCF CHELPG PMODEL PAL8
|  3>
|  4> %base "2-16_DFT_AB"
|  5>
|  6> %scf
|  7> MaxIter 1000
|  8> end
|  9>
| 10> * xyz 0 1
| 11>   C                      3.632446             -6.994954            3.184119
| 12>   O                      4.407674             -7.329784            1.949356
| 13>   H                      4.084722             -6.757850            1.277197
| 14>   H                      3.654814             -7.907382            3.783212
| 15>   H                      4.085916             -6.202538            3.691906
| 16>   H                      2.536765             -6.837212            2.963092
| 17>   C                      5.969071             -3.405384            -0.265019
| 18>   O                      7.102068             -2.889357            -0.942927
| 19>   H                      7.118643             -1.956619            -0.879665
| 20>   H                      6.277044             -3.784139            0.691122
| 21>   H                      5.188285             -2.625284            -0.197412
| 22>   H                      5.445635             -4.273494            -0.690587
| 23> *
| 24>
| 25> #Run DFT-D3 single point of the molecule with dimer basis set
| 26> $new_job
| 27> %base "2-16_DFT_A"
| 28> ! wB97X-D3 def2-TZVP TIGHTSCF CHELPG PMODEL
| 29>
| 30> %scf
| 31> MaxIter 1000
| 32> end
| 33>
| 34> * xyz 0 1
| 35>   C                      3.632446             -6.994954            3.184119
| 36>   O                      4.407674             -7.329784            1.949356
| 37>   H                      4.084722             -6.757850            1.277197
| 38>   H                      3.654814             -7.907382            3.783212
| 39>   H                      4.085916             -6.202538            3.691906
| 40>   H                      2.536765             -6.837212            2.963092
| 41>   C                    : 5.969071             -3.405384            -0.265019
| 42>   O                    : 7.102068             -2.889357            -0.942927
| 43>   H                    : 7.118643             -1.956619            -0.879665
| 44>   H                    : 6.277044             -3.784139            0.691122
| 45>   H                    : 5.188285             -2.625284            -0.197412
| 46>   H                    : 5.445635             -4.273494            -0.690587
| 47> *
| 48>
| 49> #Run DFT-D3 single point of the particle with dimer basis set
| 50> $new_job
| 51> %base "2-16_DFT_B"
| 52> ! wB97X-D3 def2-TZVP TIGHTSCF CHELPG PMODEL
| 53>
| 54> %scf
| 55> MaxIter 1000
| 56> end
| 57>
| 58> * xyz 0 1
| 59>   C                    : 3.632446             -6.994954            3.184119
| 60>   O                    : 4.407674             -7.329784            1.949356
| 61>   H                    : 4.084722             -6.757850            1.277197
| 62>   H                    : 3.654814             -7.907382            3.783212
| 63>   H                    : 4.085916             -6.202538            3.691906
| 64>   H                    : 2.536765             -6.837212            2.963092
| 65>   C                      5.969071             -3.405384            -0.265019
| 66>   O                      7.102068             -2.889357            -0.942927
| 67>   H                      7.118643             -1.956619            -0.879665
| 68>   H                      6.277044             -3.784139            0.691122
| 69>   H                      5.188285             -2.625284            -0.197412
| 70>   H                      5.445635             -4.273494            -0.690587
| 71> *
| 72>
| 73>                          ****END OF INPUT****
 Total Charge           Charge          ....    0
 Multiplicity           Mult            ....    1
 Number of Electrons    NEL             ....   36
Dispersion correction           -0.000852723
FINAL SINGLE POINT ENERGY      -231.460810303138
Dispersion correction           -0.000266601
FINAL SINGLE POINT ENERGY      -115.730431657292

CARTESIAN COORDINATES (ANGSTROEM)
---------------------------------
  C      3.632446   -6.994954    3.184119
  O      4.407674   -7.329784    1.949356
  H      4.084722   -6.757850    1.277197
  H      3.654814   -7.907382    3.783212
  H      4.085916   -6.202538    3.691906
  H      2.536765   -6.837212    2.963092
  C      5.969071   -3.405384   -0.265019
  O      7.102068   -2.889357   -0.942927
  H      7.118643   -1.956619   -0.879665
  H      6.277044   -3.784139    0.691122
  H      5.188285   -2.625284   -0.197412
  H      5.445635   -4.273494   -0.690587

 Multiplicity           Mult            ....    1
 Number of Electrons    NEL             ....   18
 Basis Dimension        Dim             ....  172

ORBITAL ENERGIES
----------------

  NO   OCC          E(Eh)            E(eV)
   0   2.0000     -19.226957      -523.1921
   1   2.0000     -10.314580      -280.6740
   2   2.0000      -1.138648       -30.9842
   3   2.0000      -0.800573       -21.7847
   4   2.0000      -0.613348       -16.6900
   5   2.0000      -0.544236       -14.8094
   6   2.0000      -0.531279       -14.4568
   7   2.0000      -0.426852       -11.6152
   8   2.0000      -0.373382       -10.1602
   9   0.0000       0.082616         2.2481
  10   0.0000       0.116919         3.1815
  11   0.0000       0.137569         3.7434
  12   0.0000       0.180670         4.9163
  13   0.0000       0.190581         5.1860

MULLIKEN ATOMIC CHARGES
-----------------------
   0 C :    0.000035
   1 O :   -0.000002
   2 H :   -0.000055
   3 H :   -0.000001
   4 H :   -0.000044
   5 H :   -0.000002
   6 C :   -0.156578
   7 O :   -0.473524
   8 H :    0.314360
   9 H :    0.103416
  10 H :    0.100210
  11 H :    0.112185
Sum of atomic charges:    0.0000000

LOEWDIN ATOMIC CHARGES
----------------------
   0 C :   -0.000031
   1 O :   -0.000021
   2 H :   -0.000198
   3 H :   -0.000001
   4 H :   -0.000021
   5 H :   -0.000001
   6 C :   -0.380335
   7 O :   -0.069233
   8 H :    0.153053
   9 H :    0.092516
  10 H :    0.099430
  11 H :    0.104839

  Mayer bond orders larger than 0.1
B(  6-C ,  7-O ) :   1.0045 B(  6-C ,  9-H ) :   0.9812 B(  6-C , 10-H ) :   0.9875
B(  6-C , 11-H ) :   0.9709 B(  7-O ,  8-H ) :   0.9035

Dispersion correction           -0.000251834
FINAL SINGLE POINT ENERGY      -115.730419736292

DIPOLE MOMENT
-------------
                                X             Y             Z
Electronic contribution:      1.52903       0.55745      -0.94058
Nuclear contribution   :     -1.98892      -0.15820       1.25173
                        -----------------------------------------
Total Dipole Moment    :     -0.45989       0.39925       0.31115
                        -----------------------------------------
Magnitude (a.u.)       :      0.68390
Magnitude (Debye)      :      1.73833

Rotational constants in cm-1:     4.489803     0.820950     0.790213
Rotational constants in MHz : 134600.895300 24611.455645 23689.997719

                             ****ORCA TERMINATED NORMALLY****
TOTAL RUN TIME: 0 days 0 hours 6 minutes 23 seconds 806 msec
