                         Program Version 4.1.2  - RELEASE  -
|  1> #Run DFT-D3 single point of the dimer
|  2> ! wB97X-D3 def2-TZVP TIGHTSCF CHELPG PMODEL PAL8
|  3>
|  4> %base "15-36_DFT_AB"
|  5>
|  6> %scf
|  7> MaxIter 1000
|  8> end
|  9>
| 10> * xyz 0 1
| 11>   C                      -6.215711            8.702306             -1.753921
| 12>   O                      -6.204522            7.278721             -1.947713
| 13>   H                      -7.104918            7.064609             -2.073756
| 14>   H                      -5.527617            9.106006             -0.946702
| 15>   H                      -5.940116            9.260479             -2.642426
| 16>   H                      -7.167443            9.114555             -1.494518
| 17>   C                      -3.343531            6.125688             0.309255
| 18>   O                      -4.783303            6.347521             0.275186
| 19>   H                      -5.034317            7.018130             -0.422322
| 20>   H                      -2.895862            5.609519             -0.543921
| 21>   H                      -2.784280            7.100064             0.629029
| 22>   H                      -3.128050            5.492418             1.210818
| 23> *
| 24>
| 25> #Run DFT-D3 single point of the molecule with dimer basis set
| 26> $new_job
| 27> %base "15-36_DFT_A"
| 28> ! wB97X-D3 def2-TZVP TIGHTSCF CHELPG PMODEL
| 29>
| 30> %scf
| 31> MaxIter 1000
| 32> end
| 33>
| 34> * xyz 0 1
| 35>   C                      -6.215711            8.702306             -1.753921
| 36>   O                      -6.204522            7.278721             -1.947713
| 37>   H                      -7.104918            7.064609             -2.073756
| 38>   H                      -5.527617            9.106006             -0.946702
| 39>   H                      -5.940116            9.260479             -2.642426
| 40>   H                      -7.167443            9.114555             -1.494518
| 41>   C                    : -3.343531            6.125688             0.309255
| 42>   O                    : -4.783303            6.347521             0.275186
| 43>   H                    : -5.034317            7.018130             -0.422322
| 44>   H                    : -2.895862            5.609519             -0.543921
| 45>   H                    : -2.784280            7.100064             0.629029
| 46>   H                    : -3.128050            5.492418             1.210818
| 47> *
| 48>
| 49> #Run DFT-D3 single point of the particle with dimer basis set
| 50> $new_job
| 51> %base "15-36_DFT_B"
| 52> ! wB97X-D3 def2-TZVP TIGHTSCF CHELPG PMODEL
| 53>
| 54> %scf
| 55> MaxIter 1000
| 56> end
| 57>
| 58> * xyz 0 1
| 59>   C                    : -6.215711            8.702306             -1.753921
| 60>   O                    : -6.204522            7.278721             -1.947713
| 61>   H                    : -7.104918            7.064609             -2.073756
| 62>   H                    : -5.527617            9.106006             -0.946702
| 63>   H                    : -5.940116            9.260479             -2.642426
| 64>   H                    : -7.167443            9.114555             -1.494518
| 65>   C                      -3.343531            6.125688             0.309255
| 66>   O                      -4.783303            6.347521             0.275186
| 67>   H                      -5.034317            7.018130             -0.422322
| 68>   H                      -2.895862            5.609519             -0.543921
| 69>   H                      -2.784280            7.100064             0.629029
| 70>   H                      -3.128050            5.492418             1.210818
| 71> *
| 72>
| 73>                          ****END OF INPUT****
 Total Charge           Charge          ....    0
 Multiplicity           Mult            ....    1
 Number of Electrons    NEL             ....   36
Dispersion correction           -0.001730772
FINAL SINGLE POINT ENERGY      -231.461336392570
Dispersion correction           -0.000266581
FINAL SINGLE POINT ENERGY      -115.730249458632

CARTESIAN COORDINATES (ANGSTROEM)
---------------------------------
  C     -6.215711    8.702306   -1.753921
  O     -6.204522    7.278721   -1.947713
  H     -7.104918    7.064609   -2.073756
  H     -5.527617    9.106006   -0.946702
  H     -5.940116    9.260479   -2.642426
  H     -7.167443    9.114555   -1.494518
  C     -3.343531    6.125688    0.309255
  O     -4.783303    6.347521    0.275186
  H     -5.034317    7.018130   -0.422322
  H     -2.895862    5.609519   -0.543921
  H     -2.784280    7.100064    0.629029
  H     -3.128050    5.492418    1.210818

 Multiplicity           Mult            ....    1
 Number of Electrons    NEL             ....   18
 Basis Dimension        Dim             ....  172

ORBITAL ENERGIES
----------------

  NO   OCC          E(Eh)            E(eV)
   0   2.0000     -19.236733      -523.4581
   1   2.0000     -10.327758      -281.0326
   2   2.0000      -1.115792       -30.3622
   3   2.0000      -0.789917       -21.4947
   4   2.0000      -0.596414       -16.2293
   5   2.0000      -0.538539       -14.6544
   6   2.0000      -0.514042       -13.9878
   7   2.0000      -0.424027       -11.5384
   8   2.0000      -0.378020       -10.2865
   9   0.0000       0.070877         1.9287
  10   0.0000       0.131600         3.5810
  11   0.0000       0.148376         4.0375
  12   0.0000       0.162430         4.4200
  13   0.0000       0.187632         5.1057

MULLIKEN ATOMIC CHARGES
-----------------------
   0 C :    0.001045
   1 O :   -0.003908
   2 H :   -0.000902
   3 H :   -0.003393
   4 H :    0.000263
   5 H :   -0.000365
   6 C :   -0.180477
   7 O :   -0.476326
   8 H :    0.314787
   9 H :    0.118575
  10 H :    0.105370
  11 H :    0.125331
Sum of atomic charges:    0.0000000

LOEWDIN ATOMIC CHARGES
----------------------
   0 C :   -0.011747
   1 O :   -0.020527
   2 H :   -0.001411
   3 H :   -0.003705
   4 H :   -0.000124
   5 H :   -0.000197
   6 C :   -0.376006
   7 O :   -0.107441
   8 H :    0.201549
   9 H :    0.095168
  10 H :    0.109142
  11 H :    0.115300

  Mayer bond orders larger than 0.1
B(  6-C ,  7-O ) :   0.9995 B(  6-C ,  9-H ) :   0.9606 B(  6-C , 10-H ) :   0.9753
B(  6-C , 11-H ) :   0.9724 B(  7-O ,  8-H ) :   0.8971

Dispersion correction           -0.000306261
FINAL SINGLE POINT ENERGY      -115.727992287018

DIPOLE MOMENT
-------------
                                X             Y             Z
Electronic contribution:     -1.86103       0.12181      -0.15341
Nuclear contribution   :      2.30323       0.17398      -0.23429
                        -----------------------------------------
Total Dipole Moment    :      0.44220       0.29579      -0.38770
                        -----------------------------------------
Magnitude (a.u.)       :      0.65829
Magnitude (Debye)      :      1.67324

Rotational constants in cm-1:     4.119975     0.768204     0.753528
Rotational constants in MHz : 123513.749419 23030.170840 22590.200113

                             ****ORCA TERMINATED NORMALLY****
TOTAL RUN TIME: 0 days 0 hours 1 minutes 4 seconds 610 msec
