                         Program Version 4.1.2  - RELEASE  -
|  1> #Run DFT-D3 single point of the dimer
|  2> ! wB97X-D3 def2-TZVP TIGHTSCF CHELPG PMODEL PAL8
|  3>
|  4> %base "10-27_DFT_AB"
|  5>
|  6> %scf
|  7> MaxIter 1000
|  8> end
|  9>
| 10> * xyz 0 1
| 11>   C                      -0.107336            -6.761295            -6.715591
| 12>   O                      -0.840736            -7.925506            -6.762882
| 13>   H                      -0.625648            -8.537022            -6.098598
| 14>   H                      0.918834             -6.900276            -6.443235
| 15>   H                      -0.136207            -6.196261            -7.628469
| 16>   H                      -0.460480            -6.062073            -5.931819
| 17>   C                      -5.729797            -5.671993            -7.888468
| 18>   O                      -4.774896            -6.645310            -8.294019
| 19>   H                      -4.181447            -6.872125            -7.564931
| 20>   H                      -6.029496            -5.916102            -6.912379
| 21>   H                      -5.254209            -4.746069            -7.793093
| 22>   H                      -6.596670            -5.522676            -8.582093
| 23> *
| 24>
| 25> #Run DFT-D3 single point of the molecule with dimer basis set
| 26> $new_job
| 27> %base "10-27_DFT_A"
| 28> ! wB97X-D3 def2-TZVP TIGHTSCF CHELPG PMODEL
| 29>
| 30> %scf
| 31> MaxIter 1000
| 32> end
| 33>
| 34> * xyz 0 1
| 35>   C                      -0.107336            -6.761295            -6.715591
| 36>   O                      -0.840736            -7.925506            -6.762882
| 37>   H                      -0.625648            -8.537022            -6.098598
| 38>   H                      0.918834             -6.900276            -6.443235
| 39>   H                      -0.136207            -6.196261            -7.628469
| 40>   H                      -0.460480            -6.062073            -5.931819
| 41>   C                    : -5.729797            -5.671993            -7.888468
| 42>   O                    : -4.774896            -6.645310            -8.294019
| 43>   H                    : -4.181447            -6.872125            -7.564931
| 44>   H                    : -6.029496            -5.916102            -6.912379
| 45>   H                    : -5.254209            -4.746069            -7.793093
| 46>   H                    : -6.596670            -5.522676            -8.582093
| 47> *
| 48>
| 49> #Run DFT-D3 single point of the particle with dimer basis set
| 50> $new_job
| 51> %base "10-27_DFT_B"
| 52> ! wB97X-D3 def2-TZVP TIGHTSCF CHELPG PMODEL
| 53>
| 54> %scf
| 55> MaxIter 1000
| 56> end
| 57>
| 58> * xyz 0 1
| 59>   C                    : -0.107336            -6.761295            -6.715591
| 60>   O                    : -0.840736            -7.925506            -6.762882
| 61>   H                    : -0.625648            -8.537022            -6.098598
| 62>   H                    : 0.918834             -6.900276            -6.443235
| 63>   H                    : -0.136207            -6.196261            -7.628469
| 64>   H                    : -0.460480            -6.062073            -5.931819
| 65>   C                      -5.729797            -5.671993            -7.888468
| 66>   O                      -4.774896            -6.645310            -8.294019
| 67>   H                      -4.181447            -6.872125            -7.564931
| 68>   H                      -6.029496            -5.916102            -6.912379
| 69>   H                      -5.254209            -4.746069            -7.793093
| 70>   H                      -6.596670            -5.522676            -8.582093
| 71> *
| 72>
| 73>                          ****END OF INPUT****
 Total Charge           Charge          ....    0
 Multiplicity           Mult            ....    1
 Number of Electrons    NEL             ....   36
Dispersion correction           -0.000805010
FINAL SINGLE POINT ENERGY      -231.462970663491
Dispersion correction           -0.000241885
FINAL SINGLE POINT ENERGY      -115.732713813606

CARTESIAN COORDINATES (ANGSTROEM)
---------------------------------
  C     -0.107336   -6.761295   -6.715591
  O     -0.840736   -7.925506   -6.762882
  H     -0.625648   -8.537022   -6.098598
  H      0.918834   -6.900276   -6.443235
  H     -0.136207   -6.196261   -7.628469
  H     -0.460480   -6.062073   -5.931819
  C     -5.729797   -5.671993   -7.888468
  O     -4.774896   -6.645310   -8.294019
  H     -4.181447   -6.872125   -7.564931
  H     -6.029496   -5.916102   -6.912379
  H     -5.254209   -4.746069   -7.793093
  H     -6.596670   -5.522676   -8.582093

 Multiplicity           Mult            ....    1
 Number of Electrons    NEL             ....   18
 Basis Dimension        Dim             ....  172

ORBITAL ENERGIES
----------------

  NO   OCC          E(Eh)            E(eV)
   0   2.0000     -19.225453      -523.1512
   1   2.0000     -10.306635      -280.4578
   2   2.0000      -1.128651       -30.7122
   3   2.0000      -0.800992       -21.7961
   4   2.0000      -0.610761       -16.6197
   5   2.0000      -0.543575       -14.7914
   6   2.0000      -0.531055       -14.4507
   7   2.0000      -0.429651       -11.6914
   8   2.0000      -0.369318       -10.0496
   9   0.0000       0.076051         2.0695
  10   0.0000       0.118869         3.2346
  11   0.0000       0.151504         4.1226
  12   0.0000       0.163175         4.4402
  13   0.0000       0.197532         5.3751

MULLIKEN ATOMIC CHARGES
-----------------------
   0 C :   -0.000484
   1 O :    0.000067
   2 H :    0.000003
   3 H :   -0.000022
   4 H :    0.000010
   5 H :    0.000044
   6 C :   -0.150049
   7 O :   -0.489886
   8 H :    0.316613
   9 H :    0.099519
  10 H :    0.104985
  11 H :    0.119198
Sum of atomic charges:   -0.0000000

LOEWDIN ATOMIC CHARGES
----------------------
   0 C :   -0.000281
   1 O :   -0.000095
   2 H :   -0.000010
   3 H :   -0.000014
   4 H :   -0.000037
   5 H :   -0.000015
   6 C :   -0.366392
   7 O :   -0.092434
   8 H :    0.171570
   9 H :    0.086875
  10 H :    0.085221
  11 H :    0.115610

  Mayer bond orders larger than 0.1
B(  6-C ,  7-O ) :   0.9886 B(  6-C ,  9-H ) :   0.9913 B(  6-C , 10-H ) :   0.9800
B(  6-C , 11-H ) :   0.9689 B(  7-O ,  8-H ) :   0.8951

Dispersion correction           -0.000227297
FINAL SINGLE POINT ENERGY      -115.728938620456

DIPOLE MOMENT
-------------
                                X             Y             Z
Electronic contribution:      1.06276      -1.23616      -0.67309
Nuclear contribution   :     -1.07945       1.51412       1.33180
                        -----------------------------------------
Total Dipole Moment    :     -0.01669       0.27795       0.65870
                        -----------------------------------------
Magnitude (a.u.)       :      0.71514
Magnitude (Debye)      :      1.81774

Rotational constants in cm-1:     4.494733     0.828913     0.789565
Rotational constants in MHz : 134748.712713 24850.174738 23670.562927

                             ****ORCA TERMINATED NORMALLY****
TOTAL RUN TIME: 0 days 0 hours 1 minutes 2 seconds 869 msec
