                         Program Version 4.1.2  - RELEASE  -
|  1> #Run DFT-D3 single point of the dimer
|  2> ! wB97X-D3 def2-TZVP TIGHTSCF CHELPG PMODEL PAL8
|  3>
|  4> %base "7-98_DFT_AB"
|  5>
|  6> %scf
|  7> MaxIter 1000
|  8> end
|  9>
| 10> * xyz 0 1
| 11>   C                      9.977652             -2.198286            -7.359169
| 12>   O                      11.412398            -2.219645            -7.354476
| 13>   H                      11.773627            -1.911416            -6.524812
| 14>   H                      9.486885             -2.938841            -6.747138
| 15>   H                      9.553607             -1.262547            -7.091710
| 16>   H                      9.519030             -2.212074            -8.322583
| 17>   C                      10.233008            -4.649190            -10.372277
| 18>   O                      10.941963            -3.435754            -10.600690
| 19>   H                      11.854709            -3.727263            -10.911129
| 20>   H                      9.912699             -5.193979            -11.311931
| 21>   H                      10.827841            -5.308506            -9.770649
| 22>   H                      9.303941             -4.419266            -9.831335
| 23> *
| 24>
| 25> #Run DFT-D3 single point of the molecule with dimer basis set
| 26> $new_job
| 27> %base "7-98_DFT_A"
| 28> ! wB97X-D3 def2-TZVP TIGHTSCF CHELPG PMODEL
| 29>
| 30> %scf
| 31> MaxIter 1000
| 32> end
| 33>
| 34> * xyz 0 1
| 35>   C                      9.977652             -2.198286            -7.359169
| 36>   O                      11.412398            -2.219645            -7.354476
| 37>   H                      11.773627            -1.911416            -6.524812
| 38>   H                      9.486885             -2.938841            -6.747138
| 39>   H                      9.553607             -1.262547            -7.091710
| 40>   H                      9.519030             -2.212074            -8.322583
| 41>   C                    : 10.233008            -4.649190            -10.372277
| 42>   O                    : 10.941963            -3.435754            -10.600690
| 43>   H                    : 11.854709            -3.727263            -10.911129
| 44>   H                    : 9.912699             -5.193979            -11.311931
| 45>   H                    : 10.827841            -5.308506            -9.770649
| 46>   H                    : 9.303941             -4.419266            -9.831335
| 47> *
| 48>
| 49> #Run DFT-D3 single point of the particle with dimer basis set
| 50> $new_job
| 51> %base "7-98_DFT_B"
| 52> ! wB97X-D3 def2-TZVP TIGHTSCF CHELPG PMODEL
| 53>
| 54> %scf
| 55> MaxIter 1000
| 56> end
| 57>
| 58> * xyz 0 1
| 59>   C                    : 9.977652             -2.198286            -7.359169
| 60>   O                    : 11.412398            -2.219645            -7.354476
| 61>   H                    : 11.773627            -1.911416            -6.524812
| 62>   H                    : 9.486885             -2.938841            -6.747138
| 63>   H                    : 9.553607             -1.262547            -7.091710
| 64>   H                    : 9.519030             -2.212074            -8.322583
| 65>   C                      10.233008            -4.649190            -10.372277
| 66>   O                      10.941963            -3.435754            -10.600690
| 67>   H                      11.854709            -3.727263            -10.911129
| 68>   H                      9.912699             -5.193979            -11.311931
| 69>   H                      10.827841            -5.308506            -9.770649
| 70>   H                      9.303941             -4.419266            -9.831335
| 71> *
| 72>
| 73>                          ****END OF INPUT****
 Total Charge           Charge          ....    0
 Multiplicity           Mult            ....    1
 Number of Electrons    NEL             ....   36
Dispersion correction           -0.001790113
FINAL SINGLE POINT ENERGY      -231.461322777352
Dispersion correction           -0.000275830
FINAL SINGLE POINT ENERGY      -115.727597736144

CARTESIAN COORDINATES (ANGSTROEM)
---------------------------------
  C      9.977652   -2.198286   -7.359169
  O     11.412398   -2.219645   -7.354476
  H     11.773627   -1.911416   -6.524812
  H      9.486885   -2.938841   -6.747138
  H      9.553607   -1.262547   -7.091710
  H      9.519030   -2.212074   -8.322583
  C     10.233008   -4.649190  -10.372277
  O     10.941963   -3.435754  -10.600690
  H     11.854709   -3.727263  -10.911129
  H      9.912699   -5.193979  -11.311931
  H     10.827841   -5.308506   -9.770649
  H      9.303941   -4.419266   -9.831335

 Multiplicity           Mult            ....    1
 Number of Electrons    NEL             ....   18
 Basis Dimension        Dim             ....  172

ORBITAL ENERGIES
----------------

  NO   OCC          E(Eh)            E(eV)
   0   2.0000     -19.236850      -523.4613
   1   2.0000     -10.315983      -280.7122
   2   2.0000      -1.127810       -30.6893
   3   2.0000      -0.789378       -21.4801
   4   2.0000      -0.604226       -16.4418
   5   2.0000      -0.539494       -14.6804
   6   2.0000      -0.522955       -14.2303
   7   2.0000      -0.436833       -11.8868
   8   2.0000      -0.373823       -10.1722
   9   0.0000       0.091049         2.4776
  10   0.0000       0.115844         3.1523
  11   0.0000       0.149133         4.0581
  12   0.0000       0.168817         4.5938
  13   0.0000       0.200973         5.4688

MULLIKEN ATOMIC CHARGES
-----------------------
   0 C :    0.000494
   1 O :   -0.001162
   2 H :   -0.000054
   3 H :   -0.000357
   4 H :    0.000131
   5 H :   -0.001267
   6 C :   -0.175035
   7 O :   -0.470065
   8 H :    0.315320
   9 H :    0.101712
  10 H :    0.109211
  11 H :    0.121071
Sum of atomic charges:   -0.0000000

LOEWDIN ATOMIC CHARGES
----------------------
   0 C :   -0.004975
   1 O :   -0.001786
   2 H :   -0.000092
   3 H :   -0.000132
   4 H :   -0.000031
   5 H :   -0.002828
   6 C :   -0.389057
   7 O :   -0.097564
   8 H :    0.196129
   9 H :    0.100549
  10 H :    0.089900
  11 H :    0.109888

  Mayer bond orders larger than 0.1
B(  6-C ,  7-O ) :   0.9967 B(  6-C ,  9-H ) :   0.9656 B(  6-C , 10-H ) :   0.9823
B(  6-C , 11-H ) :   0.9759 B(  7-O ,  8-H ) :   0.8940

Dispersion correction           -0.000247314
FINAL SINGLE POINT ENERGY      -115.733666095529

DIPOLE MOMENT
-------------
                                X             Y             Z
Electronic contribution:      0.80785       1.65574      -0.23454
Nuclear contribution   :     -0.53044      -2.30755       0.15095
                        -----------------------------------------
Total Dipole Moment    :      0.27741      -0.65181      -0.08359
                        -----------------------------------------
Magnitude (a.u.)       :      0.71330
Magnitude (Debye)      :      1.81307

Rotational constants in cm-1:     4.153331     0.820940     0.789486
Rotational constants in MHz : 124513.732176 24611.170720 23668.201086

                             ****ORCA TERMINATED NORMALLY****
TOTAL RUN TIME: 0 days 0 hours 0 minutes 54 seconds 235 msec
