                         Program Version 4.1.2  - RELEASE  -
|  1> #Run DFT-D3 single point of the dimer
|  2> ! wB97X-D3 def2-TZVP TIGHTSCF CHELPG PMODEL PAL8
|  3>
|  4> %base "19-87_DFT_AB"
|  5>
|  6> %scf
|  7> MaxIter 1000
|  8> end
|  9>
| 10> * xyz 0 1
| 11>   C                      1.790265             3.458561             8.299905
| 12>   O                      0.760315             4.348827             7.951540
| 13>   H                      0.700689             4.320397             6.985783
| 14>   H                      2.747720             4.048782             8.453165
| 15>   H                      1.540345             2.807398             9.173545
| 16>   H                      2.017215             2.823354             7.489023
| 17>   C                      6.435617             6.801561             8.504808
| 18>   O                      5.582423             5.675321             8.583733
| 19>   H                      6.153218             4.870023             8.502210
| 20>   H                      6.244634             7.321155             7.549957
| 21>   H                      6.047535             7.462052             9.286655
| 22>   H                      7.490550             6.660002             8.846777
| 23> *
| 24>
| 25> #Run DFT-D3 single point of the molecule with dimer basis set
| 26> $new_job
| 27> %base "19-87_DFT_A"
| 28> ! wB97X-D3 def2-TZVP TIGHTSCF CHELPG PMODEL
| 29>
| 30> %scf
| 31> MaxIter 1000
| 32> end
| 33>
| 34> * xyz 0 1
| 35>   C                      1.790265             3.458561             8.299905
| 36>   O                      0.760315             4.348827             7.951540
| 37>   H                      0.700689             4.320397             6.985783
| 38>   H                      2.747720             4.048782             8.453165
| 39>   H                      1.540345             2.807398             9.173545
| 40>   H                      2.017215             2.823354             7.489023
| 41>   C                    : 6.435617             6.801561             8.504808
| 42>   O                    : 5.582423             5.675321             8.583733
| 43>   H                    : 6.153218             4.870023             8.502210
| 44>   H                    : 6.244634             7.321155             7.549957
| 45>   H                    : 6.047535             7.462052             9.286655
| 46>   H                    : 7.490550             6.660002             8.846777
| 47> *
| 48>
| 49> #Run DFT-D3 single point of the particle with dimer basis set
| 50> $new_job
| 51> %base "19-87_DFT_B"
| 52> ! wB97X-D3 def2-TZVP TIGHTSCF CHELPG PMODEL
| 53>
| 54> %scf
| 55> MaxIter 1000
| 56> end
| 57>
| 58> * xyz 0 1
| 59>   C                    : 1.790265             3.458561             8.299905
| 60>   O                    : 0.760315             4.348827             7.951540
| 61>   H                    : 0.700689             4.320397             6.985783
| 62>   H                    : 2.747720             4.048782             8.453165
| 63>   H                    : 1.540345             2.807398             9.173545
| 64>   H                    : 2.017215             2.823354             7.489023
| 65>   C                      6.435617             6.801561             8.504808
| 66>   O                      5.582423             5.675321             8.583733
| 67>   H                      6.153218             4.870023             8.502210
| 68>   H                      6.244634             7.321155             7.549957
| 69>   H                      6.047535             7.462052             9.286655
| 70>   H                      7.490550             6.660002             8.846777
| 71> *
| 72>
| 73>                          ****END OF INPUT****
 Total Charge           Charge          ....    0
 Multiplicity           Mult            ....    1
 Number of Electrons    NEL             ....   36
Dispersion correction           -0.000859678
FINAL SINGLE POINT ENERGY      -231.461242492829
Dispersion correction           -0.000237640
FINAL SINGLE POINT ENERGY      -115.731494186949

CARTESIAN COORDINATES (ANGSTROEM)
---------------------------------
  C      1.790265    3.458561    8.299905
  O      0.760315    4.348827    7.951540
  H      0.700689    4.320397    6.985783
  H      2.747720    4.048782    8.453165
  H      1.540345    2.807398    9.173545
  H      2.017215    2.823354    7.489023
  C      6.435617    6.801561    8.504808
  O      5.582423    5.675321    8.583733
  H      6.153218    4.870023    8.502210
  H      6.244634    7.321155    7.549957
  H      6.047535    7.462052    9.286655
  H      7.490550    6.660002    8.846777

 Multiplicity           Mult            ....    1
 Number of Electrons    NEL             ....   18
 Basis Dimension        Dim             ....  172

ORBITAL ENERGIES
----------------

  NO   OCC          E(Eh)            E(eV)
   0   2.0000     -19.232168      -523.3339
   1   2.0000     -10.314825      -280.6806
   2   2.0000      -1.130683       -30.7674
   3   2.0000      -0.790188       -21.5021
   4   2.0000      -0.605176       -16.4677
   5   2.0000      -0.544929       -14.8283
   6   2.0000      -0.517561       -14.0836
   7   2.0000      -0.433006       -11.7827
   8   2.0000      -0.370318       -10.0769
   9   0.0000       0.095342         2.5944
  10   0.0000       0.113308         3.0833
  11   0.0000       0.152202         4.1416
  12   0.0000       0.175481         4.7751
  13   0.0000       0.188579         5.1315

MULLIKEN ATOMIC CHARGES
-----------------------
   0 C :    0.001201
   1 O :    0.000014
   2 H :   -0.000000
   3 H :   -0.004336
   4 H :   -0.000039
   5 H :   -0.000016
   6 C :   -0.184116
   7 O :   -0.468313
   8 H :    0.315564
   9 H :    0.112596
  10 H :    0.115932
  11 H :    0.111515
Sum of atomic charges:   -0.0000000

LOEWDIN ATOMIC CHARGES
----------------------
   0 C :   -0.000411
   1 O :   -0.000010
   2 H :   -0.000000
   3 H :   -0.002392
   4 H :   -0.000003
   5 H :   -0.000005
   6 C :   -0.400335
   7 O :   -0.092956
   8 H :    0.185348
   9 H :    0.101886
  10 H :    0.105894
  11 H :    0.102985

  Mayer bond orders larger than 0.1
B(  6-C ,  7-O ) :   0.9984 B(  6-C ,  9-H ) :   0.9754 B(  6-C , 10-H ) :   0.9802
B(  6-C , 11-H ) :   0.9686 B(  7-O ,  8-H ) :   0.8968

Dispersion correction           -0.000257910
FINAL SINGLE POINT ENERGY      -115.729281396091

DIPOLE MOMENT
-------------
                                X             Y             Z
Electronic contribution:     -1.05914      -1.43063      -0.02891
Nuclear contribution   :      1.75095       1.37002      -0.01094
                        -----------------------------------------
Total Dipole Moment    :      0.69182      -0.06061      -0.03985
                        -----------------------------------------
Magnitude (a.u.)       :      0.69561
Magnitude (Debye)      :      1.76810

Rotational constants in cm-1:     4.138217     0.832130     0.800804
Rotational constants in MHz : 124060.621074 24946.637378 24007.512429

                             ****ORCA TERMINATED NORMALLY****
TOTAL RUN TIME: 0 days 0 hours 0 minutes 51 seconds 923 msec
