                         Program Version 4.1.2  - RELEASE  -
|  1> #Run DFT geometry optimization
|  2> ! wB97X-D3 def2-TZVP TIGHTSCF Grid5 FinalGrid6 Opt CHELPG PAL4
|  3>
|  4> %base "7_geo_opt"
|  5> %geom MaxIter 500
|  6> end
|  7>
|  8> %geom
|  9>   Constraints
| 10>     { B 0 1 C }
| 11>   end
| 12> end
| 13>
| 14>
| 15> * xyz 0 1
| 16>   C                    3.011504             -1.180890            0.598531
| 17>   O                    4.394477             -1.128058            0.874268
| 18>   H                    4.772000             -0.379029            0.412454
| 19>   H                    2.806630             -1.318957            -0.469311
| 20>   H                    2.611828             -2.040257            1.135937
| 21>   H                    2.484953             -0.284484            0.945698
| 22> *
| 23>
| 24>                          ****END OF INPUT****
 Total Charge           Charge          ....    0
 Multiplicity           Mult            ....    1
 Number of Electrons    NEL             ....   18
Dispersion correction           -0.000239073
FINAL SINGLE POINT ENERGY      -115.738051257836
Dispersion correction            ... done
                    ***********************HURRAY********************

CARTESIAN COORDINATES (ANGSTROEM)
---------------------------------
  C      3.011567   -1.180923    0.598566
  O      4.394551   -1.128006    0.874232
  H      4.772106   -0.378984    0.412464
  H      2.806567   -1.318982   -0.469277
  H      2.611691   -2.040247    1.135904
  H      2.484911   -0.284533    0.945688

 Multiplicity           Mult            ....    1
 Number of Electrons    NEL             ....   18
 Basis Dimension        Dim             ....   86

ORBITAL ENERGIES
----------------

  NO   OCC          E(Eh)            E(eV)
   0   2.0000     -19.228084      -523.2228
   1   2.0000     -10.315081      -280.6876
   2   2.0000      -1.136925       -30.9373
   3   2.0000      -0.795331       -21.6421
   4   2.0000      -0.611669       -16.6444
   5   2.0000      -0.541802       -14.7432
   6   2.0000      -0.526388       -14.3237
   7   2.0000      -0.433756       -11.8031
   8   2.0000      -0.373587       -10.1658
   9   0.0000       0.116644         3.1740
  10   0.0000       0.156697         4.2639
  11   0.0000       0.202589         5.5127
  12   0.0000       0.205127         5.5818
  13   0.0000       0.226409         6.1609

MULLIKEN ATOMIC CHARGES
-----------------------
   0 C :   -0.150769
   1 O :   -0.477577
   2 H :    0.313034
   3 H :    0.098561
   4 H :    0.118186
   5 H :    0.098565
Sum of atomic charges:    0.0000000

LOEWDIN ATOMIC CHARGES
----------------------
   0 C :   -0.385471
   1 O :   -0.075800
   2 H :    0.165820
   3 H :    0.093382
   4 H :    0.108687
   5 H :    0.093381

  Mayer bond orders larger than 0.1
B(  0-C ,  1-O ) :   0.9987 B(  0-C ,  3-H ) :   0.9755 B(  0-C ,  4-H ) :   0.9749
B(  0-C ,  5-H ) :   0.9755 B(  1-O ,  2-H ) :   0.9002

Dispersion correction           -0.000239134
FINAL SINGLE POINT ENERGY      -115.738051297633

DIPOLE MOMENT
-------------
                                X             Y             Z
Electronic contribution:      1.75634      -0.02818       0.41983
Nuclear contribution   :     -2.06559       0.47577      -0.81735
                        -----------------------------------------
Total Dipole Moment    :     -0.30926       0.44759      -0.39751
                        -----------------------------------------
Magnitude (a.u.)       :      0.67379
Magnitude (Debye)      :      1.71263

Rotational constants in cm-1:     4.293167     0.834151     0.805241
Rotational constants in MHz : 128705.920351 25007.203494 24140.524096

                             ****ORCA TERMINATED NORMALLY****
TOTAL RUN TIME: 0 days 0 hours 0 minutes 37 seconds 323 msec
