                         Program Version 4.1.2  - RELEASE  -
|  1> #Run DFT-D3 single point of the dimer
|  2> ! wB97X-D3 def2-TZVP TIGHTSCF CHELPG PMODEL PAL8
|  3>
|  4> %base "3-154_DFT_AB"
|  5>
|  6> %scf
|  7> MaxIter 1000
|  8> end
|  9>
| 10> * xyz 0 1
| 11>   C                      6.369187             -9.904875            -6.703849
| 12>   O                      6.245421             -9.413843            -5.411142
| 13>   H                      6.942337             -9.718965            -4.856947
| 14>   H                      5.664437             -9.421000            -7.422368
| 15>   H                      7.396688             -9.835106            -7.022802
| 16>   H                      6.137889             -10.954571           -6.839164
| 17>   C                      3.701319             -8.455646            -1.650687
| 18>   O                      4.508554             -9.094399            -2.651325
| 19>   H                      3.930834             -9.541129            -3.264870
| 20>   H                      4.285431             -7.669530            -1.134513
| 21>   H                      2.769512             -7.919549            -2.075823
| 22>   H                      3.355722             -9.139694            -0.883058
| 23> *
| 24>
| 25> #Run DFT-D3 single point of the molecule with dimer basis set
| 26> $new_job
| 27> %base "3-154_DFT_A"
| 28> ! wB97X-D3 def2-TZVP TIGHTSCF CHELPG PMODEL
| 29>
| 30> %scf
| 31> MaxIter 1000
| 32> end
| 33>
| 34> * xyz 0 1
| 35>   C                      6.369187             -9.904875            -6.703849
| 36>   O                      6.245421             -9.413843            -5.411142
| 37>   H                      6.942337             -9.718965            -4.856947
| 38>   H                      5.664437             -9.421000            -7.422368
| 39>   H                      7.396688             -9.835106            -7.022802
| 40>   H                      6.137889             -10.954571           -6.839164
| 41>   C                    : 3.701319             -8.455646            -1.650687
| 42>   O                    : 4.508554             -9.094399            -2.651325
| 43>   H                    : 3.930834             -9.541129            -3.264870
| 44>   H                    : 4.285431             -7.669530            -1.134513
| 45>   H                    : 2.769512             -7.919549            -2.075823
| 46>   H                    : 3.355722             -9.139694            -0.883058
| 47> *
| 48>
| 49> #Run DFT-D3 single point of the particle with dimer basis set
| 50> $new_job
| 51> %base "3-154_DFT_B"
| 52> ! wB97X-D3 def2-TZVP TIGHTSCF CHELPG PMODEL
| 53>
| 54> %scf
| 55> MaxIter 1000
| 56> end
| 57>
| 58> * xyz 0 1
| 59>   C                    : 6.369187             -9.904875            -6.703849
| 60>   O                    : 6.245421             -9.413843            -5.411142
| 61>   H                    : 6.942337             -9.718965            -4.856947
| 62>   H                    : 5.664437             -9.421000            -7.422368
| 63>   H                    : 7.396688             -9.835106            -7.022802
| 64>   H                    : 6.137889             -10.954571           -6.839164
| 65>   C                      3.701319             -8.455646            -1.650687
| 66>   O                      4.508554             -9.094399            -2.651325
| 67>   H                      3.930834             -9.541129            -3.264870
| 68>   H                      4.285431             -7.669530            -1.134513
| 69>   H                      2.769512             -7.919549            -2.075823
| 70>   H                      3.355722             -9.139694            -0.883058
| 71> *
| 72>
| 73>                          ****END OF INPUT****
 Total Charge           Charge          ....    0
 Multiplicity           Mult            ....    1
 Number of Electrons    NEL             ....   36
Dispersion correction           -0.001122500
FINAL SINGLE POINT ENERGY      -231.467554010528
Dispersion correction           -0.000240114
FINAL SINGLE POINT ENERGY      -115.732801240842

CARTESIAN COORDINATES (ANGSTROEM)
---------------------------------
  C      6.369187   -9.904875   -6.703849
  O      6.245421   -9.413843   -5.411142
  H      6.942337   -9.718965   -4.856947
  H      5.664437   -9.421000   -7.422368
  H      7.396688   -9.835106   -7.022802
  H      6.137889  -10.954571   -6.839164
  C      3.701319   -8.455646   -1.650687
  O      4.508554   -9.094399   -2.651325
  H      3.930834   -9.541129   -3.264870
  H      4.285431   -7.669530   -1.134513
  H      2.769512   -7.919549   -2.075823
  H      3.355722   -9.139694   -0.883058

 Multiplicity           Mult            ....    1
 Number of Electrons    NEL             ....   18
 Basis Dimension        Dim             ....  172

ORBITAL ENERGIES
----------------

  NO   OCC          E(Eh)            E(eV)
   0   2.0000     -19.232898      -523.3538
   1   2.0000     -10.322519      -280.8900
   2   2.0000      -1.132186       -30.8083
   3   2.0000      -0.793845       -21.6016
   4   2.0000      -0.607480       -16.5304
   5   2.0000      -0.536145       -14.5893
   6   2.0000      -0.523168       -14.2361
   7   2.0000      -0.433569       -11.7980
   8   2.0000      -0.376716       -10.2510
   9   0.0000       0.088614         2.4113
  10   0.0000       0.118414         3.2222
  11   0.0000       0.147111         4.0031
  12   0.0000       0.179854         4.8941
  13   0.0000       0.194751         5.2994

MULLIKEN ATOMIC CHARGES
-----------------------
   0 C :   -0.000316
   1 O :   -0.000715
   2 H :   -0.001475
   3 H :    0.000024
   4 H :    0.000001
   5 H :    0.000017
   6 C :   -0.174706
   7 O :   -0.471743
   8 H :    0.316532
   9 H :    0.122877
  10 H :    0.098843
  11 H :    0.110662
Sum of atomic charges:   -0.0000000

LOEWDIN ATOMIC CHARGES
----------------------
   0 C :   -0.000235
   1 O :   -0.002683
   2 H :   -0.001464
   3 H :   -0.000007
   4 H :   -0.000007
   5 H :   -0.000005
   6 C :   -0.379797
   7 O :   -0.086139
   8 H :    0.163936
   9 H :    0.110055
  10 H :    0.104397
  11 H :    0.091947

  Mayer bond orders larger than 0.1
B(  6-C ,  7-O ) :   1.0000 B(  6-C ,  9-H ) :   0.9741 B(  6-C , 10-H ) :   0.9746
B(  6-C , 11-H ) :   0.9692 B(  7-O ,  8-H ) :   0.8984

Dispersion correction           -0.000273202
FINAL SINGLE POINT ENERGY      -115.734231669906

DIPOLE MOMENT
-------------
                                X             Y             Z
Electronic contribution:      1.19801      -0.85022      -1.22193
Nuclear contribution   :     -1.88674       0.82550       1.24830
                        -----------------------------------------
Total Dipole Moment    :     -0.68872      -0.02472       0.02637
                        -----------------------------------------
Magnitude (a.u.)       :      0.68967
Magnitude (Debye)      :      1.75301

Rotational constants in cm-1:     4.239589     0.800100     0.771956
Rotational constants in MHz : 127099.676719 23986.392915 23142.661638

                             ****ORCA TERMINATED NORMALLY****
TOTAL RUN TIME: 0 days 0 hours 6 minutes 22 seconds 498 msec
