                         Program Version 4.1.2  - RELEASE  -
|  1> #Run DFT-D3 single point of the dimer
|  2> ! wB97X-D3 def2-TZVP TIGHTSCF CHELPG PMODEL PAL8
|  3>
|  4> %base "6-189_DFT_AB"
|  5>
|  6> %scf
|  7> MaxIter 1000
|  8> end
|  9>
| 10> * xyz 0 1
| 11>   C                      7.449165             -7.833267            -3.684489
| 12>   O                      8.673282             -7.312019            -3.276682
| 13>   H                      8.453897             -6.609753            -2.633320
| 14>   H                      7.556963             -8.725010            -4.270334
| 15>   H                      6.723539             -8.104884            -2.806945
| 16>   H                      6.928298             -7.117201            -4.257824
| 17>   C                      5.214555             -5.719470            -0.540958
| 18>   O                      6.435239             -6.211418            -0.983080
| 19>   H                      7.137188             -5.637817            -0.659574
| 20>   H                      5.152850             -4.633872            -0.732966
| 21>   H                      4.397840             -6.244215            -1.078387
| 22>   H                      5.083328             -5.960183            0.535244
| 23> *
| 24>
| 25> #Run DFT-D3 single point of the molecule with dimer basis set
| 26> $new_job
| 27> %base "6-189_DFT_A"
| 28> ! wB97X-D3 def2-TZVP TIGHTSCF CHELPG PMODEL
| 29>
| 30> %scf
| 31> MaxIter 1000
| 32> end
| 33>
| 34> * xyz 0 1
| 35>   C                      7.449165             -7.833267            -3.684489
| 36>   O                      8.673282             -7.312019            -3.276682
| 37>   H                      8.453897             -6.609753            -2.633320
| 38>   H                      7.556963             -8.725010            -4.270334
| 39>   H                      6.723539             -8.104884            -2.806945
| 40>   H                      6.928298             -7.117201            -4.257824
| 41>   C                    : 5.214555             -5.719470            -0.540958
| 42>   O                    : 6.435239             -6.211418            -0.983080
| 43>   H                    : 7.137188             -5.637817            -0.659574
| 44>   H                    : 5.152850             -4.633872            -0.732966
| 45>   H                    : 4.397840             -6.244215            -1.078387
| 46>   H                    : 5.083328             -5.960183            0.535244
| 47> *
| 48>
| 49> #Run DFT-D3 single point of the particle with dimer basis set
| 50> $new_job
| 51> %base "6-189_DFT_B"
| 52> ! wB97X-D3 def2-TZVP TIGHTSCF CHELPG PMODEL
| 53>
| 54> %scf
| 55> MaxIter 1000
| 56> end
| 57>
| 58> * xyz 0 1
| 59>   C                    : 7.449165             -7.833267            -3.684489
| 60>   O                    : 8.673282             -7.312019            -3.276682
| 61>   H                    : 8.453897             -6.609753            -2.633320
| 62>   H                    : 7.556963             -8.725010            -4.270334
| 63>   H                    : 6.723539             -8.104884            -2.806945
| 64>   H                    : 6.928298             -7.117201            -4.257824
| 65>   C                      5.214555             -5.719470            -0.540958
| 66>   O                      6.435239             -6.211418            -0.983080
| 67>   H                      7.137188             -5.637817            -0.659574
| 68>   H                      5.152850             -4.633872            -0.732966
| 69>   H                      4.397840             -6.244215            -1.078387
| 70>   H                      5.083328             -5.960183            0.535244
| 71> *
| 72>
| 73>                          ****END OF INPUT****
 Total Charge           Charge          ....    0
 Multiplicity           Mult            ....    1
 Number of Electrons    NEL             ....   36
Dispersion correction           -0.001790067
FINAL SINGLE POINT ENERGY      -231.470154054093
Dispersion correction           -0.000231438
FINAL SINGLE POINT ENERGY      -115.731472266318

CARTESIAN COORDINATES (ANGSTROEM)
---------------------------------
  C      7.449165   -7.833267   -3.684489
  O      8.673282   -7.312019   -3.276682
  H      8.453897   -6.609753   -2.633320
  H      7.556963   -8.725010   -4.270334
  H      6.723539   -8.104884   -2.806945
  H      6.928298   -7.117201   -4.257824
  C      5.214555   -5.719470   -0.540958
  O      6.435239   -6.211418   -0.983080
  H      7.137188   -5.637817   -0.659574
  H      5.152850   -4.633872   -0.732966
  H      4.397840   -6.244215   -1.078387
  H      5.083328   -5.960183    0.535244

 Multiplicity           Mult            ....    1
 Number of Electrons    NEL             ....   18
 Basis Dimension        Dim             ....  172

ORBITAL ENERGIES
----------------

  NO   OCC          E(Eh)            E(eV)
   0   2.0000     -19.229313      -523.2562
   1   2.0000     -10.314898      -280.6827
   2   2.0000      -1.143722       -31.1222
   3   2.0000      -0.790555       -21.5121
   4   2.0000      -0.612379       -16.6637
   5   2.0000      -0.546814       -14.8796
   6   2.0000      -0.530197       -14.4274
   7   2.0000      -0.428844       -11.6694
   8   2.0000      -0.371215       -10.1013
   9   0.0000       0.097979         2.6661
  10   0.0000       0.127058         3.4574
  11   0.0000       0.150980         4.1084
  12   0.0000       0.186501         5.0749
  13   0.0000       0.198758         5.4085

MULLIKEN ATOMIC CHARGES
-----------------------
   0 C :    0.010318
   1 O :    0.000211
   2 H :   -0.007336
   3 H :   -0.000406
   4 H :   -0.008931
   5 H :   -0.003321
   6 C :   -0.155005
   7 O :   -0.461094
   8 H :    0.315412
   9 H :    0.100487
  10 H :    0.114591
  11 H :    0.095075
Sum of atomic charges:   -0.0000000

LOEWDIN ATOMIC CHARGES
----------------------
   0 C :   -0.009916
   1 O :   -0.000644
   2 H :   -0.007013
   3 H :   -0.000098
   4 H :   -0.007484
   5 H :   -0.000876
   6 C :   -0.406920
   7 O :   -0.043277
   8 H :    0.172910
   9 H :    0.095975
  10 H :    0.111105
  11 H :    0.096239

  Mayer bond orders larger than 0.1
B(  6-C ,  7-O ) :   0.9987 B(  6-C ,  9-H ) :   0.9784 B(  6-C , 10-H ) :   0.9745
B(  6-C , 11-H ) :   0.9727 B(  7-O ,  8-H ) :   0.8942

Dispersion correction           -0.000227256
FINAL SINGLE POINT ENERGY      -115.736188265546

DIPOLE MOMENT
-------------
                                X             Y             Z
Electronic contribution:      1.50205      -0.69472      -0.64426
Nuclear contribution   :     -1.52992       1.24749       1.01217
                        -----------------------------------------
Total Dipole Moment    :     -0.02786       0.55277       0.36791
                        -----------------------------------------
Magnitude (a.u.)       :      0.66460
Magnitude (Debye)      :      1.68928

Rotational constants in cm-1:     4.161050     0.857091     0.827452
Rotational constants in MHz : 124745.131805 25694.936222 24806.382956

                             ****ORCA TERMINATED NORMALLY****
TOTAL RUN TIME: 0 days 0 hours 1 minutes 6 seconds 346 msec
