                         Program Version 4.1.2  - RELEASE  -
|  1> #Run DFT-D3 single point of the dimer
|  2> ! wB97X-D3 def2-TZVP TIGHTSCF CHELPG PMODEL PAL8
|  3>
|  4> %base "15-182_DFT_AB"
|  5>
|  6> %scf
|  7> MaxIter 1000
|  8> end
|  9>
| 10> * xyz 0 1
| 11>   C                      -11.181573           -6.523769            8.983289
| 12>   O                      -10.070327           -5.877747            9.523657
| 13>   H                      -9.469174            -5.712060            8.772213
| 14>   H                      -12.071394           -5.910952            8.875676
| 15>   H                      -11.053050           -6.945512            7.970016
| 16>   H                      -11.536426           -7.355774            9.579766
| 17>   C                      -8.218607            -8.383974            11.218942
| 18>   O                      -8.945942            -7.373133            11.837279
| 19>   H                      -9.429018            -6.892765            11.130515
| 20>   H                      -8.804752            -9.064139            10.577870
| 21>   H                      -7.481241            -8.065095            10.516309
| 22>   H                      -7.782354            -9.026883            11.973043
| 23> *
| 24>
| 25> #Run DFT-D3 single point of the molecule with dimer basis set
| 26> $new_job
| 27> %base "15-182_DFT_A"
| 28> ! wB97X-D3 def2-TZVP TIGHTSCF CHELPG PMODEL
| 29>
| 30> %scf
| 31> MaxIter 1000
| 32> end
| 33>
| 34> * xyz 0 1
| 35>   C                      -11.181573           -6.523769            8.983289
| 36>   O                      -10.070327           -5.877747            9.523657
| 37>   H                      -9.469174            -5.712060            8.772213
| 38>   H                      -12.071394           -5.910952            8.875676
| 39>   H                      -11.053050           -6.945512            7.970016
| 40>   H                      -11.536426           -7.355774            9.579766
| 41>   C                    : -8.218607            -8.383974            11.218942
| 42>   O                    : -8.945942            -7.373133            11.837279
| 43>   H                    : -9.429018            -6.892765            11.130515
| 44>   H                    : -8.804752            -9.064139            10.577870
| 45>   H                    : -7.481241            -8.065095            10.516309
| 46>   H                    : -7.782354            -9.026883            11.973043
| 47> *
| 48>
| 49> #Run DFT-D3 single point of the particle with dimer basis set
| 50> $new_job
| 51> %base "15-182_DFT_B"
| 52> ! wB97X-D3 def2-TZVP TIGHTSCF CHELPG PMODEL
| 53>
| 54> %scf
| 55> MaxIter 1000
| 56> end
| 57>
| 58> * xyz 0 1
| 59>   C                    : -11.181573           -6.523769            8.983289
| 60>   O                    : -10.070327           -5.877747            9.523657
| 61>   H                    : -9.469174            -5.712060            8.772213
| 62>   H                    : -12.071394           -5.910952            8.875676
| 63>   H                    : -11.053050           -6.945512            7.970016
| 64>   H                    : -11.536426           -7.355774            9.579766
| 65>   C                      -8.218607            -8.383974            11.218942
| 66>   O                      -8.945942            -7.373133            11.837279
| 67>   H                      -9.429018            -6.892765            11.130515
| 68>   H                      -8.804752            -9.064139            10.577870
| 69>   H                      -7.481241            -8.065095            10.516309
| 70>   H                      -7.782354            -9.026883            11.973043
| 71> *
| 72>
| 73>                          ****END OF INPUT****
 Total Charge           Charge          ....    0
 Multiplicity           Mult            ....    1
 Number of Electrons    NEL             ....   36
Dispersion correction           -0.001934513
FINAL SINGLE POINT ENERGY      -231.475031037042
Dispersion correction           -0.000255966
FINAL SINGLE POINT ENERGY      -115.732986306751

CARTESIAN COORDINATES (ANGSTROEM)
---------------------------------
  C    -11.181573   -6.523769    8.983289
  O    -10.070327   -5.877747    9.523657
  H     -9.469174   -5.712060    8.772213
  H    -12.071394   -5.910952    8.875676
  H    -11.053050   -6.945512    7.970016
  H    -11.536426   -7.355774    9.579766
  C     -8.218607   -8.383974   11.218942
  O     -8.945942   -7.373133   11.837279
  H     -9.429018   -6.892765   11.130515
  H     -8.804752   -9.064139   10.577870
  H     -7.481241   -8.065095   10.516309
  H     -7.782354   -9.026883   11.973043

 Multiplicity           Mult            ....    1
 Number of Electrons    NEL             ....   18
 Basis Dimension        Dim             ....  172

ORBITAL ENERGIES
----------------

  NO   OCC          E(Eh)            E(eV)
   0   2.0000     -19.236586      -523.4541
   1   2.0000     -10.307730      -280.4876
   2   2.0000      -1.142208       -31.0810
   3   2.0000      -0.796947       -21.6860
   4   2.0000      -0.621238       -16.9047
   5   2.0000      -0.538834       -14.6624
   6   2.0000      -0.527363       -14.3503
   7   2.0000      -0.439539       -11.9605
   8   2.0000      -0.371989       -10.1223
   9   0.0000       0.066507         1.8097
  10   0.0000       0.136864         3.7242
  11   0.0000       0.147816         4.0223
  12   0.0000       0.158983         4.3262
  13   0.0000       0.193089         5.2542

MULLIKEN ATOMIC CHARGES
-----------------------
   0 C :   -0.001460
   1 O :   -0.002795
   2 H :   -0.000095
   3 H :   -0.000082
   4 H :    0.000010
   5 H :   -0.001370
   6 C :   -0.167992
   7 O :   -0.461513
   8 H :    0.315811
   9 H :    0.091807
  10 H :    0.104862
  11 H :    0.122817
Sum of atomic charges:    0.0000000

LOEWDIN ATOMIC CHARGES
----------------------
   0 C :   -0.005244
   1 O :   -0.016382
   2 H :   -0.001059
   3 H :   -0.000080
   4 H :   -0.000056
   5 H :   -0.001185
   6 C :   -0.408235
   7 O :   -0.052438
   8 H :    0.193708
   9 H :    0.093888
  10 H :    0.088528
  11 H :    0.108555

  Mayer bond orders larger than 0.1
B(  6-C ,  7-O ) :   0.9982 B(  6-C ,  9-H ) :   0.9754 B(  6-C , 10-H ) :   0.9728
B(  6-C , 11-H ) :   0.9767 B(  7-O ,  8-H ) :   0.9040

Dispersion correction           -0.000238344
FINAL SINGLE POINT ENERGY      -115.733871457971

DIPOLE MOMENT
-------------
                                X             Y             Z
Electronic contribution:     -0.86997       1.40092       1.03663
Nuclear contribution   :      0.84688      -1.48742      -1.70980
                        -----------------------------------------
Total Dipole Moment    :     -0.02308      -0.08650      -0.67316
                        -----------------------------------------
Magnitude (a.u.)       :      0.67909
Magnitude (Debye)      :      1.72611

Rotational constants in cm-1:     4.435438     0.851380     0.810154
Rotational constants in MHz : 132971.072325 25523.737311 24287.811977

                             ****ORCA TERMINATED NORMALLY****
TOTAL RUN TIME: 0 days 0 hours 1 minutes 5 seconds 721 msec
