                         Program Version 4.1.2  - RELEASE  -
|  1> #Run DFT-D3 single point of the dimer
|  2> ! wB97X-D3 def2-TZVP TIGHTSCF CHELPG PMODEL PAL8
|  3>
|  4> %base "9-17_DFT_AB"
|  5>
|  6> %scf
|  7> MaxIter 1000
|  8> end
|  9>
| 10> * xyz 0 1
| 11>   C                      1.487376             -0.428665            4.266690
| 12>   O                      2.630056             -0.194025            5.057445
| 13>   H                      2.762876             -0.876611            5.745413
| 14>   H                      1.308714             0.285588             3.519412
| 15>   H                      1.633911             -1.323911            3.744331
| 16>   H                      0.553844             -0.624710            4.835763
| 17>   C                      0.464581             3.135544             1.057392
| 18>   O                      -0.033795            4.391398             1.287106
| 19>   H                      -0.049888            4.757126             0.377471
| 20>   H                      1.507871             3.076970             0.691846
| 21>   H                      0.225967             2.508593             1.971604
| 22>   H                      -0.090771            2.731226             0.174747
| 23> *
| 24>
| 25> #Run DFT-D3 single point of the molecule with dimer basis set
| 26> $new_job
| 27> %base "9-17_DFT_A"
| 28> ! wB97X-D3 def2-TZVP TIGHTSCF CHELPG PMODEL
| 29>
| 30> %scf
| 31> MaxIter 1000
| 32> end
| 33>
| 34> * xyz 0 1
| 35>   C                      1.487376             -0.428665            4.266690
| 36>   O                      2.630056             -0.194025            5.057445
| 37>   H                      2.762876             -0.876611            5.745413
| 38>   H                      1.308714             0.285588             3.519412
| 39>   H                      1.633911             -1.323911            3.744331
| 40>   H                      0.553844             -0.624710            4.835763
| 41>   C                    : 0.464581             3.135544             1.057392
| 42>   O                    : -0.033795            4.391398             1.287106
| 43>   H                    : -0.049888            4.757126             0.377471
| 44>   H                    : 1.507871             3.076970             0.691846
| 45>   H                    : 0.225967             2.508593             1.971604
| 46>   H                    : -0.090771            2.731226             0.174747
| 47> *
| 48>
| 49> #Run DFT-D3 single point of the particle with dimer basis set
| 50> $new_job
| 51> %base "9-17_DFT_B"
| 52> ! wB97X-D3 def2-TZVP TIGHTSCF CHELPG PMODEL
| 53>
| 54> %scf
| 55> MaxIter 1000
| 56> end
| 57>
| 58> * xyz 0 1
| 59>   C                    : 1.487376             -0.428665            4.266690
| 60>   O                    : 2.630056             -0.194025            5.057445
| 61>   H                    : 2.762876             -0.876611            5.745413
| 62>   H                    : 1.308714             0.285588             3.519412
| 63>   H                    : 1.633911             -1.323911            3.744331
| 64>   H                    : 0.553844             -0.624710            4.835763
| 65>   C                      0.464581             3.135544             1.057392
| 66>   O                      -0.033795            4.391398             1.287106
| 67>   H                      -0.049888            4.757126             0.377471
| 68>   H                      1.507871             3.076970             0.691846
| 69>   H                      0.225967             2.508593             1.971604
| 70>   H                      -0.090771            2.731226             0.174747
| 71> *
| 72>
| 73>                          ****END OF INPUT****
 Total Charge           Charge          ....    0
 Multiplicity           Mult            ....    1
 Number of Electrons    NEL             ....   36
Dispersion correction           -0.000824788
FINAL SINGLE POINT ENERGY      -231.457115107306
Dispersion correction           -0.000243512
FINAL SINGLE POINT ENERGY      -115.729501295513

CARTESIAN COORDINATES (ANGSTROEM)
---------------------------------
  C      1.487376   -0.428665    4.266690
  O      2.630056   -0.194025    5.057445
  H      2.762876   -0.876611    5.745413
  H      1.308714    0.285588    3.519412
  H      1.633911   -1.323911    3.744331
  H      0.553844   -0.624710    4.835763
  C      0.464581    3.135544    1.057392
  O     -0.033795    4.391398    1.287106
  H     -0.049888    4.757126    0.377471
  H      1.507871    3.076970    0.691846
  H      0.225967    2.508593    1.971604
  H     -0.090771    2.731226    0.174747

 Multiplicity           Mult            ....    1
 Number of Electrons    NEL             ....   18
 Basis Dimension        Dim             ....  172

ORBITAL ENERGIES
----------------

  NO   OCC          E(Eh)            E(eV)
   0   2.0000     -19.234502      -523.3974
   1   2.0000     -10.317711      -280.7592
   2   2.0000      -1.153728       -31.3945
   3   2.0000      -0.781444       -21.2642
   4   2.0000      -0.623036       -16.9537
   5   2.0000      -0.540564       -14.7095
   6   2.0000      -0.526982       -14.3399
   7   2.0000      -0.438777       -11.9397
   8   2.0000      -0.367414        -9.9978
   9   0.0000       0.086480         2.3532
  10   0.0000       0.107532         2.9261
  11   0.0000       0.145068         3.9475
  12   0.0000       0.174419         4.7462
  13   0.0000       0.188078         5.1178

MULLIKEN ATOMIC CHARGES
-----------------------
   0 C :   -0.000088
   1 O :   -0.000001
   2 H :   -0.000000
   3 H :   -0.000184
   4 H :   -0.000014
   5 H :    0.000000
   6 C :   -0.175982
   7 O :   -0.447764
   8 H :    0.317170
   9 H :    0.095801
  10 H :    0.121224
  11 H :    0.089838
Sum of atomic charges:    0.0000000

LOEWDIN ATOMIC CHARGES
----------------------
   0 C :   -0.000370
   1 O :   -0.000004
   2 H :   -0.000000
   3 H :   -0.001197
   4 H :   -0.000002
   5 H :   -0.000005
   6 C :   -0.437995
   7 O :   -0.053615
   8 H :    0.189265
   9 H :    0.092242
  10 H :    0.117161
  11 H :    0.094521

  Mayer bond orders larger than 0.1
B(  6-C ,  7-O ) :   1.0112 B(  6-C ,  9-H ) :   0.9602 B(  6-C , 10-H ) :   0.9723
B(  6-C , 11-H ) :   0.9903 B(  7-O ,  8-H ) :   0.8971

Dispersion correction           -0.000208040
FINAL SINGLE POINT ENERGY      -115.727439563935

DIPOLE MOMENT
-------------
                                X             Y             Z
Electronic contribution:     -0.56763       1.70268       0.61305
Nuclear contribution   :      0.71283      -1.90805      -1.25978
                        -----------------------------------------
Total Dipole Moment    :      0.14520      -0.20537      -0.64673
                        -----------------------------------------
Magnitude (a.u.)       :      0.69392
Magnitude (Debye)      :      1.76380

Rotational constants in cm-1:     4.015930     0.891156     0.838671
Rotational constants in MHz : 120394.549146 26716.187673 25142.736809

                             ****ORCA TERMINATED NORMALLY****
TOTAL RUN TIME: 0 days 0 hours 0 minutes 40 seconds 781 msec
