                         Program Version 4.1.2  - RELEASE  -
|  1> #Run DFT-D3 single point of the dimer
|  2> ! wB97X-D3 def2-TZVP TIGHTSCF CHELPG PMODEL PAL8
|  3>
|  4> %base "1-177_DFT_AB"
|  5>
|  6> %scf
|  7> MaxIter 1000
|  8> end
|  9>
| 10> * xyz 0 1
| 11>   C                      6.321475             9.201901             5.207391
| 12>   O                      7.361675             9.472823             6.147094
| 13>   H                      8.090684             9.082047             5.642757
| 14>   H                      6.586048             8.325435             4.592221
| 15>   H                      5.453284             8.830296             5.726521
| 16>   H                      6.038527             9.983989             4.532099
| 17>   C                      4.423346             9.794990             1.911556
| 18>   O                      4.461821             9.759707             3.374623
| 19>   H                      4.307610             8.886481             3.683218
| 20>   H                      4.804517             10.728253            1.457962
| 21>   H                      4.994910             8.932887             1.526791
| 22>   H                      3.371029             9.677512             1.573245
| 23> *
| 24>
| 25> #Run DFT-D3 single point of the molecule with dimer basis set
| 26> $new_job
| 27> %base "1-177_DFT_A"
| 28> ! wB97X-D3 def2-TZVP TIGHTSCF CHELPG PMODEL
| 29>
| 30> %scf
| 31> MaxIter 1000
| 32> end
| 33>
| 34> * xyz 0 1
| 35>   C                      6.321475             9.201901             5.207391
| 36>   O                      7.361675             9.472823             6.147094
| 37>   H                      8.090684             9.082047             5.642757
| 38>   H                      6.586048             8.325435             4.592221
| 39>   H                      5.453284             8.830296             5.726521
| 40>   H                      6.038527             9.983989             4.532099
| 41>   C                    : 4.423346             9.794990             1.911556
| 42>   O                    : 4.461821             9.759707             3.374623
| 43>   H                    : 4.307610             8.886481             3.683218
| 44>   H                    : 4.804517             10.728253            1.457962
| 45>   H                    : 4.994910             8.932887             1.526791
| 46>   H                    : 3.371029             9.677512             1.573245
| 47> *
| 48>
| 49> #Run DFT-D3 single point of the particle with dimer basis set
| 50> $new_job
| 51> %base "1-177_DFT_B"
| 52> ! wB97X-D3 def2-TZVP TIGHTSCF CHELPG PMODEL
| 53>
| 54> %scf
| 55> MaxIter 1000
| 56> end
| 57>
| 58> * xyz 0 1
| 59>   C                    : 6.321475             9.201901             5.207391
| 60>   O                    : 7.361675             9.472823             6.147094
| 61>   H                    : 8.090684             9.082047             5.642757
| 62>   H                    : 6.586048             8.325435             4.592221
| 63>   H                    : 5.453284             8.830296             5.726521
| 64>   H                    : 6.038527             9.983989             4.532099
| 65>   C                      4.423346             9.794990             1.911556
| 66>   O                      4.461821             9.759707             3.374623
| 67>   H                      4.307610             8.886481             3.683218
| 68>   H                      4.804517             10.728253            1.457962
| 69>   H                      4.994910             8.932887             1.526791
| 70>   H                      3.371029             9.677512             1.573245
| 71> *
| 72>
| 73>                          ****END OF INPUT****
 Total Charge           Charge          ....    0
 Multiplicity           Mult            ....    1
 Number of Electrons    NEL             ....   36
Dispersion correction           -0.001738854
FINAL SINGLE POINT ENERGY      -231.455781944546
Dispersion correction           -0.000232900
FINAL SINGLE POINT ENERGY      -115.729567596623

CARTESIAN COORDINATES (ANGSTROEM)
---------------------------------
  C      6.321475    9.201901    5.207391
  O      7.361675    9.472823    6.147094
  H      8.090684    9.082047    5.642757
  H      6.586048    8.325435    4.592221
  H      5.453284    8.830296    5.726521
  H      6.038527    9.983989    4.532099
  C      4.423346    9.794990    1.911556
  O      4.461821    9.759707    3.374623
  H      4.307610    8.886481    3.683218
  H      4.804517   10.728253    1.457962
  H      4.994910    8.932887    1.526791
  H      3.371029    9.677512    1.573245

 Multiplicity           Mult            ....    1
 Number of Electrons    NEL             ....   18
 Basis Dimension        Dim             ....  172

ORBITAL ENERGIES
----------------

  NO   OCC          E(Eh)            E(eV)
   0   2.0000     -19.228155      -523.2247
   1   2.0000     -10.323802      -280.9249
   2   2.0000      -1.125287       -30.6206
   3   2.0000      -0.797755       -21.7080
   4   2.0000      -0.603479       -16.4215
   5   2.0000      -0.534540       -14.5456
   6   2.0000      -0.529086       -14.3972
   7   2.0000      -0.432951       -11.7812
   8   2.0000      -0.374648       -10.1947
   9   0.0000       0.089823         2.4442
  10   0.0000       0.131573         3.5803
  11   0.0000       0.148152         4.0314
  12   0.0000       0.188214         5.1216
  13   0.0000       0.193985         5.2786

MULLIKEN ATOMIC CHARGES
-----------------------
   0 C :   -0.021105
   1 O :   -0.000327
   2 H :   -0.000152
   3 H :   -0.000864
   4 H :   -0.000416
   5 H :    0.001578
   6 C :   -0.175987
   7 O :   -0.467165
   8 H :    0.314887
   9 H :    0.129967
  10 H :    0.110974
  11 H :    0.108609
Sum of atomic charges:   -0.0000000

LOEWDIN ATOMIC CHARGES
----------------------
   0 C :   -0.040474
   1 O :   -0.000112
   2 H :   -0.000071
   3 H :   -0.003513
   4 H :   -0.003098
   5 H :   -0.035733
   6 C :   -0.347076
   7 O :   -0.039843
   8 H :    0.158377
   9 H :    0.111265
  10 H :    0.099286
  11 H :    0.100991

  Mayer bond orders larger than 0.1
B(  6-C ,  7-O ) :   0.9824 B(  6-C ,  9-H ) :   0.9716 B(  6-C , 10-H ) :   0.9785
B(  6-C , 11-H ) :   0.9724 B(  7-O ,  8-H ) :   0.8987

Dispersion correction           -0.000263351
FINAL SINGLE POINT ENERGY      -115.733000656796

DIPOLE MOMENT
-------------
                                X             Y             Z
Electronic contribution:      0.12323       0.17631       1.78716
Nuclear contribution   :     -0.24830      -0.71678      -2.24294
                        -----------------------------------------
Total Dipole Moment    :     -0.12507      -0.54046      -0.45577
                        -----------------------------------------
Magnitude (a.u.)       :      0.71797
Magnitude (Debye)      :      1.82492

Rotational constants in cm-1:     4.286176     0.780261     0.754551
Rotational constants in MHz : 128496.333359 23391.629279 22620.863436

                             ****ORCA TERMINATED NORMALLY****
TOTAL RUN TIME: 0 days 0 hours 6 minutes 0 seconds 317 msec
