                         Program Version 4.1.2  - RELEASE  -
|  1> #Run DFT-D3 single point of the dimer
|  2> ! wB97X-D3 def2-TZVP TIGHTSCF CHELPG PMODEL PAL8
|  3>
|  4> %base "11-119_DFT_AB"
|  5>
|  6> %scf
|  7> MaxIter 1000
|  8> end
|  9>
| 10> * xyz 0 1
| 11>   C                      9.746196             0.127752             0.272165
| 12>   O                      9.036215             1.286193             0.694994
| 13>   H                      9.106927             1.857356             -0.091271
| 14>   H                      9.334585             -0.309086            -0.601121
| 15>   H                      10.778810            0.400009             -0.013756
| 16>   H                      9.754853             -0.603531            1.099498
| 17>   C                      10.510120            4.803059             2.009248
| 18>   O                      9.511246             5.390401             2.720921
| 19>   H                      9.788360             6.264995             2.646968
| 20>   H                      10.256843            3.794557             1.720164
| 21>   H                      10.969106            5.393652             1.241565
| 22>   H                      11.349476            4.549797             2.698899
| 23> *
| 24>
| 25> #Run DFT-D3 single point of the molecule with dimer basis set
| 26> $new_job
| 27> %base "11-119_DFT_A"
| 28> ! wB97X-D3 def2-TZVP TIGHTSCF CHELPG PMODEL
| 29>
| 30> %scf
| 31> MaxIter 1000
| 32> end
| 33>
| 34> * xyz 0 1
| 35>   C                      9.746196             0.127752             0.272165
| 36>   O                      9.036215             1.286193             0.694994
| 37>   H                      9.106927             1.857356             -0.091271
| 38>   H                      9.334585             -0.309086            -0.601121
| 39>   H                      10.778810            0.400009             -0.013756
| 40>   H                      9.754853             -0.603531            1.099498
| 41>   C                    : 10.510120            4.803059             2.009248
| 42>   O                    : 9.511246             5.390401             2.720921
| 43>   H                    : 9.788360             6.264995             2.646968
| 44>   H                    : 10.256843            3.794557             1.720164
| 45>   H                    : 10.969106            5.393652             1.241565
| 46>   H                    : 11.349476            4.549797             2.698899
| 47> *
| 48>
| 49> #Run DFT-D3 single point of the particle with dimer basis set
| 50> $new_job
| 51> %base "11-119_DFT_B"
| 52> ! wB97X-D3 def2-TZVP TIGHTSCF CHELPG PMODEL
| 53>
| 54> %scf
| 55> MaxIter 1000
| 56> end
| 57>
| 58> * xyz 0 1
| 59>   C                    : 9.746196             0.127752             0.272165
| 60>   O                    : 9.036215             1.286193             0.694994
| 61>   H                    : 9.106927             1.857356             -0.091271
| 62>   H                    : 9.334585             -0.309086            -0.601121
| 63>   H                    : 10.778810            0.400009             -0.013756
| 64>   H                    : 9.754853             -0.603531            1.099498
| 65>   C                      10.510120            4.803059             2.009248
| 66>   O                      9.511246             5.390401             2.720921
| 67>   H                      9.788360             6.264995             2.646968
| 68>   H                      10.256843            3.794557             1.720164
| 69>   H                      10.969106            5.393652             1.241565
| 70>   H                      11.349476            4.549797             2.698899
| 71> *
| 72>
| 73>                          ****END OF INPUT****
 Total Charge           Charge          ....    0
 Multiplicity           Mult            ....    1
 Number of Electrons    NEL             ....   36
Dispersion correction           -0.001045131
FINAL SINGLE POINT ENERGY      -231.458812546576
Dispersion correction           -0.000218739
FINAL SINGLE POINT ENERGY      -115.734605892150

CARTESIAN COORDINATES (ANGSTROEM)
---------------------------------
  C      9.746196    0.127752    0.272165
  O      9.036215    1.286193    0.694994
  H      9.106927    1.857356   -0.091271
  H      9.334585   -0.309086   -0.601121
  H     10.778810    0.400009   -0.013756
  H      9.754853   -0.603531    1.099498
  C     10.510120    4.803059    2.009248
  O      9.511246    5.390401    2.720921
  H      9.788360    6.264995    2.646968
  H     10.256843    3.794557    1.720164
  H     10.969106    5.393652    1.241565
  H     11.349476    4.549797    2.698899

 Multiplicity           Mult            ....    1
 Number of Electrons    NEL             ....   18
 Basis Dimension        Dim             ....  172

ORBITAL ENERGIES
----------------

  NO   OCC          E(Eh)            E(eV)
   0   2.0000     -19.231002      -523.3022
   1   2.0000     -10.307294      -280.4757
   2   2.0000      -1.171436       -31.8764
   3   2.0000      -0.795665       -21.6511
   4   2.0000      -0.632151       -17.2017
   5   2.0000      -0.545198       -14.8356
   6   2.0000      -0.533712       -14.5231
   7   2.0000      -0.451985       -12.2991
   8   2.0000      -0.364818        -9.9272
   9   0.0000       0.085787         2.3344
  10   0.0000       0.118149         3.2150
  11   0.0000       0.154325         4.1994
  12   0.0000       0.174063         4.7365
  13   0.0000       0.189364         5.1528

MULLIKEN ATOMIC CHARGES
-----------------------
   0 C :    0.000149
   1 O :    0.000131
   2 H :   -0.000375
   3 H :   -0.000012
   4 H :   -0.000065
   5 H :   -0.000015
   6 C :   -0.178461
   7 O :   -0.433385
   8 H :    0.308901
   9 H :    0.112184
  10 H :    0.105689
  11 H :    0.085259
Sum of atomic charges:    0.0000000

LOEWDIN ATOMIC CHARGES
----------------------
   0 C :   -0.000305
   1 O :   -0.001348
   2 H :   -0.001202
   3 H :   -0.000004
   4 H :   -0.000047
   5 H :   -0.000005
   6 C :   -0.434066
   7 O :   -0.010640
   8 H :    0.155055
   9 H :    0.104701
  10 H :    0.091270
  11 H :    0.096589

  Mayer bond orders larger than 0.1
B(  6-C ,  7-O ) :   1.0215 B(  6-C ,  9-H ) :   0.9784 B(  6-C , 10-H ) :   0.9789
B(  6-C , 11-H ) :   0.9800 B(  7-O ,  8-H ) :   0.9115

Dispersion correction           -0.000198746
FINAL SINGLE POINT ENERGY      -115.723627555233

DIPOLE MOMENT
-------------
                                X             Y             Z
Electronic contribution:     -1.61072       0.79478       0.80714
Nuclear contribution   :      2.12927      -0.44804      -1.10644
                        -----------------------------------------
Total Dipole Moment    :      0.51855       0.34674      -0.29930
                        -----------------------------------------
Magnitude (a.u.)       :      0.69189
Magnitude (Debye)      :      1.75863

Rotational constants in cm-1:     4.414628     0.901638     0.854043
Rotational constants in MHz : 132347.231552 27030.435958 25603.568888

                             ****ORCA TERMINATED NORMALLY****
TOTAL RUN TIME: 0 days 0 hours 1 minutes 3 seconds 246 msec
