                         Program Version 4.1.2  - RELEASE  -
|  1> #Run DFT-D3 single point of the dimer
|  2> ! wB97X-D3 def2-TZVP TIGHTSCF CHELPG PMODEL PAL8
|  3>
|  4> %base "12-187_DFT_AB"
|  5>
|  6> %scf
|  7> MaxIter 1000
|  8> end
|  9>
| 10> * xyz 0 1
| 11>   C                      -0.578593            -4.590266            -11.286552
| 12>   O                      -0.826494            -3.380639            -10.623791
| 13>   H                      -1.176707            -3.622127            -9.780503
| 14>   H                      0.000340             -4.523567            -12.235142
| 15>   H                      -0.051351            -5.265744            -10.605710
| 16>   H                      -1.444858            -5.068640            -11.659935
| 17>   C                      1.935774             -1.216311            -9.967491
| 18>   O                      2.295418             -2.521551            -10.450723
| 19>   H                      1.683636             -3.133767            -10.037139
| 20>   H                      2.752111             -0.815076            -9.399136
| 21>   H                      1.713906             -0.470383            -10.735176
| 22>   H                      1.021269             -1.184607            -9.393827
| 23> *
| 24>
| 25> #Run DFT-D3 single point of the molecule with dimer basis set
| 26> $new_job
| 27> %base "12-187_DFT_A"
| 28> ! wB97X-D3 def2-TZVP TIGHTSCF CHELPG PMODEL
| 29>
| 30> %scf
| 31> MaxIter 1000
| 32> end
| 33>
| 34> * xyz 0 1
| 35>   C                      -0.578593            -4.590266            -11.286552
| 36>   O                      -0.826494            -3.380639            -10.623791
| 37>   H                      -1.176707            -3.622127            -9.780503
| 38>   H                      0.000340             -4.523567            -12.235142
| 39>   H                      -0.051351            -5.265744            -10.605710
| 40>   H                      -1.444858            -5.068640            -11.659935
| 41>   C                    : 1.935774             -1.216311            -9.967491
| 42>   O                    : 2.295418             -2.521551            -10.450723
| 43>   H                    : 1.683636             -3.133767            -10.037139
| 44>   H                    : 2.752111             -0.815076            -9.399136
| 45>   H                    : 1.713906             -0.470383            -10.735176
| 46>   H                    : 1.021269             -1.184607            -9.393827
| 47> *
| 48>
| 49> #Run DFT-D3 single point of the particle with dimer basis set
| 50> $new_job
| 51> %base "12-187_DFT_B"
| 52> ! wB97X-D3 def2-TZVP TIGHTSCF CHELPG PMODEL
| 53>
| 54> %scf
| 55> MaxIter 1000
| 56> end
| 57>
| 58> * xyz 0 1
| 59>   C                    : -0.578593            -4.590266            -11.286552
| 60>   O                    : -0.826494            -3.380639            -10.623791
| 61>   H                    : -1.176707            -3.622127            -9.780503
| 62>   H                    : 0.000340             -4.523567            -12.235142
| 63>   H                    : -0.051351            -5.265744            -10.605710
| 64>   H                    : -1.444858            -5.068640            -11.659935
| 65>   C                      1.935774             -1.216311            -9.967491
| 66>   O                      2.295418             -2.521551            -10.450723
| 67>   H                      1.683636             -3.133767            -10.037139
| 68>   H                      2.752111             -0.815076            -9.399136
| 69>   H                      1.713906             -0.470383            -10.735176
| 70>   H                      1.021269             -1.184607            -9.393827
| 71> *
| 72>
| 73>                          ****END OF INPUT****
 Total Charge           Charge          ....    0
 Multiplicity           Mult            ....    1
 Number of Electrons    NEL             ....   36
Dispersion correction           -0.001950939
FINAL SINGLE POINT ENERGY      -231.467436167980
Dispersion correction           -0.000230918
FINAL SINGLE POINT ENERGY      -115.731649560965

CARTESIAN COORDINATES (ANGSTROEM)
---------------------------------
  C     -0.578593   -4.590266  -11.286552
  O     -0.826494   -3.380639  -10.623791
  H     -1.176707   -3.622127   -9.780503
  H      0.000340   -4.523567  -12.235142
  H     -0.051351   -5.265744  -10.605710
  H     -1.444858   -5.068640  -11.659935
  C      1.935774   -1.216311   -9.967491
  O      2.295418   -2.521551  -10.450723
  H      1.683636   -3.133767  -10.037139
  H      2.752111   -0.815076   -9.399136
  H      1.713906   -0.470383  -10.735176
  H      1.021269   -1.184607   -9.393827

 Multiplicity           Mult            ....    1
 Number of Electrons    NEL             ....   18
 Basis Dimension        Dim             ....  172

ORBITAL ENERGIES
----------------

  NO   OCC          E(Eh)            E(eV)
   0   2.0000     -19.233827      -523.3790
   1   2.0000     -10.311110      -280.5796
   2   2.0000      -1.131836       -30.7988
   3   2.0000      -0.801050       -21.7977
   4   2.0000      -0.611680       -16.6447
   5   2.0000      -0.538214       -14.6455
   6   2.0000      -0.525358       -14.2957
   7   2.0000      -0.439260       -11.9529
   8   2.0000      -0.376476       -10.2444
   9   0.0000       0.071743         1.9522
  10   0.0000       0.131508         3.5785
  11   0.0000       0.150767         4.1026
  12   0.0000       0.168034         4.5724
  13   0.0000       0.185993         5.0611

MULLIKEN ATOMIC CHARGES
-----------------------
   0 C :   -0.006613
   1 O :   -0.001207
   2 H :   -0.000109
   3 H :   -0.000216
   4 H :    0.000446
   5 H :   -0.000402
   6 C :   -0.186500
   7 O :   -0.466308
   8 H :    0.317887
   9 H :    0.120484
  10 H :    0.110225
  11 H :    0.112313
Sum of atomic charges:    0.0000000

LOEWDIN ATOMIC CHARGES
----------------------
   0 C :   -0.006536
   1 O :   -0.004042
   2 H :   -0.000554
   3 H :   -0.001010
   4 H :   -0.000625
   5 H :   -0.000144
   6 C :   -0.370331
   7 O :   -0.081598
   8 H :    0.168985
   9 H :    0.097708
  10 H :    0.102046
  11 H :    0.096100

  Mayer bond orders larger than 0.1
B(  6-C ,  7-O ) :   1.0042 B(  6-C ,  9-H ) :   0.9825 B(  6-C , 10-H ) :   0.9709
B(  6-C , 11-H ) :   0.9807 B(  7-O ,  8-H ) :   0.9018

Dispersion correction           -0.000261423
FINAL SINGLE POINT ENERGY      -115.732921298490

DIPOLE MOMENT
-------------
                                X             Y             Z
Electronic contribution:      0.59423      -1.67392      -0.68459
Nuclear contribution   :     -1.14022       1.83067       1.15163
                        -----------------------------------------
Total Dipole Moment    :     -0.54599       0.15675       0.46704
                        -----------------------------------------
Magnitude (a.u.)       :      0.73539
Magnitude (Debye)      :      1.86921

Rotational constants in cm-1:     4.475994     0.804459     0.775975
Rotational constants in MHz : 134186.933158 24117.086898 23263.145308

                             ****ORCA TERMINATED NORMALLY****
TOTAL RUN TIME: 0 days 0 hours 1 minutes 7 seconds 504 msec
