                         Program Version 4.1.2  - RELEASE  -
|  1> #Run DFT-D3 single point of the dimer
|  2> ! wB97X-D3 def2-TZVP TIGHTSCF CHELPG PMODEL PAL8
|  3>
|  4> %base "9-215_DFT_AB"
|  5>
|  6> %scf
|  7> MaxIter 1000
|  8> end
|  9>
| 10> * xyz 0 1
| 11>   C                      5.206334             -9.057863            6.597827
| 12>   O                      5.847438             -8.835371            5.336983
| 13>   H                      5.164536             -8.989231            4.744363
| 14>   H                      5.910274             -9.233634            7.412780
| 15>   H                      4.588259             -8.188817            6.926912
| 16>   H                      4.477473             -9.918150            6.582761
| 17>   C                      2.451181             -9.299457            3.753158
| 18>   O                      3.830511             -9.386070            3.338447
| 19>   H                      3.817408             -9.446326            2.382565
| 20>   H                      1.768621             -8.985972            2.933853
| 21>   H                      2.083960             -10.300967           4.012013
| 22>   H                      2.255479             -8.550594            4.616617
| 23> *
| 24>
| 25> #Run DFT-D3 single point of the molecule with dimer basis set
| 26> $new_job
| 27> %base "9-215_DFT_A"
| 28> ! wB97X-D3 def2-TZVP TIGHTSCF CHELPG PMODEL
| 29>
| 30> %scf
| 31> MaxIter 1000
| 32> end
| 33>
| 34> * xyz 0 1
| 35>   C                      5.206334             -9.057863            6.597827
| 36>   O                      5.847438             -8.835371            5.336983
| 37>   H                      5.164536             -8.989231            4.744363
| 38>   H                      5.910274             -9.233634            7.412780
| 39>   H                      4.588259             -8.188817            6.926912
| 40>   H                      4.477473             -9.918150            6.582761
| 41>   C                    : 2.451181             -9.299457            3.753158
| 42>   O                    : 3.830511             -9.386070            3.338447
| 43>   H                    : 3.817408             -9.446326            2.382565
| 44>   H                    : 1.768621             -8.985972            2.933853
| 45>   H                    : 2.083960             -10.300967           4.012013
| 46>   H                    : 2.255479             -8.550594            4.616617
| 47> *
| 48>
| 49> #Run DFT-D3 single point of the particle with dimer basis set
| 50> $new_job
| 51> %base "9-215_DFT_B"
| 52> ! wB97X-D3 def2-TZVP TIGHTSCF CHELPG PMODEL
| 53>
| 54> %scf
| 55> MaxIter 1000
| 56> end
| 57>
| 58> * xyz 0 1
| 59>   C                    : 5.206334             -9.057863            6.597827
| 60>   O                    : 5.847438             -8.835371            5.336983
| 61>   H                    : 5.164536             -8.989231            4.744363
| 62>   H                    : 5.910274             -9.233634            7.412780
| 63>   H                    : 4.588259             -8.188817            6.926912
| 64>   H                    : 4.477473             -9.918150            6.582761
| 65>   C                      2.451181             -9.299457            3.753158
| 66>   O                      3.830511             -9.386070            3.338447
| 67>   H                      3.817408             -9.446326            2.382565
| 68>   H                      1.768621             -8.985972            2.933853
| 69>   H                      2.083960             -10.300967           4.012013
| 70>   H                      2.255479             -8.550594            4.616617
| 71> *
| 72>
| 73>                          ****END OF INPUT****
 Total Charge           Charge          ....    0
 Multiplicity           Mult            ....    1
 Number of Electrons    NEL             ....   36
Dispersion correction           -0.001983221
FINAL SINGLE POINT ENERGY      -231.470597736636
Dispersion correction           -0.000250537
FINAL SINGLE POINT ENERGY      -115.732003740788

CARTESIAN COORDINATES (ANGSTROEM)
---------------------------------
  C      5.206334   -9.057863    6.597827
  O      5.847438   -8.835371    5.336983
  H      5.164536   -8.989231    4.744363
  H      5.910274   -9.233634    7.412780
  H      4.588259   -8.188817    6.926912
  H      4.477473   -9.918150    6.582761
  C      2.451181   -9.299457    3.753158
  O      3.830511   -9.386070    3.338447
  H      3.817408   -9.446326    2.382565
  H      1.768621   -8.985972    2.933853
  H      2.083960  -10.300967    4.012013
  H      2.255479   -8.550594    4.616617

 Multiplicity           Mult            ....    1
 Number of Electrons    NEL             ....   18
 Basis Dimension        Dim             ....  172

ORBITAL ENERGIES
----------------

  NO   OCC          E(Eh)            E(eV)
   0   2.0000     -19.233668      -523.3747
   1   2.0000     -10.325716      -280.9770
   2   2.0000      -1.131120       -30.7793
   3   2.0000      -0.790627       -21.5141
   4   2.0000      -0.608606       -16.5610
   5   2.0000      -0.535666       -14.5762
   6   2.0000      -0.517641       -14.0857
   7   2.0000      -0.435633       -11.8542
   8   2.0000      -0.376145       -10.2354
   9   0.0000       0.095631         2.6023
  10   0.0000       0.123261         3.3541
  11   0.0000       0.145862         3.9691
  12   0.0000       0.183229         4.9859
  13   0.0000       0.194159         5.2833

MULLIKEN ATOMIC CHARGES
-----------------------
   0 C :    0.002402
   1 O :    0.000352
   2 H :   -0.012579
   3 H :    0.000033
   4 H :   -0.000461
   5 H :   -0.000206
   6 C :   -0.188396
   7 O :   -0.457134
   8 H :    0.311957
   9 H :    0.113615
  10 H :    0.109313
  11 H :    0.121103
Sum of atomic charges:    0.0000000

LOEWDIN ATOMIC CHARGES
----------------------
   0 C :   -0.002226
   1 O :   -0.004958
   2 H :   -0.037415
   3 H :   -0.000012
   4 H :   -0.000231
   5 H :   -0.000448
   6 C :   -0.376712
   7 O :   -0.058968
   8 H :    0.166714
   9 H :    0.099780
  10 H :    0.096753
  11 H :    0.117724

  Mayer bond orders larger than 0.1
B(  6-C ,  7-O ) :   0.9948 B(  6-C ,  9-H ) :   0.9737 B(  6-C , 10-H ) :   0.9739
B(  6-C , 11-H ) :   0.9702 B(  7-O ,  8-H ) :   0.9007

Dispersion correction           -0.000270906
FINAL SINGLE POINT ENERGY      -115.730993984568

DIPOLE MOMENT
-------------
                                X             Y             Z
Electronic contribution:      1.89505      -0.09464      -0.37577
Nuclear contribution   :     -2.47537       0.09114      -0.10105
                        -----------------------------------------
Total Dipole Moment    :     -0.58033      -0.00350      -0.47681
                        -----------------------------------------
Magnitude (a.u.)       :      0.75109
Magnitude (Debye)      :      1.90913

Rotational constants in cm-1:     4.176186     0.794087     0.766275
Rotational constants in MHz : 125198.901499 23806.136020 22972.341163

                             ****ORCA TERMINATED NORMALLY****
TOTAL RUN TIME: 0 days 0 hours 0 minutes 44 seconds 340 msec
