                         Program Version 4.1.2  - RELEASE  -
|  1> #Run DFT-D3 single point of the dimer
|  2> ! wB97X-D3 def2-TZVP TIGHTSCF CHELPG PMODEL PAL8
|  3>
|  4> %base "13-71_DFT_AB"
|  5>
|  6> %scf
|  7> MaxIter 1000
|  8> end
|  9>
| 10> * xyz 0 1
| 11>   C                      9.028161             -7.584521            4.100614
| 12>   O                      8.192791             -6.828802            5.014434
| 13>   H                      7.594326             -6.269406            4.519792
| 14>   H                      8.513725             -7.939866            3.227101
| 15>   H                      9.834166             -6.927564            3.751375
| 16>   H                      9.510038             -8.408056            4.560258
| 17>   C                      5.169243             -9.493771            5.503406
| 18>   O                      3.942726             -9.233860            4.939729
| 19>   H                      3.428846             -8.678624            5.570812
| 20>   H                      5.209470             -9.584556            6.578923
| 21>   H                      5.409796             -10.512706           5.172332
| 22>   H                      5.951064             -8.839104            5.193346
| 23> *
| 24>
| 25> #Run DFT-D3 single point of the molecule with dimer basis set
| 26> $new_job
| 27> %base "13-71_DFT_A"
| 28> ! wB97X-D3 def2-TZVP TIGHTSCF CHELPG PMODEL
| 29>
| 30> %scf
| 31> MaxIter 1000
| 32> end
| 33>
| 34> * xyz 0 1
| 35>   C                      9.028161             -7.584521            4.100614
| 36>   O                      8.192791             -6.828802            5.014434
| 37>   H                      7.594326             -6.269406            4.519792
| 38>   H                      8.513725             -7.939866            3.227101
| 39>   H                      9.834166             -6.927564            3.751375
| 40>   H                      9.510038             -8.408056            4.560258
| 41>   C                    : 5.169243             -9.493771            5.503406
| 42>   O                    : 3.942726             -9.233860            4.939729
| 43>   H                    : 3.428846             -8.678624            5.570812
| 44>   H                    : 5.209470             -9.584556            6.578923
| 45>   H                    : 5.409796             -10.512706           5.172332
| 46>   H                    : 5.951064             -8.839104            5.193346
| 47> *
| 48>
| 49> #Run DFT-D3 single point of the particle with dimer basis set
| 50> $new_job
| 51> %base "13-71_DFT_B"
| 52> ! wB97X-D3 def2-TZVP TIGHTSCF CHELPG PMODEL
| 53>
| 54> %scf
| 55> MaxIter 1000
| 56> end
| 57>
| 58> * xyz 0 1
| 59>   C                    : 9.028161             -7.584521            4.100614
| 60>   O                    : 8.192791             -6.828802            5.014434
| 61>   H                    : 7.594326             -6.269406            4.519792
| 62>   H                    : 8.513725             -7.939866            3.227101
| 63>   H                    : 9.834166             -6.927564            3.751375
| 64>   H                    : 9.510038             -8.408056            4.560258
| 65>   C                      5.169243             -9.493771            5.503406
| 66>   O                      3.942726             -9.233860            4.939729
| 67>   H                      3.428846             -8.678624            5.570812
| 68>   H                      5.209470             -9.584556            6.578923
| 69>   H                      5.409796             -10.512706           5.172332
| 70>   H                      5.951064             -8.839104            5.193346
| 71> *
| 72>
| 73>                          ****END OF INPUT****
 Total Charge           Charge          ....    0
 Multiplicity           Mult            ....    1
 Number of Electrons    NEL             ....   36
Dispersion correction           -0.001254420
FINAL SINGLE POINT ENERGY      -231.467592112945
Dispersion correction           -0.000256721
FINAL SINGLE POINT ENERGY      -115.733918991871

CARTESIAN COORDINATES (ANGSTROEM)
---------------------------------
  C      9.028161   -7.584521    4.100614
  O      8.192791   -6.828802    5.014434
  H      7.594326   -6.269406    4.519792
  H      8.513725   -7.939866    3.227101
  H      9.834166   -6.927564    3.751375
  H      9.510038   -8.408056    4.560258
  C      5.169243   -9.493771    5.503406
  O      3.942726   -9.233860    4.939729
  H      3.428846   -8.678624    5.570812
  H      5.209470   -9.584556    6.578923
  H      5.409796  -10.512706    5.172332
  H      5.951064   -8.839104    5.193346

 Multiplicity           Mult            ....    1
 Number of Electrons    NEL             ....   18
 Basis Dimension        Dim             ....  172

ORBITAL ENERGIES
----------------

  NO   OCC          E(Eh)            E(eV)
   0   2.0000     -19.233546      -523.3714
   1   2.0000     -10.303590      -280.3749
   2   2.0000      -1.144931       -31.1552
   3   2.0000      -0.795137       -21.6368
   4   2.0000      -0.619292       -16.8518
   5   2.0000      -0.550842       -14.9892
   6   2.0000      -0.524716       -14.2782
   7   2.0000      -0.428622       -11.6634
   8   2.0000      -0.373760       -10.1705
   9   0.0000       0.083385         2.2690
  10   0.0000       0.114390         3.1127
  11   0.0000       0.157222         4.2782
  12   0.0000       0.163396         4.4462
  13   0.0000       0.192213         5.2304

MULLIKEN ATOMIC CHARGES
-----------------------
   0 C :   -0.000187
   1 O :    0.000082
   2 H :    0.000105
   3 H :    0.000035
   4 H :    0.000019
   5 H :   -0.000117
   6 C :   -0.163223
   7 O :   -0.466780
   8 H :    0.318001
   9 H :    0.103951
  10 H :    0.104168
  11 H :    0.103947
Sum of atomic charges:    0.0000000

LOEWDIN ATOMIC CHARGES
----------------------
   0 C :   -0.001768
   1 O :   -0.001210
   2 H :   -0.000489
   3 H :   -0.000222
   4 H :   -0.000028
   5 H :   -0.000095
   6 C :   -0.419665
   7 O :   -0.054612
   8 H :    0.186901
   9 H :    0.092545
  10 H :    0.109076
  11 H :    0.089566

  Mayer bond orders larger than 0.1
B(  6-C ,  7-O ) :   1.0115 B(  6-C ,  9-H ) :   0.9792 B(  6-C , 10-H ) :   0.9792
B(  6-C , 11-H ) :   0.9694 B(  7-O ,  8-H ) :   0.8949

Dispersion correction           -0.000237899
FINAL SINGLE POINT ENERGY      -115.732030388342

DIPOLE MOMENT
-------------
                                X             Y             Z
Electronic contribution:     -1.61492       0.43104      -0.83500
Nuclear contribution   :      1.73358      -0.18994       1.46332
                        -----------------------------------------
Total Dipole Moment    :      0.11866       0.24110       0.62832
                        -----------------------------------------
Magnitude (a.u.)       :      0.68337
Magnitude (Debye)      :      1.73700

Rotational constants in cm-1:     4.407765     0.865325     0.836619
Rotational constants in MHz : 132141.460899 25941.785730 25081.213075

                             ****ORCA TERMINATED NORMALLY****
TOTAL RUN TIME: 0 days 0 hours 1 minutes 5 seconds 374 msec
