                         Program Version 4.1.2  - RELEASE  -
|  1> #Run DFT-D3 single point of the dimer
|  2> ! wB97X-D3 def2-TZVP TIGHTSCF CHELPG PMODEL PAL8
|  3>
|  4> %base "6-24_DFT_AB"
|  5>
|  6> %scf
|  7> MaxIter 1000
|  8> end
|  9>
| 10> * xyz 0 1
| 11>   C                      -0.715228            1.050743             2.453242
| 12>   O                      -1.854007            0.340821             2.144338
| 13>   H                      -2.633239            0.803480             2.639829
| 14>   H                      -0.871798            2.130612             2.284487
| 15>   H                      -0.449429            0.971583             3.539397
| 16>   H                      0.102194             0.804007             1.757111
| 17>   C                      1.759605             3.929659             4.677218
| 18>   O                      0.590745             4.732152             4.814484
| 19>   H                      -0.023490            4.347957             5.425364
| 20>   H                      2.534619             4.152760             5.522013
| 21>   H                      1.522299             2.871857             4.759914
| 22>   H                      2.193522             3.973006             3.687937
| 23> *
| 24>
| 25> #Run DFT-D3 single point of the molecule with dimer basis set
| 26> $new_job
| 27> %base "6-24_DFT_A"
| 28> ! wB97X-D3 def2-TZVP TIGHTSCF CHELPG PMODEL
| 29>
| 30> %scf
| 31> MaxIter 1000
| 32> end
| 33>
| 34> * xyz 0 1
| 35>   C                      -0.715228            1.050743             2.453242
| 36>   O                      -1.854007            0.340821             2.144338
| 37>   H                      -2.633239            0.803480             2.639829
| 38>   H                      -0.871798            2.130612             2.284487
| 39>   H                      -0.449429            0.971583             3.539397
| 40>   H                      0.102194             0.804007             1.757111
| 41>   C                    : 1.759605             3.929659             4.677218
| 42>   O                    : 0.590745             4.732152             4.814484
| 43>   H                    : -0.023490            4.347957             5.425364
| 44>   H                    : 2.534619             4.152760             5.522013
| 45>   H                    : 1.522299             2.871857             4.759914
| 46>   H                    : 2.193522             3.973006             3.687937
| 47> *
| 48>
| 49> #Run DFT-D3 single point of the particle with dimer basis set
| 50> $new_job
| 51> %base "6-24_DFT_B"
| 52> ! wB97X-D3 def2-TZVP TIGHTSCF CHELPG PMODEL
| 53>
| 54> %scf
| 55> MaxIter 1000
| 56> end
| 57>
| 58> * xyz 0 1
| 59>   C                    : -0.715228            1.050743             2.453242
| 60>   O                    : -1.854007            0.340821             2.144338
| 61>   H                    : -2.633239            0.803480             2.639829
| 62>   H                    : -0.871798            2.130612             2.284487
| 63>   H                    : -0.449429            0.971583             3.539397
| 64>   H                    : 0.102194             0.804007             1.757111
| 65>   C                      1.759605             3.929659             4.677218
| 66>   O                      0.590745             4.732152             4.814484
| 67>   H                      -0.023490            4.347957             5.425364
| 68>   H                      2.534619             4.152760             5.522013
| 69>   H                      1.522299             2.871857             4.759914
| 70>   H                      2.193522             3.973006             3.687937
| 71> *
| 72>
| 73>                          ****END OF INPUT****
 Total Charge           Charge          ....    0
 Multiplicity           Mult            ....    1
 Number of Electrons    NEL             ....   36
Dispersion correction           -0.001223666
FINAL SINGLE POINT ENERGY      -231.460901252444
Dispersion correction           -0.000228270
FINAL SINGLE POINT ENERGY      -115.729095413021

CARTESIAN COORDINATES (ANGSTROEM)
---------------------------------
  C     -0.715228    1.050743    2.453242
  O     -1.854007    0.340821    2.144338
  H     -2.633239    0.803480    2.639829
  H     -0.871798    2.130612    2.284487
  H     -0.449429    0.971583    3.539397
  H      0.102194    0.804007    1.757111
  C      1.759605    3.929659    4.677218
  O      0.590745    4.732152    4.814484
  H     -0.023490    4.347957    5.425364
  H      2.534619    4.152760    5.522013
  H      1.522299    2.871857    4.759914
  H      2.193522    3.973006    3.687937

 Multiplicity           Mult            ....    1
 Number of Electrons    NEL             ....   18
 Basis Dimension        Dim             ....  172

ORBITAL ENERGIES
----------------

  NO   OCC          E(Eh)            E(eV)
   0   2.0000     -19.229390      -523.2583
   1   2.0000     -10.320708      -280.8408
   2   2.0000      -1.134033       -30.8586
   3   2.0000      -0.796479       -21.6733
   4   2.0000      -0.612835       -16.6761
   5   2.0000      -0.539584       -14.6828
   6   2.0000      -0.522267       -14.2116
   7   2.0000      -0.428459       -11.6590
   8   2.0000      -0.374593       -10.1932
   9   0.0000       0.080251         2.1837
  10   0.0000       0.121956         3.3186
  11   0.0000       0.144476         3.9314
  12   0.0000       0.172377         4.6906
  13   0.0000       0.180341         4.9073

MULLIKEN ATOMIC CHARGES
-----------------------
   0 C :    0.000572
   1 O :    0.000016
   2 H :    0.000004
   3 H :   -0.001291
   4 H :    0.000183
   5 H :   -0.000024
   6 C :   -0.175154
   7 O :   -0.480274
   8 H :    0.316774
   9 H :    0.103098
  10 H :    0.109406
  11 H :    0.126690
Sum of atomic charges:    0.0000000

LOEWDIN ATOMIC CHARGES
----------------------
   0 C :   -0.000761
   1 O :   -0.000009
   2 H :   -0.000001
   3 H :   -0.000525
   4 H :   -0.000709
   5 H :   -0.000028
   6 C :   -0.383708
   7 O :   -0.080270
   8 H :    0.159920
   9 H :    0.107622
  10 H :    0.093754
  11 H :    0.104716

  Mayer bond orders larger than 0.1
B(  6-C ,  7-O ) :   0.9952 B(  6-C ,  9-H ) :   0.9717 B(  6-C , 10-H ) :   0.9789
B(  6-C , 11-H ) :   0.9703 B(  7-O ,  8-H ) :   0.8989

Dispersion correction           -0.000267176
FINAL SINGLE POINT ENERGY      -115.731075047116

DIPOLE MOMENT
-------------
                                X             Y             Z
Electronic contribution:     -1.47331       1.18675       0.00566
Nuclear contribution   :      1.51640      -1.80353       0.30639
                        -----------------------------------------
Total Dipole Moment    :      0.04309      -0.61677       0.31205
                        -----------------------------------------
Magnitude (a.u.)       :      0.69256
Magnitude (Debye)      :      1.76035

Rotational constants in cm-1:     4.286372     0.803185     0.788118
Rotational constants in MHz : 128502.200666 24078.876777 23627.174833

                             ****ORCA TERMINATED NORMALLY****
TOTAL RUN TIME: 0 days 0 hours 1 minutes 5 seconds 101 msec
