                         Program Version 4.1.2  - RELEASE  -
|  1> #Run DFT-D3 single point of the dimer
|  2> ! wB97X-D3 def2-TZVP TIGHTSCF CHELPG PMODEL PAL8
|  3>
|  4> %base "5-7_DFT_AB"
|  5>
|  6> %scf
|  7> MaxIter 1000
|  8> end
|  9>
| 10> * xyz 0 1
| 11>   C                      7.637502             -1.565497            0.430449
| 12>   O                      6.279459             -1.591730            0.075538
| 13>   H                      6.138315             -2.503580            0.236057
| 14>   H                      8.043561             -0.510717            0.303914
| 15>   H                      7.798157             -1.853950            1.427963
| 16>   H                      8.171181             -2.284390            -0.145285
| 17>   C                      6.954684             0.635758             3.247470
| 18>   O                      6.892328             0.989870             4.614692
| 19>   H                      6.180510             1.617700             4.690665
| 20>   H                      7.613959             -0.178764            3.063647
| 21>   H                      5.953373             0.385232             2.847718
| 22>   H                      7.251715             1.493073             2.649528
| 23> *
| 24>
| 25> #Run DFT-D3 single point of the molecule with dimer basis set
| 26> $new_job
| 27> %base "5-7_DFT_A"
| 28> ! wB97X-D3 def2-TZVP TIGHTSCF CHELPG PMODEL
| 29>
| 30> %scf
| 31> MaxIter 1000
| 32> end
| 33>
| 34> * xyz 0 1
| 35>   C                      7.637502             -1.565497            0.430449
| 36>   O                      6.279459             -1.591730            0.075538
| 37>   H                      6.138315             -2.503580            0.236057
| 38>   H                      8.043561             -0.510717            0.303914
| 39>   H                      7.798157             -1.853950            1.427963
| 40>   H                      8.171181             -2.284390            -0.145285
| 41>   C                    : 6.954684             0.635758             3.247470
| 42>   O                    : 6.892328             0.989870             4.614692
| 43>   H                    : 6.180510             1.617700             4.690665
| 44>   H                    : 7.613959             -0.178764            3.063647
| 45>   H                    : 5.953373             0.385232             2.847718
| 46>   H                    : 7.251715             1.493073             2.649528
| 47> *
| 48>
| 49> #Run DFT-D3 single point of the particle with dimer basis set
| 50> $new_job
| 51> %base "5-7_DFT_B"
| 52> ! wB97X-D3 def2-TZVP TIGHTSCF CHELPG PMODEL
| 53>
| 54> %scf
| 55> MaxIter 1000
| 56> end
| 57>
| 58> * xyz 0 1
| 59>   C                    : 7.637502             -1.565497            0.430449
| 60>   O                    : 6.279459             -1.591730            0.075538
| 61>   H                    : 6.138315             -2.503580            0.236057
| 62>   H                    : 8.043561             -0.510717            0.303914
| 63>   H                    : 7.798157             -1.853950            1.427963
| 64>   H                    : 8.171181             -2.284390            -0.145285
| 65>   C                      6.954684             0.635758             3.247470
| 66>   O                      6.892328             0.989870             4.614692
| 67>   H                      6.180510             1.617700             4.690665
| 68>   H                      7.613959             -0.178764            3.063647
| 69>   H                      5.953373             0.385232             2.847718
| 70>   H                      7.251715             1.493073             2.649528
| 71> *
| 72>
| 73>                          ****END OF INPUT****
 Total Charge           Charge          ....    0
 Multiplicity           Mult            ....    1
 Number of Electrons    NEL             ....   36
Dispersion correction           -0.001665635
FINAL SINGLE POINT ENERGY      -231.464730807816
Dispersion correction           -0.000194780
FINAL SINGLE POINT ENERGY      -115.728362524865

CARTESIAN COORDINATES (ANGSTROEM)
---------------------------------
  C      7.637502   -1.565497    0.430449
  O      6.279459   -1.591730    0.075538
  H      6.138315   -2.503580    0.236057
  H      8.043561   -0.510717    0.303914
  H      7.798157   -1.853950    1.427963
  H      8.171181   -2.284390   -0.145285
  C      6.954684    0.635758    3.247470
  O      6.892328    0.989870    4.614692
  H      6.180510    1.617700    4.690665
  H      7.613959   -0.178764    3.063647
  H      5.953373    0.385232    2.847718
  H      7.251715    1.493073    2.649528

 Multiplicity           Mult            ....    1
 Number of Electrons    NEL             ....   18
 Basis Dimension        Dim             ....  172

ORBITAL ENERGIES
----------------

  NO   OCC          E(Eh)            E(eV)
   0   2.0000     -19.229518      -523.2618
   1   2.0000     -10.310893      -280.5737
   2   2.0000      -1.139065       -30.9955
   3   2.0000      -0.797675       -21.7058
   4   2.0000      -0.613540       -16.6953
   5   2.0000      -0.538557       -14.6549
   6   2.0000      -0.532410       -14.4876
   7   2.0000      -0.440286       -11.9808
   8   2.0000      -0.370966       -10.0945
   9   0.0000       0.083545         2.2734
  10   0.0000       0.115947         3.1551
  11   0.0000       0.154699         4.2096
  12   0.0000       0.166989         4.5440
  13   0.0000       0.182962         4.9786

MULLIKEN ATOMIC CHARGES
-----------------------
   0 C :   -0.000090
   1 O :    0.000288
   2 H :   -0.000006
   3 H :   -0.000270
   4 H :   -0.001560
   5 H :    0.000003
   6 C :   -0.168829
   7 O :   -0.469643
   8 H :    0.313478
   9 H :    0.129481
  10 H :    0.094010
  11 H :    0.103137
Sum of atomic charges:   -0.0000000

LOEWDIN ATOMIC CHARGES
----------------------
   0 C :   -0.005845
   1 O :   -0.000311
   2 H :   -0.000060
   3 H :   -0.000914
   4 H :   -0.003725
   5 H :   -0.000031
   6 C :   -0.379129
   7 O :   -0.072073
   8 H :    0.165467
   9 H :    0.105398
  10 H :    0.097109
  11 H :    0.094114

  Mayer bond orders larger than 0.1
B(  6-C ,  7-O ) :   1.0022 B(  6-C ,  9-H ) :   0.9720 B(  6-C , 10-H ) :   0.9802
B(  6-C , 11-H ) :   0.9748 B(  7-O ,  8-H ) :   0.9021

Dispersion correction           -0.000225244
FINAL SINGLE POINT ENERGY      -115.735144519009

DIPOLE MOMENT
-------------
                                X             Y             Z
Electronic contribution:      0.13345       0.28047       1.84373
Nuclear contribution   :     -0.55507      -0.02632      -2.33726
                        -----------------------------------------
Total Dipole Moment    :     -0.42161       0.25415      -0.49353
                        -----------------------------------------
Magnitude (a.u.)       :      0.69708
Magnitude (Debye)      :      1.77184

Rotational constants in cm-1:     4.363945     0.836769     0.801467
Rotational constants in MHz : 130827.788673 25085.717416 24027.369283

                             ****ORCA TERMINATED NORMALLY****
TOTAL RUN TIME: 0 days 0 hours 1 minutes 5 seconds 457 msec
