                         Program Version 4.1.2  - RELEASE  -
|  1> #Run DFT-D3 single point of the dimer
|  2> ! wB97X-D3 def2-TZVP TIGHTSCF CHELPG PMODEL PAL8
|  3>
|  4> %base "16-0_DFT_AB"
|  5>
|  6> %scf
|  7> MaxIter 1000
|  8> end
|  9>
| 10> * xyz 0 1
| 11>   C                      -3.613576            2.949622             3.934506
| 12>   O                      -3.601508            3.698823             5.159507
| 13>   H                      -2.638820            3.713132             5.390762
| 14>   H                      -2.909974            3.467466             3.239017
| 15>   H                      -3.265800            1.935287             3.994618
| 16>   H                      -4.596142            2.930245             3.440482
| 17>   C                      -6.170275            7.304904             2.945659
| 18>   O                      -6.004982            5.919241             2.961373
| 19>   H                      -5.177506            5.678358             2.626186
| 20>   H                      -5.361011            7.815695             3.442207
| 21>   H                      -6.204885            7.631160             1.917815
| 22>   H                      -7.083981            7.553979             3.478656
| 23> *
| 24>
| 25> #Run DFT-D3 single point of the molecule with dimer basis set
| 26> $new_job
| 27> %base "16-0_DFT_A"
| 28> ! wB97X-D3 def2-TZVP TIGHTSCF CHELPG PMODEL
| 29>
| 30> %scf
| 31> MaxIter 1000
| 32> end
| 33>
| 34> * xyz 0 1
| 35>   C                      -3.613576            2.949622             3.934506
| 36>   O                      -3.601508            3.698823             5.159507
| 37>   H                      -2.638820            3.713132             5.390762
| 38>   H                      -2.909974            3.467466             3.239017
| 39>   H                      -3.265800            1.935287             3.994618
| 40>   H                      -4.596142            2.930245             3.440482
| 41>   C                    : -6.170275            7.304904             2.945659
| 42>   O                    : -6.004982            5.919241             2.961373
| 43>   H                    : -5.177506            5.678358             2.626186
| 44>   H                    : -5.361011            7.815695             3.442207
| 45>   H                    : -6.204885            7.631160             1.917815
| 46>   H                    : -7.083981            7.553979             3.478656
| 47> *
| 48>
| 49> #Run DFT-D3 single point of the particle with dimer basis set
| 50> $new_job
| 51> %base "16-0_DFT_B"
| 52> ! wB97X-D3 def2-TZVP TIGHTSCF CHELPG PMODEL
| 53>
| 54> %scf
| 55> MaxIter 1000
| 56> end
| 57>
| 58> * xyz 0 1
| 59>   C                    : -3.613576            2.949622             3.934506
| 60>   O                    : -3.601508            3.698823             5.159507
| 61>   H                    : -2.638820            3.713132             5.390762
| 62>   H                    : -2.909974            3.467466             3.239017
| 63>   H                    : -3.265800            1.935287             3.994618
| 64>   H                    : -4.596142            2.930245             3.440482
| 65>   C                      -6.170275            7.304904             2.945659
| 66>   O                      -6.004982            5.919241             2.961373
| 67>   H                      -5.177506            5.678358             2.626186
| 68>   H                      -5.361011            7.815695             3.442207
| 69>   H                      -6.204885            7.631160             1.917815
| 70>   H                      -7.083981            7.553979             3.478656
| 71> *
| 72>
| 73>                          ****END OF INPUT****
 Total Charge           Charge          ....    0
 Multiplicity           Mult            ....    1
 Number of Electrons    NEL             ....   36
Dispersion correction           -0.001214877
FINAL SINGLE POINT ENERGY      -231.467472702755
Dispersion correction           -0.000238810
FINAL SINGLE POINT ENERGY      -115.732095001478

CARTESIAN COORDINATES (ANGSTROEM)
---------------------------------
  C     -3.613576    2.949622    3.934506
  O     -3.601508    3.698823    5.159507
  H     -2.638820    3.713132    5.390762
  H     -2.909974    3.467466    3.239017
  H     -3.265800    1.935287    3.994618
  H     -4.596142    2.930245    3.440482
  C     -6.170275    7.304904    2.945659
  O     -6.004982    5.919241    2.961373
  H     -5.177506    5.678358    2.626186
  H     -5.361011    7.815695    3.442207
  H     -6.204885    7.631160    1.917815
  H     -7.083981    7.553979    3.478656

 Multiplicity           Mult            ....    1
 Number of Electrons    NEL             ....   18
 Basis Dimension        Dim             ....  172

ORBITAL ENERGIES
----------------

  NO   OCC          E(Eh)            E(eV)
   0   2.0000     -19.223174      -523.0891
   1   2.0000     -10.307335      -280.4768
   2   2.0000      -1.145886       -31.1811
   3   2.0000      -0.801592       -21.8124
   4   2.0000      -0.618670       -16.8349
   5   2.0000      -0.549248       -14.9458
   6   2.0000      -0.530719       -14.4416
   7   2.0000      -0.431086       -11.7304
   8   2.0000      -0.372416       -10.1339
   9   0.0000       0.081527         2.2185
  10   0.0000       0.127685         3.4745
  11   0.0000       0.155728         4.2376
  12   0.0000       0.173301         4.7158
  13   0.0000       0.194776         5.3001

MULLIKEN ATOMIC CHARGES
-----------------------
   0 C :   -0.003511
   1 O :    0.000506
   2 H :    0.000037
   3 H :    0.000239
   4 H :   -0.000122
   5 H :   -0.000602
   6 C :   -0.149497
   7 O :   -0.472981
   8 H :    0.310078
   9 H :    0.098244
  10 H :    0.099118
  11 H :    0.118491
Sum of atomic charges:   -0.0000000

LOEWDIN ATOMIC CHARGES
----------------------
   0 C :   -0.002328
   1 O :   -0.000377
   2 H :   -0.000024
   3 H :   -0.000217
   4 H :   -0.000054
   5 H :   -0.000960
   6 C :   -0.385123
   7 O :   -0.047957
   8 H :    0.144781
   9 H :    0.090794
  10 H :    0.092321
  11 H :    0.109144

  Mayer bond orders larger than 0.1
B(  6-C ,  7-O ) :   0.9923 B(  6-C ,  9-H ) :   0.9772 B(  6-C , 10-H ) :   0.9842
B(  6-C , 11-H ) :   0.9732 B(  7-O ,  8-H ) :   0.9032

Dispersion correction           -0.000219311
FINAL SINGLE POINT ENERGY      -115.735303330374

DIPOLE MOMENT
-------------
                                X             Y             Z
Electronic contribution:      0.08262      -1.73428       0.07064
Nuclear contribution   :      0.39126       2.14320      -0.28979
                        -----------------------------------------
Total Dipole Moment    :      0.47388       0.40892      -0.21915
                        -----------------------------------------
Magnitude (a.u.)       :      0.66317
Magnitude (Debye)      :      1.68565

Rotational constants in cm-1:     4.424852     0.854912     0.825578
Rotational constants in MHz : 132653.740349 25629.626394 24750.210962

                             ****ORCA TERMINATED NORMALLY****
TOTAL RUN TIME: 0 days 0 hours 1 minutes 5 seconds 241 msec
