                         Program Version 4.1.2  - RELEASE  -
|  1> #Run DFT-D3 single point of the dimer
|  2> ! wB97X-D3 def2-TZVP TIGHTSCF CHELPG PMODEL PAL8
|  3>
|  4> %base "20-69_DFT_AB"
|  5>
|  6> %scf
|  7> MaxIter 1000
|  8> end
|  9>
| 10> * xyz 0 1
| 11>   C                      0.659082             8.615269             -3.643497
| 12>   O                      0.571755             9.841283             -3.042450
| 13>   H                      0.633439             10.539445            -3.712564
| 14>   H                      1.490287             8.549697             -4.355124
| 15>   H                      0.762765             7.880298             -2.852222
| 16>   H                      -0.254403            8.351689             -4.285406
| 17>   C                      -0.477451            9.753074             0.223859
| 18>   O                      0.595951             9.626312             1.161011
| 19>   H                      1.213924             8.948302             0.696018
| 20>   H                      -1.393533            10.177866            0.700905
| 21>   H                      -0.201069            10.355538            -0.588821
| 22>   H                      -0.716064            8.808393             -0.265206
| 23> *
| 24>
| 25> #Run DFT-D3 single point of the molecule with dimer basis set
| 26> $new_job
| 27> %base "20-69_DFT_A"
| 28> ! wB97X-D3 def2-TZVP TIGHTSCF CHELPG PMODEL
| 29>
| 30> %scf
| 31> MaxIter 1000
| 32> end
| 33>
| 34> * xyz 0 1
| 35>   C                      0.659082             8.615269             -3.643497
| 36>   O                      0.571755             9.841283             -3.042450
| 37>   H                      0.633439             10.539445            -3.712564
| 38>   H                      1.490287             8.549697             -4.355124
| 39>   H                      0.762765             7.880298             -2.852222
| 40>   H                      -0.254403            8.351689             -4.285406
| 41>   C                    : -0.477451            9.753074             0.223859
| 42>   O                    : 0.595951             9.626312             1.161011
| 43>   H                    : 1.213924             8.948302             0.696018
| 44>   H                    : -1.393533            10.177866            0.700905
| 45>   H                    : -0.201069            10.355538            -0.588821
| 46>   H                    : -0.716064            8.808393             -0.265206
| 47> *
| 48>
| 49> #Run DFT-D3 single point of the particle with dimer basis set
| 50> $new_job
| 51> %base "20-69_DFT_B"
| 52> ! wB97X-D3 def2-TZVP TIGHTSCF CHELPG PMODEL
| 53>
| 54> %scf
| 55> MaxIter 1000
| 56> end
| 57>
| 58> * xyz 0 1
| 59>   C                    : 0.659082             8.615269             -3.643497
| 60>   O                    : 0.571755             9.841283             -3.042450
| 61>   H                    : 0.633439             10.539445            -3.712564
| 62>   H                    : 1.490287             8.549697             -4.355124
| 63>   H                    : 0.762765             7.880298             -2.852222
| 64>   H                    : -0.254403            8.351689             -4.285406
| 65>   C                      -0.477451            9.753074             0.223859
| 66>   O                      0.595951             9.626312             1.161011
| 67>   H                      1.213924             8.948302             0.696018
| 68>   H                      -1.393533            10.177866            0.700905
| 69>   H                      -0.201069            10.355538            -0.588821
| 70>   H                      -0.716064            8.808393             -0.265206
| 71> *
| 72>
| 73>                          ****END OF INPUT****
 Total Charge           Charge          ....    0
 Multiplicity           Mult            ....    1
 Number of Electrons    NEL             ....   36
Dispersion correction           -0.001643305
FINAL SINGLE POINT ENERGY      -231.464708265026
Dispersion correction           -0.000234560
FINAL SINGLE POINT ENERGY      -115.734483034632

CARTESIAN COORDINATES (ANGSTROEM)
---------------------------------
  C      0.659082    8.615269   -3.643497
  O      0.571755    9.841283   -3.042450
  H      0.633439   10.539445   -3.712564
  H      1.490287    8.549697   -4.355124
  H      0.762765    7.880298   -2.852222
  H     -0.254403    8.351689   -4.285406
  C     -0.477451    9.753074    0.223859
  O      0.595951    9.626312    1.161011
  H      1.213924    8.948302    0.696018
  H     -1.393533   10.177866    0.700905
  H     -0.201069   10.355538   -0.588821
  H     -0.716064    8.808393   -0.265206

 Multiplicity           Mult            ....    1
 Number of Electrons    NEL             ....   18
 Basis Dimension        Dim             ....  172

ORBITAL ENERGIES
----------------

  NO   OCC          E(Eh)            E(eV)
   0   2.0000     -19.237448      -523.4776
   1   2.0000     -10.310514      -280.5633
   2   2.0000      -1.122535       -30.5457
   3   2.0000      -0.791856       -21.5475
   4   2.0000      -0.603895       -16.4328
   5   2.0000      -0.537205       -14.6181
   6   2.0000      -0.521187       -14.1822
   7   2.0000      -0.441566       -12.0156
   8   2.0000      -0.371503       -10.1091
   9   0.0000       0.073015         1.9868
  10   0.0000       0.109252         2.9729
  11   0.0000       0.149966         4.0808
  12   0.0000       0.158151         4.3035
  13   0.0000       0.189924         5.1681

MULLIKEN ATOMIC CHARGES
-----------------------
   0 C :   -0.000686
   1 O :   -0.000277
   2 H :   -0.000237
   3 H :   -0.000027
   4 H :    0.000133
   5 H :    0.000087
   6 C :   -0.175331
   7 O :   -0.465818
   8 H :    0.314518
   9 H :    0.118331
  10 H :    0.109136
  11 H :    0.100172
Sum of atomic charges:   -0.0000000

LOEWDIN ATOMIC CHARGES
----------------------
   0 C :   -0.001385
   1 O :   -0.004452
   2 H :   -0.000419
   3 H :   -0.000021
   4 H :   -0.000437
   5 H :   -0.000018
   6 C :   -0.381282
   7 O :   -0.114477
   8 H :    0.208476
   9 H :    0.112680
  10 H :    0.086241
  11 H :    0.095095

  Mayer bond orders larger than 0.1
B(  6-C ,  7-O ) :   1.0036 B(  6-C ,  9-H ) :   0.9710 B(  6-C , 10-H ) :   0.9750
B(  6-C , 11-H ) :   0.9827 B(  7-O ,  8-H ) :   0.8947

Dispersion correction           -0.000233334
FINAL SINGLE POINT ENERGY      -115.728247857523

DIPOLE MOMENT
-------------
                                X             Y             Z
Electronic contribution:      1.28608      -0.00256       1.37213
Nuclear contribution   :     -1.33694      -0.35537      -2.03804
                        -----------------------------------------
Total Dipole Moment    :     -0.05086      -0.35793      -0.66591
                        -----------------------------------------
Magnitude (a.u.)       :      0.75772
Magnitude (Debye)      :      1.92596

Rotational constants in cm-1:     4.205075     0.825360     0.778836
Rotational constants in MHz : 126064.987419 24743.671478 23348.906839

                             ****ORCA TERMINATED NORMALLY****
TOTAL RUN TIME: 0 days 0 hours 1 minutes 7 seconds 204 msec
