                         Program Version 4.1.2  - RELEASE  -
|  1> #Run DFT-D3 single point of the dimer
|  2> ! wB97X-D3 def2-TZVP TIGHTSCF CHELPG PMODEL PAL8
|  3>
|  4> %base "10-68_DFT_AB"
|  5>
|  6> %scf
|  7> MaxIter 1000
|  8> end
|  9>
| 10> * xyz 0 1
| 11>   C                      6.480167             4.850157             8.017725
| 12>   O                      6.846940             3.890680             7.044795
| 13>   H                      7.195709             4.304133             6.297054
| 14>   H                      7.306813             5.169564             8.669647
| 15>   H                      6.202793             5.826223             7.485602
| 16>   H                      5.554086             4.491351             8.572135
| 17>   C                      9.470453             2.614658             11.330573
| 18>   O                      8.778651             3.780646             10.882165
| 19>   H                      9.369478             4.290702             10.293446
| 20>   H                      8.807611             2.047011             12.000019
| 21>   H                      9.863659             1.958622             10.562629
| 22>   H                      10.421889            2.906808             11.906521
| 23> *
| 24>
| 25> #Run DFT-D3 single point of the molecule with dimer basis set
| 26> $new_job
| 27> %base "10-68_DFT_A"
| 28> ! wB97X-D3 def2-TZVP TIGHTSCF CHELPG PMODEL
| 29>
| 30> %scf
| 31> MaxIter 1000
| 32> end
| 33>
| 34> * xyz 0 1
| 35>   C                      6.480167             4.850157             8.017725
| 36>   O                      6.846940             3.890680             7.044795
| 37>   H                      7.195709             4.304133             6.297054
| 38>   H                      7.306813             5.169564             8.669647
| 39>   H                      6.202793             5.826223             7.485602
| 40>   H                      5.554086             4.491351             8.572135
| 41>   C                    : 9.470453             2.614658             11.330573
| 42>   O                    : 8.778651             3.780646             10.882165
| 43>   H                    : 9.369478             4.290702             10.293446
| 44>   H                    : 8.807611             2.047011             12.000019
| 45>   H                    : 9.863659             1.958622             10.562629
| 46>   H                    : 10.421889            2.906808             11.906521
| 47> *
| 48>
| 49> #Run DFT-D3 single point of the particle with dimer basis set
| 50> $new_job
| 51> %base "10-68_DFT_B"
| 52> ! wB97X-D3 def2-TZVP TIGHTSCF CHELPG PMODEL
| 53>
| 54> %scf
| 55> MaxIter 1000
| 56> end
| 57>
| 58> * xyz 0 1
| 59>   C                    : 6.480167             4.850157             8.017725
| 60>   O                    : 6.846940             3.890680             7.044795
| 61>   H                    : 7.195709             4.304133             6.297054
| 62>   H                    : 7.306813             5.169564             8.669647
| 63>   H                    : 6.202793             5.826223             7.485602
| 64>   H                    : 5.554086             4.491351             8.572135
| 65>   C                      9.470453             2.614658             11.330573
| 66>   O                      8.778651             3.780646             10.882165
| 67>   H                      9.369478             4.290702             10.293446
| 68>   H                      8.807611             2.047011             12.000019
| 69>   H                      9.863659             1.958622             10.562629
| 70>   H                      10.421889            2.906808             11.906521
| 71> *
| 72>
| 73>                          ****END OF INPUT****
 Total Charge           Charge          ....    0
 Multiplicity           Mult            ....    1
 Number of Electrons    NEL             ....   36
Dispersion correction           -0.001205005
FINAL SINGLE POINT ENERGY      -231.464757881431
Dispersion correction           -0.000255562
FINAL SINGLE POINT ENERGY      -115.730506225272

CARTESIAN COORDINATES (ANGSTROEM)
---------------------------------
  C      6.480167    4.850157    8.017725
  O      6.846940    3.890680    7.044795
  H      7.195709    4.304133    6.297054
  H      7.306813    5.169564    8.669647
  H      6.202793    5.826223    7.485602
  H      5.554086    4.491351    8.572135
  C      9.470453    2.614658   11.330573
  O      8.778651    3.780646   10.882165
  H      9.369478    4.290702   10.293446
  H      8.807611    2.047011   12.000019
  H      9.863659    1.958622   10.562629
  H     10.421889    2.906808   11.906521

 Multiplicity           Mult            ....    1
 Number of Electrons    NEL             ....   18
 Basis Dimension        Dim             ....  172

ORBITAL ENERGIES
----------------

  NO   OCC          E(Eh)            E(eV)
   0   2.0000     -19.235063      -523.4127
   1   2.0000     -10.320593      -280.8376
   2   2.0000      -1.129915       -30.7466
   3   2.0000      -0.792567       -21.5669
   4   2.0000      -0.611222       -16.6322
   5   2.0000      -0.528416       -14.3789
   6   2.0000      -0.525782       -14.3072
   7   2.0000      -0.439230       -11.9521
   8   2.0000      -0.372102       -10.1254
   9   0.0000       0.089856         2.4451
  10   0.0000       0.118548         3.2259
  11   0.0000       0.149245         4.0612
  12   0.0000       0.173389         4.7182
  13   0.0000       0.196632         5.3506

MULLIKEN ATOMIC CHARGES
-----------------------
   0 C :   -0.001209
   1 O :    0.000294
   2 H :    0.000026
   3 H :   -0.004194
   4 H :   -0.000247
   5 H :    0.000076
   6 C :   -0.173648
   7 O :   -0.469812
   8 H :    0.317680
   9 H :    0.125116
  10 H :    0.109911
  11 H :    0.096005
Sum of atomic charges:   -0.0000000

LOEWDIN ATOMIC CHARGES
----------------------
   0 C :   -0.003759
   1 O :   -0.000031
   2 H :   -0.000007
   3 H :   -0.003419
   4 H :   -0.000056
   5 H :   -0.000155
   6 C :   -0.384774
   7 O :   -0.089074
   8 H :    0.178594
   9 H :    0.110159
  10 H :    0.090516
  11 H :    0.102006

  Mayer bond orders larger than 0.1
B(  6-C ,  7-O ) :   0.9991 B(  6-C ,  9-H ) :   0.9740 B(  6-C , 10-H ) :   0.9658
B(  6-C , 11-H ) :   0.9761 B(  7-O ,  8-H ) :   0.8936

Dispersion correction           -0.000263429
FINAL SINGLE POINT ENERGY      -115.734004057577

DIPOLE MOMENT
-------------
                                X             Y             Z
Electronic contribution:     -1.12098       1.40925      -0.57485
Nuclear contribution   :      1.76724      -1.56592       0.37815
                        -----------------------------------------
Total Dipole Moment    :      0.64625      -0.15668      -0.19670
                        -----------------------------------------
Magnitude (a.u.)       :      0.69346
Magnitude (Debye)      :      1.76262

Rotational constants in cm-1:     4.209835     0.812262     0.776272
Rotational constants in MHz : 126207.674629 24351.006438 23272.044773

                             ****ORCA TERMINATED NORMALLY****
TOTAL RUN TIME: 0 days 0 hours 1 minutes 5 seconds 959 msec
