                         Program Version 4.1.2  - RELEASE  -
|  1> #Run DFT-D3 single point of the dimer
|  2> ! wB97X-D3 def2-TZVP TIGHTSCF CHELPG PMODEL PAL8
|  3>
|  4> %base "18-71_DFT_AB"
|  5>
|  6> %scf
|  7> MaxIter 1000
|  8> end
|  9>
| 10> * xyz 0 1
| 11>   C                      -9.376882            2.477543             -4.713638
| 12>   O                      -8.879101            1.249759             -4.251672
| 13>   H                      -8.504587            1.328272             -3.362079
| 14>   H                      -8.510873            3.150077             -4.795730
| 15>   H                      -9.919677            2.295343             -5.655822
| 16>   H                      -10.081456           2.950234             -3.991283
| 17>   C                      -9.141681            1.126065             -9.212686
| 18>   O                      -9.397543            1.739633             -7.958958
| 19>   H                      -10.288361           1.627648             -7.600208
| 20>   H                      -9.376908            0.033728             -9.233123
| 21>   H                      -9.651895            1.656308             -9.992058
| 22>   H                      -8.030558            1.063212             -9.437059
| 23> *
| 24>
| 25> #Run DFT-D3 single point of the molecule with dimer basis set
| 26> $new_job
| 27> %base "18-71_DFT_A"
| 28> ! wB97X-D3 def2-TZVP TIGHTSCF CHELPG PMODEL
| 29>
| 30> %scf
| 31> MaxIter 1000
| 32> end
| 33>
| 34> * xyz 0 1
| 35>   C                      -9.376882            2.477543             -4.713638
| 36>   O                      -8.879101            1.249759             -4.251672
| 37>   H                      -8.504587            1.328272             -3.362079
| 38>   H                      -8.510873            3.150077             -4.795730
| 39>   H                      -9.919677            2.295343             -5.655822
| 40>   H                      -10.081456           2.950234             -3.991283
| 41>   C                    : -9.141681            1.126065             -9.212686
| 42>   O                    : -9.397543            1.739633             -7.958958
| 43>   H                    : -10.288361           1.627648             -7.600208
| 44>   H                    : -9.376908            0.033728             -9.233123
| 45>   H                    : -9.651895            1.656308             -9.992058
| 46>   H                    : -8.030558            1.063212             -9.437059
| 47> *
| 48>
| 49> #Run DFT-D3 single point of the particle with dimer basis set
| 50> $new_job
| 51> %base "18-71_DFT_B"
| 52> ! wB97X-D3 def2-TZVP TIGHTSCF CHELPG PMODEL
| 53>
| 54> %scf
| 55> MaxIter 1000
| 56> end
| 57>
| 58> * xyz 0 1
| 59>   C                    : -9.376882            2.477543             -4.713638
| 60>   O                    : -8.879101            1.249759             -4.251672
| 61>   H                    : -8.504587            1.328272             -3.362079
| 62>   H                    : -8.510873            3.150077             -4.795730
| 63>   H                    : -9.919677            2.295343             -5.655822
| 64>   H                    : -10.081456           2.950234             -3.991283
| 65>   C                      -9.141681            1.126065             -9.212686
| 66>   O                      -9.397543            1.739633             -7.958958
| 67>   H                      -10.288361           1.627648             -7.600208
| 68>   H                      -9.376908            0.033728             -9.233123
| 69>   H                      -9.651895            1.656308             -9.992058
| 70>   H                      -8.030558            1.063212             -9.437059
| 71> *
| 72>
| 73>                          ****END OF INPUT****
 Total Charge           Charge          ....    0
 Multiplicity           Mult            ....    1
 Number of Electrons    NEL             ....   36
Dispersion correction           -0.001398611
FINAL SINGLE POINT ENERGY      -231.464697388962
Dispersion correction           -0.000233081
FINAL SINGLE POINT ENERGY      -115.734728568694

CARTESIAN COORDINATES (ANGSTROEM)
---------------------------------
  C     -9.376882    2.477543   -4.713638
  O     -8.879101    1.249759   -4.251672
  H     -8.504587    1.328272   -3.362079
  H     -8.510873    3.150077   -4.795730
  H     -9.919677    2.295343   -5.655822
  H    -10.081456    2.950234   -3.991283
  C     -9.141681    1.126065   -9.212686
  O     -9.397543    1.739633   -7.958958
  H    -10.288361    1.627648   -7.600208
  H     -9.376908    0.033728   -9.233123
  H     -9.651895    1.656308   -9.992058
  H     -8.030558    1.063212   -9.437059

 Multiplicity           Mult            ....    1
 Number of Electrons    NEL             ....   18
 Basis Dimension        Dim             ....  172

ORBITAL ENERGIES
----------------

  NO   OCC          E(Eh)            E(eV)
   0   2.0000     -19.228837      -523.2432
   1   2.0000     -10.319071      -280.7962
   2   2.0000      -1.128360       -30.7042
   3   2.0000      -0.796424       -21.6718
   4   2.0000      -0.609343       -16.5811
   5   2.0000      -0.549744       -14.9593
   6   2.0000      -0.518541       -14.1102
   7   2.0000      -0.416710       -11.3393
   8   2.0000      -0.375735       -10.2243
   9   0.0000       0.092065         2.5052
  10   0.0000       0.124047         3.3755
  11   0.0000       0.147149         4.0041
  12   0.0000       0.181016         4.9257
  13   0.0000       0.195234         5.3126

MULLIKEN ATOMIC CHARGES
-----------------------
   0 C :    0.000812
   1 O :    0.000206
   2 H :    0.000017
   3 H :   -0.000469
   4 H :   -0.007472
   5 H :   -0.000292
   6 C :   -0.154639
   7 O :   -0.486408
   8 H :    0.322586
   9 H :    0.099560
  10 H :    0.106278
  11 H :    0.119822
Sum of atomic charges:   -0.0000000

LOEWDIN ATOMIC CHARGES
----------------------
   0 C :   -0.009003
   1 O :   -0.000334
   2 H :   -0.000020
   3 H :   -0.000434
   4 H :   -0.009599
   5 H :   -0.000087
   6 C :   -0.384972
   7 O :   -0.076941
   8 H :    0.174447
   9 H :    0.098521
  10 H :    0.090578
  11 H :    0.117845

  Mayer bond orders larger than 0.1
B(  6-C ,  7-O ) :   0.9914 B(  6-C ,  9-H ) :   0.9746 B(  6-C , 10-H ) :   0.9765
B(  6-C , 11-H ) :   0.9701 B(  7-O ,  8-H ) :   0.8870

Dispersion correction           -0.000275052
FINAL SINGLE POINT ENERGY      -115.731364567415

DIPOLE MOMENT
-------------
                                X             Y             Z
Electronic contribution:     -0.30770       0.90480       1.55942
Nuclear contribution   :     -0.16262      -1.24626      -1.85772
                        -----------------------------------------
Total Dipole Moment    :     -0.47031      -0.34146      -0.29830
                        -----------------------------------------
Magnitude (a.u.)       :      0.65328
Magnitude (Debye)      :      1.66050

Rotational constants in cm-1:     4.370122     0.803809     0.785223
Rotational constants in MHz : 131012.962399 24097.589856 23540.396381

                             ****ORCA TERMINATED NORMALLY****
TOTAL RUN TIME: 0 days 0 hours 1 minutes 2 seconds 752 msec
