                         Program Version 4.1.2  - RELEASE  -
|  1> #Run DFT-D3 single point of the dimer
|  2> ! wB97X-D3 def2-TZVP TIGHTSCF CHELPG PMODEL PAL8
|  3>
|  4> %base "7-215_DFT_AB"
|  5>
|  6> %scf
|  7> MaxIter 1000
|  8> end
|  9>
| 10> * xyz 0 1
| 11>   C                      -1.496025            -3.382061            9.589148
| 12>   O                      -1.734537            -4.354403            10.559055
| 13>   H                      -2.216467            -5.054147            10.057204
| 14>   H                      -1.783955            -2.461542            10.078771
| 15>   H                      -0.408844            -3.244128            9.341061
| 16>   H                      -2.129496            -3.422291            8.704977
| 17>   C                      -3.041716            -8.580701            10.183500
| 18>   O                      -2.446202            -7.283140            10.296942
| 19>   H                      -1.936163            -7.244868            11.073642
| 20>   H                      -3.982224            -8.650571            10.811262
| 21>   H                      -3.210273            -8.869459            9.112257
| 22>   H                      -2.420486            -9.356840            10.629508
| 23> *
| 24>
| 25> #Run DFT-D3 single point of the molecule with dimer basis set
| 26> $new_job
| 27> %base "7-215_DFT_A"
| 28> ! wB97X-D3 def2-TZVP TIGHTSCF CHELPG PMODEL
| 29>
| 30> %scf
| 31> MaxIter 1000
| 32> end
| 33>
| 34> * xyz 0 1
| 35>   C                      -1.496025            -3.382061            9.589148
| 36>   O                      -1.734537            -4.354403            10.559055
| 37>   H                      -2.216467            -5.054147            10.057204
| 38>   H                      -1.783955            -2.461542            10.078771
| 39>   H                      -0.408844            -3.244128            9.341061
| 40>   H                      -2.129496            -3.422291            8.704977
| 41>   C                    : -3.041716            -8.580701            10.183500
| 42>   O                    : -2.446202            -7.283140            10.296942
| 43>   H                    : -1.936163            -7.244868            11.073642
| 44>   H                    : -3.982224            -8.650571            10.811262
| 45>   H                    : -3.210273            -8.869459            9.112257
| 46>   H                    : -2.420486            -9.356840            10.629508
| 47> *
| 48>
| 49> #Run DFT-D3 single point of the particle with dimer basis set
| 50> $new_job
| 51> %base "7-215_DFT_B"
| 52> ! wB97X-D3 def2-TZVP TIGHTSCF CHELPG PMODEL
| 53>
| 54> %scf
| 55> MaxIter 1000
| 56> end
| 57>
| 58> * xyz 0 1
| 59>   C                    : -1.496025            -3.382061            9.589148
| 60>   O                    : -1.734537            -4.354403            10.559055
| 61>   H                    : -2.216467            -5.054147            10.057204
| 62>   H                    : -1.783955            -2.461542            10.078771
| 63>   H                    : -0.408844            -3.244128            9.341061
| 64>   H                    : -2.129496            -3.422291            8.704977
| 65>   C                      -3.041716            -8.580701            10.183500
| 66>   O                      -2.446202            -7.283140            10.296942
| 67>   H                      -1.936163            -7.244868            11.073642
| 68>   H                      -3.982224            -8.650571            10.811262
| 69>   H                      -3.210273            -8.869459            9.112257
| 70>   H                      -2.420486            -9.356840            10.629508
| 71> *
| 72>
| 73>                          ****END OF INPUT****
 Total Charge           Charge          ....    0
 Multiplicity           Mult            ....    1
 Number of Electrons    NEL             ....   36
Dispersion correction           -0.001277877
FINAL SINGLE POINT ENERGY      -231.469425951979
Dispersion correction           -0.000241054
FINAL SINGLE POINT ENERGY      -115.730141200905

CARTESIAN COORDINATES (ANGSTROEM)
---------------------------------
  C     -1.496025   -3.382061    9.589148
  O     -1.734537   -4.354403   10.559055
  H     -2.216467   -5.054147   10.057204
  H     -1.783955   -2.461542   10.078771
  H     -0.408844   -3.244128    9.341061
  H     -2.129496   -3.422291    8.704977
  C     -3.041716   -8.580701   10.183500
  O     -2.446202   -7.283140   10.296942
  H     -1.936163   -7.244868   11.073642
  H     -3.982224   -8.650571   10.811262
  H     -3.210273   -8.869459    9.112257
  H     -2.420486   -9.356840   10.629508

 Multiplicity           Mult            ....    1
 Number of Electrons    NEL             ....   18
 Basis Dimension        Dim             ....  172

ORBITAL ENERGIES
----------------

  NO   OCC          E(Eh)            E(eV)
   0   2.0000     -19.229032      -523.2486
   1   2.0000     -10.322683      -280.8945
   2   2.0000      -1.137329       -30.9483
   3   2.0000      -0.795583       -21.6489
   4   2.0000      -0.615459       -16.7475
   5   2.0000      -0.535742       -14.5783
   6   2.0000      -0.521270       -14.1845
   7   2.0000      -0.436479       -11.8772
   8   2.0000      -0.374177       -10.1819
   9   0.0000       0.097781         2.6608
  10   0.0000       0.119723         3.2578
  11   0.0000       0.149488         4.0678
  12   0.0000       0.191632         5.2146
  13   0.0000       0.200768         5.4632

MULLIKEN ATOMIC CHARGES
-----------------------
   0 C :    0.000518
   1 O :   -0.000310
   2 H :   -0.010099
   3 H :   -0.000034
   4 H :    0.000033
   5 H :   -0.000160
   6 C :   -0.169145
   7 O :   -0.462544
   8 H :    0.311627
   9 H :    0.099702
  10 H :    0.123851
  11 H :    0.106561
Sum of atomic charges:   -0.0000000

LOEWDIN ATOMIC CHARGES
----------------------
   0 C :   -0.000477
   1 O :   -0.003203
   2 H :   -0.021066
   3 H :   -0.000009
   4 H :   -0.000004
   5 H :   -0.000024
   6 C :   -0.375980
   7 O :   -0.058027
   8 H :    0.149694
   9 H :    0.101693
  10 H :    0.113518
  11 H :    0.093885

  Mayer bond orders larger than 0.1
B(  6-C ,  7-O ) :   0.9935 B(  6-C ,  9-H ) :   0.9721 B(  6-C , 10-H ) :   0.9723
B(  6-C , 11-H ) :   0.9751 B(  7-O ,  8-H ) :   0.9025

Dispersion correction           -0.000260055
FINAL SINGLE POINT ENERGY      -115.732587232098

DIPOLE MOMENT
-------------
                                X             Y             Z
Electronic contribution:      0.72816       1.72236      -0.05021
Nuclear contribution   :     -0.60513      -2.25693       0.51996
                        -----------------------------------------
Total Dipole Moment    :      0.12303      -0.53456       0.46974
                        -----------------------------------------
Magnitude (a.u.)       :      0.72219
Magnitude (Debye)      :      1.83565

Rotational constants in cm-1:     4.256679     0.807268     0.778611
Rotational constants in MHz : 127612.017487 24201.296080 23342.161456

                             ****ORCA TERMINATED NORMALLY****
TOTAL RUN TIME: 0 days 0 hours 0 minutes 59 seconds 740 msec
