                         Program Version 4.1.2  - RELEASE  -
|  1> #Run DFT-D3 single point of the dimer
|  2> ! wB97X-D3 def2-TZVP TIGHTSCF CHELPG PMODEL PAL8
|  3>
|  4> %base "16-198_DFT_AB"
|  5>
|  6> %scf
|  7> MaxIter 1000
|  8> end
|  9>
| 10> * xyz 0 1
| 11>   C                      -3.395351            6.784384             -2.825919
| 12>   O                      -2.005420            6.710775             -2.876607
| 13>   H                      -1.705436            7.353029             -3.498786
| 14>   H                      -3.842138            6.211098             -2.027504
| 15>   H                      -3.718787            7.793426             -2.627136
| 16>   H                      -3.854678            6.426844             -3.776562
| 17>   C                      -0.630207            7.769372             -6.299508
| 18>   O                      -1.047571            8.513318             -5.194869
| 19>   H                      -0.866806            9.427100             -5.300580
| 20>   H                      -1.383374            7.904799             -7.109928
| 21>   H                      0.363272             8.079789             -6.641043
| 22>   H                      -0.580763            6.721230             -6.068428
| 23> *
| 24>
| 25> #Run DFT-D3 single point of the molecule with dimer basis set
| 26> $new_job
| 27> %base "16-198_DFT_A"
| 28> ! wB97X-D3 def2-TZVP TIGHTSCF CHELPG PMODEL
| 29>
| 30> %scf
| 31> MaxIter 1000
| 32> end
| 33>
| 34> * xyz 0 1
| 35>   C                      -3.395351            6.784384             -2.825919
| 36>   O                      -2.005420            6.710775             -2.876607
| 37>   H                      -1.705436            7.353029             -3.498786
| 38>   H                      -3.842138            6.211098             -2.027504
| 39>   H                      -3.718787            7.793426             -2.627136
| 40>   H                      -3.854678            6.426844             -3.776562
| 41>   C                    : -0.630207            7.769372             -6.299508
| 42>   O                    : -1.047571            8.513318             -5.194869
| 43>   H                    : -0.866806            9.427100             -5.300580
| 44>   H                    : -1.383374            7.904799             -7.109928
| 45>   H                    : 0.363272             8.079789             -6.641043
| 46>   H                    : -0.580763            6.721230             -6.068428
| 47> *
| 48>
| 49> #Run DFT-D3 single point of the particle with dimer basis set
| 50> $new_job
| 51> %base "16-198_DFT_B"
| 52> ! wB97X-D3 def2-TZVP TIGHTSCF CHELPG PMODEL
| 53>
| 54> %scf
| 55> MaxIter 1000
| 56> end
| 57>
| 58> * xyz 0 1
| 59>   C                    : -3.395351            6.784384             -2.825919
| 60>   O                    : -2.005420            6.710775             -2.876607
| 61>   H                    : -1.705436            7.353029             -3.498786
| 62>   H                    : -3.842138            6.211098             -2.027504
| 63>   H                    : -3.718787            7.793426             -2.627136
| 64>   H                    : -3.854678            6.426844             -3.776562
| 65>   C                      -0.630207            7.769372             -6.299508
| 66>   O                      -1.047571            8.513318             -5.194869
| 67>   H                      -0.866806            9.427100             -5.300580
| 68>   H                      -1.383374            7.904799             -7.109928
| 69>   H                      0.363272             8.079789             -6.641043
| 70>   H                      -0.580763            6.721230             -6.068428
| 71> *
| 72>
| 73>                          ****END OF INPUT****
 Total Charge           Charge          ....    0
 Multiplicity           Mult            ....    1
 Number of Electrons    NEL             ....   36
Dispersion correction           -0.001614778
FINAL SINGLE POINT ENERGY      -231.479002040638
Dispersion correction           -0.000228169
FINAL SINGLE POINT ENERGY      -115.735222797912

CARTESIAN COORDINATES (ANGSTROEM)
---------------------------------
  C     -3.395351    6.784384   -2.825919
  O     -2.005420    6.710775   -2.876607
  H     -1.705436    7.353029   -3.498786
  H     -3.842138    6.211098   -2.027504
  H     -3.718787    7.793426   -2.627136
  H     -3.854678    6.426844   -3.776562
  C     -0.630207    7.769372   -6.299508
  O     -1.047571    8.513318   -5.194869
  H     -0.866806    9.427100   -5.300580
  H     -1.383374    7.904799   -7.109928
  H      0.363272    8.079789   -6.641043
  H     -0.580763    6.721230   -6.068428

 Multiplicity           Mult            ....    1
 Number of Electrons    NEL             ....   18
 Basis Dimension        Dim             ....  172

ORBITAL ENERGIES
----------------

  NO   OCC          E(Eh)            E(eV)
   0   2.0000     -19.225437      -523.1507
   1   2.0000     -10.312921      -280.6289
   2   2.0000      -1.143530       -31.1170
   3   2.0000      -0.798845       -21.7377
   4   2.0000      -0.615110       -16.7380
   5   2.0000      -0.544182       -14.8079
   6   2.0000      -0.535445       -14.5702
   7   2.0000      -0.428309       -11.6549
   8   2.0000      -0.371354       -10.1051
   9   0.0000       0.099529         2.7083
  10   0.0000       0.124935         3.3996
  11   0.0000       0.155639         4.2351
  12   0.0000       0.186073         5.0633
  13   0.0000       0.201315         5.4781

MULLIKEN ATOMIC CHARGES
-----------------------
   0 C :   -0.000111
   1 O :    0.000004
   2 H :   -0.007686
   3 H :   -0.000175
   4 H :   -0.000733
   5 H :   -0.000455
   6 C :   -0.143319
   7 O :   -0.470685
   8 H :    0.310432
   9 H :    0.095841
  10 H :    0.094643
  11 H :    0.122245
Sum of atomic charges:   -0.0000000

LOEWDIN ATOMIC CHARGES
----------------------
   0 C :   -0.002321
   1 O :   -0.002268
   2 H :   -0.025618
   3 H :   -0.000040
   4 H :   -0.000267
   5 H :   -0.000194
   6 C :   -0.388578
   7 O :   -0.032182
   8 H :    0.153900
   9 H :    0.098481
  10 H :    0.094563
  11 H :    0.104525

  Mayer bond orders larger than 0.1
B(  6-C ,  7-O ) :   0.9905 B(  6-C ,  9-H ) :   0.9789 B(  6-C , 10-H ) :   0.9771
B(  6-C , 11-H ) :   0.9741 B(  7-O ,  8-H ) :   0.8999

Dispersion correction           -0.000232875
FINAL SINGLE POINT ENERGY      -115.735546767084

DIPOLE MOMENT
-------------
                                X             Y             Z
Electronic contribution:     -0.51753       0.81748       1.49654
Nuclear contribution   :      0.82253      -0.52339      -1.99769
                        -----------------------------------------
Total Dipole Moment    :      0.30500       0.29409      -0.50115
                        -----------------------------------------
Magnitude (a.u.)       :      0.65625
Magnitude (Debye)      :      1.66806

Rotational constants in cm-1:     4.347992     0.844796     0.821923
Rotational constants in MHz : 130349.515367 25326.336442 24640.636548

                             ****ORCA TERMINATED NORMALLY****
TOTAL RUN TIME: 0 days 0 hours 1 minutes 1 seconds 558 msec
