                         Program Version 4.1.2  - RELEASE  -
|  1> #Run DFT-D3 single point of the dimer
|  2> ! wB97X-D3 def2-TZVP TIGHTSCF CHELPG PMODEL PAL8
|  3>
|  4> %base "17-119_DFT_AB"
|  5>
|  6> %scf
|  7> MaxIter 1000
|  8> end
|  9>
| 10> * xyz 0 1
| 11>   C                      -4.988998            9.601026             -3.583272
| 12>   O                      -3.625614            9.389035             -3.176934
| 13>   H                      -3.637029            9.435312             -2.249069
| 14>   H                      -5.701993            9.682365             -2.747060
| 15>   H                      -5.095622            10.449238            -4.301233
| 16>   H                      -5.365626            8.684799             -4.130717
| 17>   C                      -0.918051            9.986518             -4.696559
| 18>   O                      0.482540             9.792273             -5.105386
| 19>   H                      0.396491             9.328244             -5.962615
| 20>   H                      -1.468727            10.746023            -5.246948
| 21>   H                      -1.570204            9.126121             -4.893993
| 22>   H                      -1.051724            10.273759            -3.662889
| 23> *
| 24>
| 25> #Run DFT-D3 single point of the molecule with dimer basis set
| 26> $new_job
| 27> %base "17-119_DFT_A"
| 28> ! wB97X-D3 def2-TZVP TIGHTSCF CHELPG PMODEL
| 29>
| 30> %scf
| 31> MaxIter 1000
| 32> end
| 33>
| 34> * xyz 0 1
| 35>   C                      -4.988998            9.601026             -3.583272
| 36>   O                      -3.625614            9.389035             -3.176934
| 37>   H                      -3.637029            9.435312             -2.249069
| 38>   H                      -5.701993            9.682365             -2.747060
| 39>   H                      -5.095622            10.449238            -4.301233
| 40>   H                      -5.365626            8.684799             -4.130717
| 41>   C                    : -0.918051            9.986518             -4.696559
| 42>   O                    : 0.482540             9.792273             -5.105386
| 43>   H                    : 0.396491             9.328244             -5.962615
| 44>   H                    : -1.468727            10.746023            -5.246948
| 45>   H                    : -1.570204            9.126121             -4.893993
| 46>   H                    : -1.051724            10.273759            -3.662889
| 47> *
| 48>
| 49> #Run DFT-D3 single point of the particle with dimer basis set
| 50> $new_job
| 51> %base "17-119_DFT_B"
| 52> ! wB97X-D3 def2-TZVP TIGHTSCF CHELPG PMODEL
| 53>
| 54> %scf
| 55> MaxIter 1000
| 56> end
| 57>
| 58> * xyz 0 1
| 59>   C                    : -4.988998            9.601026             -3.583272
| 60>   O                    : -3.625614            9.389035             -3.176934
| 61>   H                    : -3.637029            9.435312             -2.249069
| 62>   H                    : -5.701993            9.682365             -2.747060
| 63>   H                    : -5.095622            10.449238            -4.301233
| 64>   H                    : -5.365626            8.684799             -4.130717
| 65>   C                      -0.918051            9.986518             -4.696559
| 66>   O                      0.482540             9.792273             -5.105386
| 67>   H                      0.396491             9.328244             -5.962615
| 68>   H                      -1.468727            10.746023            -5.246948
| 69>   H                      -1.570204            9.126121             -4.893993
| 70>   H                      -1.051724            10.273759            -3.662889
| 71> *
| 72>
| 73>                          ****END OF INPUT****
 Total Charge           Charge          ....    0
 Multiplicity           Mult            ....    1
 Number of Electrons    NEL             ....   36
Dispersion correction           -0.001719365
FINAL SINGLE POINT ENERGY      -231.463237321758
Dispersion correction           -0.000269140
FINAL SINGLE POINT ENERGY      -115.732066675140

CARTESIAN COORDINATES (ANGSTROEM)
---------------------------------
  C     -4.988998    9.601026   -3.583272
  O     -3.625614    9.389035   -3.176934
  H     -3.637029    9.435312   -2.249069
  H     -5.701993    9.682365   -2.747060
  H     -5.095622   10.449238   -4.301233
  H     -5.365626    8.684799   -4.130717
  C     -0.918051    9.986518   -4.696559
  O      0.482540    9.792273   -5.105386
  H      0.396491    9.328244   -5.962615
  H     -1.468727   10.746023   -5.246948
  H     -1.570204    9.126121   -4.893993
  H     -1.051724   10.273759   -3.662889

 Multiplicity           Mult            ....    1
 Number of Electrons    NEL             ....   18
 Basis Dimension        Dim             ....  172

ORBITAL ENERGIES
----------------

  NO   OCC          E(Eh)            E(eV)
   0   2.0000     -19.239024      -523.5204
   1   2.0000     -10.316879      -280.7366
   2   2.0000      -1.121310       -30.5124
   3   2.0000      -0.800683       -21.7877
   4   2.0000      -0.603220       -16.4144
   5   2.0000      -0.526200       -14.3186
   6   2.0000      -0.522463       -14.2169
   7   2.0000      -0.448746       -12.2110
   8   2.0000      -0.376168       -10.2361
   9   0.0000       0.077245         2.1019
  10   0.0000       0.112983         3.0744
  11   0.0000       0.143007         3.8914
  12   0.0000       0.161777         4.4022
  13   0.0000       0.181974         4.9518

MULLIKEN ATOMIC CHARGES
-----------------------
   0 C :   -0.000550
   1 O :   -0.000846
   2 H :   -0.000287
   3 H :    0.000012
   4 H :   -0.000034
   5 H :    0.000023
   6 C :   -0.194497
   7 O :   -0.467579
   8 H :    0.316504
   9 H :    0.108552
  10 H :    0.110445
  11 H :    0.128256
Sum of atomic charges:    0.0000000

LOEWDIN ATOMIC CHARGES
----------------------
   0 C :   -0.000804
   1 O :   -0.005428
   2 H :   -0.000691
   3 H :   -0.000014
   4 H :   -0.000073
   5 H :   -0.000039
   6 C :   -0.357730
   7 O :   -0.116417
   8 H :    0.179758
   9 H :    0.095346
  10 H :    0.099224
  11 H :    0.106869

  Mayer bond orders larger than 0.1
B(  6-C ,  7-O ) :   1.0049 B(  6-C ,  9-H ) :   0.9680 B(  6-C , 10-H ) :   0.9766
B(  6-C , 11-H ) :   0.9744 B(  7-O ,  8-H ) :   0.8997

Dispersion correction           -0.000276601
FINAL SINGLE POINT ENERGY      -115.729114659771

DIPOLE MOMENT
-------------
                                X             Y             Z
Electronic contribution:      1.98947      -0.17824      -0.32248
Nuclear contribution   :     -2.63202      -0.02428      -0.04041
                        -----------------------------------------
Total Dipole Moment    :     -0.64256      -0.20252      -0.36289
                        -----------------------------------------
Magnitude (a.u.)       :      0.76524
Magnitude (Debye)      :      1.94507

Rotational constants in cm-1:     4.440821     0.772966     0.737471
Rotational constants in MHz : 133132.461536 23172.925774 22108.822334

                             ****ORCA TERMINATED NORMALLY****
TOTAL RUN TIME: 0 days 0 hours 1 minutes 3 seconds 652 msec
