                         Program Version 4.1.2  - RELEASE  -
|  1> #Run DFT-D3 single point of the dimer
|  2> ! wB97X-D3 def2-TZVP TIGHTSCF CHELPG PMODEL PAL8
|  3>
|  4> %base "2-15_DFT_AB"
|  5>
|  6> %scf
|  7> MaxIter 1000
|  8> end
|  9>
| 10> * xyz 0 1
| 11>   C                      3.632446             -6.994954            3.184119
| 12>   O                      4.407674             -7.329784            1.949356
| 13>   H                      4.084722             -6.757850            1.277197
| 14>   H                      3.654814             -7.907382            3.783212
| 15>   H                      4.085916             -6.202538            3.691906
| 16>   H                      2.536765             -6.837212            2.963092
| 17>   C                      0.357423             -6.558365            4.784156
| 18>   O                      -0.415425            -7.731200            4.654204
| 19>   H                      -1.010567            -7.971096            5.396532
| 20>   H                      1.043747             -6.537130            5.675215
| 21>   H                      1.034653             -6.491278            3.907203
| 22>   H                      -0.222701            -5.699073            4.907246
| 23> *
| 24>
| 25> #Run DFT-D3 single point of the molecule with dimer basis set
| 26> $new_job
| 27> %base "2-15_DFT_A"
| 28> ! wB97X-D3 def2-TZVP TIGHTSCF CHELPG PMODEL
| 29>
| 30> %scf
| 31> MaxIter 1000
| 32> end
| 33>
| 34> * xyz 0 1
| 35>   C                      3.632446             -6.994954            3.184119
| 36>   O                      4.407674             -7.329784            1.949356
| 37>   H                      4.084722             -6.757850            1.277197
| 38>   H                      3.654814             -7.907382            3.783212
| 39>   H                      4.085916             -6.202538            3.691906
| 40>   H                      2.536765             -6.837212            2.963092
| 41>   C                    : 0.357423             -6.558365            4.784156
| 42>   O                    : -0.415425            -7.731200            4.654204
| 43>   H                    : -1.010567            -7.971096            5.396532
| 44>   H                    : 1.043747             -6.537130            5.675215
| 45>   H                    : 1.034653             -6.491278            3.907203
| 46>   H                    : -0.222701            -5.699073            4.907246
| 47> *
| 48>
| 49> #Run DFT-D3 single point of the particle with dimer basis set
| 50> $new_job
| 51> %base "2-15_DFT_B"
| 52> ! wB97X-D3 def2-TZVP TIGHTSCF CHELPG PMODEL
| 53>
| 54> %scf
| 55> MaxIter 1000
| 56> end
| 57>
| 58> * xyz 0 1
| 59>   C                    : 3.632446             -6.994954            3.184119
| 60>   O                    : 4.407674             -7.329784            1.949356
| 61>   H                    : 4.084722             -6.757850            1.277197
| 62>   H                    : 3.654814             -7.907382            3.783212
| 63>   H                    : 4.085916             -6.202538            3.691906
| 64>   H                    : 2.536765             -6.837212            2.963092
| 65>   C                      0.357423             -6.558365            4.784156
| 66>   O                      -0.415425            -7.731200            4.654204
| 67>   H                      -1.010567            -7.971096            5.396532
| 68>   H                      1.043747             -6.537130            5.675215
| 69>   H                      1.034653             -6.491278            3.907203
| 70>   H                      -0.222701            -5.699073            4.907246
| 71> *
| 72>
| 73>                          ****END OF INPUT****
 Total Charge           Charge          ....    0
 Multiplicity           Mult            ....    1
 Number of Electrons    NEL             ....   36
Dispersion correction           -0.001586168
FINAL SINGLE POINT ENERGY      -231.460020528493
Dispersion correction           -0.000266601
FINAL SINGLE POINT ENERGY      -115.730443864043

CARTESIAN COORDINATES (ANGSTROEM)
---------------------------------
  C      3.632446   -6.994954    3.184119
  O      4.407674   -7.329784    1.949356
  H      4.084722   -6.757850    1.277197
  H      3.654814   -7.907382    3.783212
  H      4.085916   -6.202538    3.691906
  H      2.536765   -6.837212    2.963092
  C      0.357423   -6.558365    4.784156
  O     -0.415425   -7.731200    4.654204
  H     -1.010567   -7.971096    5.396532
  H      1.043747   -6.537130    5.675215
  H      1.034653   -6.491278    3.907203
  H     -0.222701   -5.699073    4.907246

 Multiplicity           Mult            ....    1
 Number of Electrons    NEL             ....   18
 Basis Dimension        Dim             ....  172

ORBITAL ENERGIES
----------------

  NO   OCC          E(Eh)            E(eV)
   0   2.0000     -19.229056      -523.2492
   1   2.0000     -10.313303      -280.6392
   2   2.0000      -1.127137       -30.6710
   3   2.0000      -0.798769       -21.7356
   4   2.0000      -0.615888       -16.7592
   5   2.0000      -0.540330       -14.7031
   6   2.0000      -0.521472       -14.1900
   7   2.0000      -0.424141       -11.5415
   8   2.0000      -0.371015       -10.0958
   9   0.0000       0.089439         2.4337
  10   0.0000       0.116254         3.1634
  11   0.0000       0.152052         4.1375
  12   0.0000       0.177171         4.8211
  13   0.0000       0.189556         5.1581

MULLIKEN ATOMIC CHARGES
-----------------------
   0 C :   -0.007114
   1 O :    0.000045
   2 H :   -0.000013
   3 H :    0.000786
   4 H :    0.000807
   5 H :    0.007706
   6 C :   -0.136560
   7 O :   -0.497416
   8 H :    0.320969
   9 H :    0.089226
  10 H :    0.114741
  11 H :    0.106824
Sum of atomic charges:   -0.0000000

LOEWDIN ATOMIC CHARGES
----------------------
   0 C :   -0.008370
   1 O :   -0.000030
   2 H :   -0.000005
   3 H :   -0.000294
   4 H :   -0.000252
   5 H :   -0.014085
   6 C :   -0.377968
   7 O :   -0.084910
   8 H :    0.178437
   9 H :    0.098862
  10 H :    0.126038
  11 H :    0.082576

  Mayer bond orders larger than 0.1
B(  6-C ,  7-O ) :   1.0104 B(  6-C ,  9-H ) :   0.9781 B(  6-C , 10-H ) :   0.9724
B(  6-C , 11-H ) :   0.9768 B(  7-O ,  8-H ) :   0.8863

Dispersion correction           -0.000272249
FINAL SINGLE POINT ENERGY      -115.731210241482

DIPOLE MOMENT
-------------
                                X             Y             Z
Electronic contribution:     -1.04657      -1.47369      -0.31919
Nuclear contribution   :      0.96328       1.80771       0.85693
                        -----------------------------------------
Total Dipole Moment    :     -0.08328       0.33402       0.53774
                        -----------------------------------------
Magnitude (a.u.)       :      0.63849
Magnitude (Debye)      :      1.62291

Rotational constants in cm-1:     4.457128     0.819546     0.786706
Rotational constants in MHz : 133621.341887 24569.380803 23584.842879

                             ****ORCA TERMINATED NORMALLY****
TOTAL RUN TIME: 0 days 0 hours 6 minutes 24 seconds 468 msec
