                         Program Version 4.1.2  - RELEASE  -
|  1> #Run DFT-D3 single point of the dimer
|  2> ! wB97X-D3 def2-TZVP TIGHTSCF CHELPG PMODEL PAL8
|  3>
|  4> %base "21-104_DFT_AB"
|  5>
|  6> %scf
|  7> MaxIter 1000
|  8> end
|  9>
| 10> * xyz 0 1
| 11>   C                      3.968792             8.387656             10.579955
| 12>   O                      3.086890             7.272689             10.231642
| 13>   H                      2.188274             7.650745             10.307865
| 14>   H                      3.545260             8.992403             11.442318
| 15>   H                      4.988270             8.027184             10.820508
| 16>   H                      4.116574             8.997618             9.652648
| 17>   C                      3.910685             9.782445             4.854193
| 18>   O                      4.156895             9.057687             6.072297
| 19>   H                      4.453599             9.647365             6.726900
| 20>   H                      3.645590             9.023861             4.088601
| 21>   H                      3.062189             10.520821            4.999484
| 22>   H                      4.779321             10.393356            4.511406
| 23> *
| 24>
| 25> #Run DFT-D3 single point of the molecule with dimer basis set
| 26> $new_job
| 27> %base "21-104_DFT_A"
| 28> ! wB97X-D3 def2-TZVP TIGHTSCF CHELPG PMODEL
| 29>
| 30> %scf
| 31> MaxIter 1000
| 32> end
| 33>
| 34> * xyz 0 1
| 35>   C                      3.968792             8.387656             10.579955
| 36>   O                      3.086890             7.272689             10.231642
| 37>   H                      2.188274             7.650745             10.307865
| 38>   H                      3.545260             8.992403             11.442318
| 39>   H                      4.988270             8.027184             10.820508
| 40>   H                      4.116574             8.997618             9.652648
| 41>   C                    : 3.910685             9.782445             4.854193
| 42>   O                    : 4.156895             9.057687             6.072297
| 43>   H                    : 4.453599             9.647365             6.726900
| 44>   H                    : 3.645590             9.023861             4.088601
| 45>   H                    : 3.062189             10.520821            4.999484
| 46>   H                    : 4.779321             10.393356            4.511406
| 47> *
| 48>
| 49> #Run DFT-D3 single point of the particle with dimer basis set
| 50> $new_job
| 51> %base "21-104_DFT_B"
| 52> ! wB97X-D3 def2-TZVP TIGHTSCF CHELPG PMODEL
| 53>
| 54> %scf
| 55> MaxIter 1000
| 56> end
| 57>
| 58> * xyz 0 1
| 59>   C                    : 3.968792             8.387656             10.579955
| 60>   O                    : 3.086890             7.272689             10.231642
| 61>   H                    : 2.188274             7.650745             10.307865
| 62>   H                    : 3.545260             8.992403             11.442318
| 63>   H                    : 4.988270             8.027184             10.820508
| 64>   H                    : 4.116574             8.997618             9.652648
| 65>   C                      3.910685             9.782445             4.854193
| 66>   O                      4.156895             9.057687             6.072297
| 67>   H                      4.453599             9.647365             6.726900
| 68>   H                      3.645590             9.023861             4.088601
| 69>   H                      3.062189             10.520821            4.999484
| 70>   H                      4.779321             10.393356            4.511406
| 71> *
| 72>
| 73>                          ****END OF INPUT****
 Total Charge           Charge          ....    0
 Multiplicity           Mult            ....    1
 Number of Electrons    NEL             ....   36
Dispersion correction           -0.000903626
FINAL SINGLE POINT ENERGY      -231.465716981917
Dispersion correction           -0.000261526
FINAL SINGLE POINT ENERGY      -115.731766023651

CARTESIAN COORDINATES (ANGSTROEM)
---------------------------------
  C      3.968792    8.387656   10.579955
  O      3.086890    7.272689   10.231642
  H      2.188274    7.650745   10.307865
  H      3.545260    8.992403   11.442318
  H      4.988270    8.027184   10.820508
  H      4.116574    8.997618    9.652648
  C      3.910685    9.782445    4.854193
  O      4.156895    9.057687    6.072297
  H      4.453599    9.647365    6.726900
  H      3.645590    9.023861    4.088601
  H      3.062189   10.520821    4.999484
  H      4.779321   10.393356    4.511406

 Multiplicity           Mult            ....    1
 Number of Electrons    NEL             ....   18
 Basis Dimension        Dim             ....  172

ORBITAL ENERGIES
----------------

  NO   OCC          E(Eh)            E(eV)
   0   2.0000     -19.227492      -523.2067
   1   2.0000     -10.324409      -280.9415
   2   2.0000      -1.134705       -30.8769
   3   2.0000      -0.793630       -21.5958
   4   2.0000      -0.610863       -16.6224
   5   2.0000      -0.531123       -14.4526
   6   2.0000      -0.522811       -14.2264
   7   2.0000      -0.438469       -11.9314
   8   2.0000      -0.373723       -10.1695
   9   0.0000       0.086483         2.3533
  10   0.0000       0.120312         3.2738
  11   0.0000       0.149648         4.0721
  12   0.0000       0.169182         4.6037
  13   0.0000       0.195412         5.3174

MULLIKEN ATOMIC CHARGES
-----------------------
   0 C :    0.000575
   1 O :    0.000002
   2 H :   -0.000029
   3 H :   -0.000014
   4 H :   -0.000014
   5 H :   -0.001577
   6 C :   -0.169359
   7 O :   -0.473282
   8 H :    0.308163
   9 H :    0.127291
  10 H :    0.101135
  11 H :    0.107109
Sum of atomic charges:    0.0000000

LOEWDIN ATOMIC CHARGES
----------------------
   0 C :   -0.000229
   1 O :   -0.000015
   2 H :   -0.000015
   3 H :   -0.000004
   4 H :   -0.000002
   5 H :   -0.000744
   6 C :   -0.373249
   7 O :   -0.080793
   8 H :    0.144362
   9 H :    0.113413
  10 H :    0.100057
  11 H :    0.097219

  Mayer bond orders larger than 0.1
B(  6-C ,  7-O ) :   0.9938 B(  6-C ,  9-H ) :   0.9726 B(  6-C , 10-H ) :   0.9728
B(  6-C , 11-H ) :   0.9697 B(  7-O ,  8-H ) :   0.9066

Dispersion correction           -0.000260959
FINAL SINGLE POINT ENERGY      -115.734511573211

DIPOLE MOMENT
-------------
                                X             Y             Z
Electronic contribution:      0.31519      -1.05739       1.44976
Nuclear contribution   :     -0.21530       1.72612      -1.52786
                        -----------------------------------------
Total Dipole Moment    :      0.09990       0.66873      -0.07810
                        -----------------------------------------
Magnitude (a.u.)       :      0.68065
Magnitude (Debye)      :      1.73007

Rotational constants in cm-1:     4.160985     0.806707     0.776378
Rotational constants in MHz : 124743.178169 24184.478459 23275.229937

                             ****ORCA TERMINATED NORMALLY****
TOTAL RUN TIME: 0 days 0 hours 0 minutes 58 seconds 545 msec
