                         Program Version 4.1.2  - RELEASE  -
|  1> #Run DFT-D3 single point of the dimer
|  2> ! wB97X-D3 def2-TZVP TIGHTSCF CHELPG PMODEL PAL8
|  3>
|  4> %base "11-142_DFT_AB"
|  5>
|  6> %scf
|  7> MaxIter 1000
|  8> end
|  9>
| 10> * xyz 0 1
| 11>   C                      3.963104             -1.894302            -6.831238
| 12>   O                      4.841024             -1.628224            -5.724773
| 13>   H                      5.315042             -2.462843            -5.462940
| 14>   H                      3.675892             -0.939994            -7.360445
| 15>   H                      4.399781             -2.566132            -7.606293
| 16>   H                      3.045565             -2.437522            -6.505905
| 17>   C                      8.646231             -1.958469            -3.312155
| 18>   O                      7.547411             -2.653396            -3.876783
| 19>   H                      7.793947             -3.542123            -3.734805
| 20>   H                      9.647305             -2.365441            -3.471859
| 21>   H                      8.725304             -0.948083            -3.729815
| 22>   H                      8.600346             -1.880369            -2.218231
| 23> *
| 24>
| 25> #Run DFT-D3 single point of the molecule with dimer basis set
| 26> $new_job
| 27> %base "11-142_DFT_A"
| 28> ! wB97X-D3 def2-TZVP TIGHTSCF CHELPG PMODEL
| 29>
| 30> %scf
| 31> MaxIter 1000
| 32> end
| 33>
| 34> * xyz 0 1
| 35>   C                      3.963104             -1.894302            -6.831238
| 36>   O                      4.841024             -1.628224            -5.724773
| 37>   H                      5.315042             -2.462843            -5.462940
| 38>   H                      3.675892             -0.939994            -7.360445
| 39>   H                      4.399781             -2.566132            -7.606293
| 40>   H                      3.045565             -2.437522            -6.505905
| 41>   C                    : 8.646231             -1.958469            -3.312155
| 42>   O                    : 7.547411             -2.653396            -3.876783
| 43>   H                    : 7.793947             -3.542123            -3.734805
| 44>   H                    : 9.647305             -2.365441            -3.471859
| 45>   H                    : 8.725304             -0.948083            -3.729815
| 46>   H                    : 8.600346             -1.880369            -2.218231
| 47> *
| 48>
| 49> #Run DFT-D3 single point of the particle with dimer basis set
| 50> $new_job
| 51> %base "11-142_DFT_B"
| 52> ! wB97X-D3 def2-TZVP TIGHTSCF CHELPG PMODEL
| 53>
| 54> %scf
| 55> MaxIter 1000
| 56> end
| 57>
| 58> * xyz 0 1
| 59>   C                    : 3.963104             -1.894302            -6.831238
| 60>   O                    : 4.841024             -1.628224            -5.724773
| 61>   H                    : 5.315042             -2.462843            -5.462940
| 62>   H                    : 3.675892             -0.939994            -7.360445
| 63>   H                    : 4.399781             -2.566132            -7.606293
| 64>   H                    : 3.045565             -2.437522            -6.505905
| 65>   C                      8.646231             -1.958469            -3.312155
| 66>   O                      7.547411             -2.653396            -3.876783
| 67>   H                      7.793947             -3.542123            -3.734805
| 68>   H                      9.647305             -2.365441            -3.471859
| 69>   H                      8.725304             -0.948083            -3.729815
| 70>   H                      8.600346             -1.880369            -2.218231
| 71> *
| 72>
| 73>                          ****END OF INPUT****
 Total Charge           Charge          ....    0
 Multiplicity           Mult            ....    1
 Number of Electrons    NEL             ....   36
Dispersion correction           -0.001113328
FINAL SINGLE POINT ENERGY      -231.467466609949
Dispersion correction           -0.000276692
FINAL SINGLE POINT ENERGY      -115.732912582604

CARTESIAN COORDINATES (ANGSTROEM)
---------------------------------
  C      3.963104   -1.894302   -6.831238
  O      4.841024   -1.628224   -5.724773
  H      5.315042   -2.462843   -5.462940
  H      3.675892   -0.939994   -7.360445
  H      4.399781   -2.566132   -7.606293
  H      3.045565   -2.437522   -6.505905
  C      8.646231   -1.958469   -3.312155
  O      7.547411   -2.653396   -3.876783
  H      7.793947   -3.542123   -3.734805
  H      9.647305   -2.365441   -3.471859
  H      8.725304   -0.948083   -3.729815
  H      8.600346   -1.880369   -2.218231

 Multiplicity           Mult            ....    1
 Number of Electrons    NEL             ....   18
 Basis Dimension        Dim             ....  172

ORBITAL ENERGIES
----------------

  NO   OCC          E(Eh)            E(eV)
   0   2.0000     -19.235070      -523.4129
   1   2.0000     -10.314248      -280.6650
   2   2.0000      -1.147749       -31.2318
   3   2.0000      -0.797933       -21.7128
   4   2.0000      -0.618286       -16.8244
   5   2.0000      -0.539371       -14.6770
   6   2.0000      -0.523515       -14.2456
   7   2.0000      -0.444733       -12.1018
   8   2.0000      -0.377886       -10.2828
   9   0.0000       0.097218         2.6454
  10   0.0000       0.117807         3.2057
  11   0.0000       0.151092         4.1114
  12   0.0000       0.187819         5.1108
  13   0.0000       0.200036         5.4433

MULLIKEN ATOMIC CHARGES
-----------------------
   0 C :    0.000342
   1 O :   -0.000168
   2 H :   -0.005399
   3 H :    0.000010
   4 H :   -0.000037
   5 H :   -0.000016
   6 C :   -0.186703
   7 O :   -0.445502
   8 H :    0.309969
   9 H :    0.105221
  10 H :    0.119702
  11 H :    0.102582
Sum of atomic charges:   -0.0000000

LOEWDIN ATOMIC CHARGES
----------------------
   0 C :   -0.000044
   1 O :   -0.001130
   2 H :   -0.007838
   3 H :   -0.000001
   4 H :   -0.000003
   5 H :   -0.000001
   6 C :   -0.393083
   7 O :   -0.052167
   8 H :    0.156007
   9 H :    0.094754
  10 H :    0.108639
  11 H :    0.094865

  Mayer bond orders larger than 0.1
B(  6-C ,  7-O ) :   1.0033 B(  6-C ,  9-H ) :   0.9723 B(  6-C , 10-H ) :   0.9773
B(  6-C , 11-H ) :   0.9715 B(  7-O ,  8-H ) :   0.9070

Dispersion correction           -0.000245517
FINAL SINGLE POINT ENERGY      -115.732600676481

DIPOLE MOMENT
-------------
                                X             Y             Z
Electronic contribution:     -1.59880      -0.85533      -0.83471
Nuclear contribution   :      2.19997       0.55755       1.13078
                        -----------------------------------------
Total Dipole Moment    :      0.60117      -0.29779       0.29607
                        -----------------------------------------
Magnitude (a.u.)       :      0.73331
Magnitude (Debye)      :      1.86391

Rotational constants in cm-1:     4.437015     0.823391     0.793449
Rotational constants in MHz : 133018.359827 24684.649782 23786.992244

                             ****ORCA TERMINATED NORMALLY****
TOTAL RUN TIME: 0 days 0 hours 1 minutes 3 seconds 984 msec
