                         Program Version 4.1.2  - RELEASE  -
|  1> #Run DFT-D3 single point of the dimer
|  2> ! wB97X-D3 def2-TZVP TIGHTSCF CHELPG PMODEL PAL8
|  3>
|  4> %base "10-19_DFT_AB"
|  5>
|  6> %scf
|  7> MaxIter 1000
|  8> end
|  9>
| 10> * xyz 0 1
| 11>   C                      9.584878             9.486159             -2.318972
| 12>   O                      8.406559             10.126476            -2.024404
| 13>   H                      7.795485             9.747395             -2.700372
| 14>   H                      9.401391             8.478447             -2.650509
| 15>   H                      10.200250            10.016750            -3.046298
| 16>   H                      10.196088            9.389947             -1.386170
| 17>   C                      6.976497             8.006726             -7.057729
| 18>   O                      7.408445             9.358313             -6.936746
| 19>   H                      7.372370             9.843564             -7.800199
| 20>   H                      6.427452             7.731948             -7.882621
| 21>   H                      7.838230             7.343526             -7.132434
| 22>   H                      6.382113             7.740143             -6.200561
| 23> *
| 24>
| 25> #Run DFT-D3 single point of the molecule with dimer basis set
| 26> $new_job
| 27> %base "10-19_DFT_A"
| 28> ! wB97X-D3 def2-TZVP TIGHTSCF CHELPG PMODEL
| 29>
| 30> %scf
| 31> MaxIter 1000
| 32> end
| 33>
| 34> * xyz 0 1
| 35>   C                      9.584878             9.486159             -2.318972
| 36>   O                      8.406559             10.126476            -2.024404
| 37>   H                      7.795485             9.747395             -2.700372
| 38>   H                      9.401391             8.478447             -2.650509
| 39>   H                      10.200250            10.016750            -3.046298
| 40>   H                      10.196088            9.389947             -1.386170
| 41>   C                    : 6.976497             8.006726             -7.057729
| 42>   O                    : 7.408445             9.358313             -6.936746
| 43>   H                    : 7.372370             9.843564             -7.800199
| 44>   H                    : 6.427452             7.731948             -7.882621
| 45>   H                    : 7.838230             7.343526             -7.132434
| 46>   H                    : 6.382113             7.740143             -6.200561
| 47> *
| 48>
| 49> #Run DFT-D3 single point of the particle with dimer basis set
| 50> $new_job
| 51> %base "10-19_DFT_B"
| 52> ! wB97X-D3 def2-TZVP TIGHTSCF CHELPG PMODEL
| 53>
| 54> %scf
| 55> MaxIter 1000
| 56> end
| 57>
| 58> * xyz 0 1
| 59>   C                    : 9.584878             9.486159             -2.318972
| 60>   O                    : 8.406559             10.126476            -2.024404
| 61>   H                    : 7.795485             9.747395             -2.700372
| 62>   H                    : 9.401391             8.478447             -2.650509
| 63>   H                    : 10.200250            10.016750            -3.046298
| 64>   H                    : 10.196088            9.389947             -1.386170
| 65>   C                      6.976497             8.006726             -7.057729
| 66>   O                      7.408445             9.358313             -6.936746
| 67>   H                      7.372370             9.843564             -7.800199
| 68>   H                      6.427452             7.731948             -7.882621
| 69>   H                      7.838230             7.343526             -7.132434
| 70>   H                      6.382113             7.740143             -6.200561
| 71> *
| 72>
| 73>                          ****END OF INPUT****
 Total Charge           Charge          ....    0
 Multiplicity           Mult            ....    1
 Number of Electrons    NEL             ....   36
Dispersion correction           -0.000720141
FINAL SINGLE POINT ENERGY      -231.462683343830
Dispersion correction           -0.000216259
FINAL SINGLE POINT ENERGY      -115.732207002311

CARTESIAN COORDINATES (ANGSTROEM)
---------------------------------
  C      9.584878    9.486159   -2.318972
  O      8.406559   10.126476   -2.024404
  H      7.795485    9.747395   -2.700372
  H      9.401391    8.478447   -2.650509
  H     10.200250   10.016750   -3.046298
  H     10.196088    9.389947   -1.386170
  C      6.976497    8.006726   -7.057729
  O      7.408445    9.358313   -6.936746
  H      7.372370    9.843564   -7.800199
  H      6.427452    7.731948   -7.882621
  H      7.838230    7.343526   -7.132434
  H      6.382113    7.740143   -6.200561

 Multiplicity           Mult            ....    1
 Number of Electrons    NEL             ....   18
 Basis Dimension        Dim             ....  172

ORBITAL ENERGIES
----------------

  NO   OCC          E(Eh)            E(eV)
   0   2.0000     -19.231721      -523.3217
   1   2.0000     -10.303448      -280.3711
   2   2.0000      -1.124010       -30.5859
   3   2.0000      -0.803798       -21.8724
   4   2.0000      -0.615279       -16.7426
   5   2.0000      -0.539457       -14.6794
   6   2.0000      -0.519756       -14.1433
   7   2.0000      -0.435120       -11.8402
   8   2.0000      -0.371924       -10.1206
   9   0.0000       0.093903         2.5552
  10   0.0000       0.115066         3.1311
  11   0.0000       0.151641         4.1263
  12   0.0000       0.173039         4.7086
  13   0.0000       0.196054         5.3349

MULLIKEN ATOMIC CHARGES
-----------------------
   0 C :   -0.000159
   1 O :    0.000051
   2 H :   -0.000271
   3 H :    0.000030
   4 H :   -0.000039
   5 H :   -0.000011
   6 C :   -0.163283
   7 O :   -0.489561
   8 H :    0.318424
   9 H :    0.116124
  10 H :    0.099768
  11 H :    0.118927
Sum of atomic charges:    0.0000000

LOEWDIN ATOMIC CHARGES
----------------------
   0 C :   -0.000089
   1 O :   -0.000006
   2 H :   -0.000120
   3 H :   -0.000006
   4 H :   -0.000021
   5 H :   -0.000005
   6 C :   -0.371926
   7 O :   -0.097676
   8 H :    0.184896
   9 H :    0.082408
  10 H :    0.098175
  11 H :    0.104370

  Mayer bond orders larger than 0.1
B(  6-C ,  7-O ) :   1.0032 B(  6-C ,  9-H ) :   0.9731 B(  6-C , 10-H ) :   0.9795
B(  6-C , 11-H ) :   0.9771 B(  7-O ,  8-H ) :   0.8923

Dispersion correction           -0.000263303
FINAL SINGLE POINT ENERGY      -115.729387071715

DIPOLE MOMENT
-------------
                                X             Y             Z
Electronic contribution:      0.48385       1.75546       0.22956
Nuclear contribution   :     -0.71259      -2.00431      -0.86915
                        -----------------------------------------
Total Dipole Moment    :     -0.22874      -0.24886      -0.63959
                        -----------------------------------------
Magnitude (a.u.)       :      0.72341
Magnitude (Debye)      :      1.83877

Rotational constants in cm-1:     4.580157     0.811278     0.786648
Rotational constants in MHz : 137309.648917 24321.488266 23583.122786

                             ****ORCA TERMINATED NORMALLY****
TOTAL RUN TIME: 0 days 0 hours 0 minutes 59 seconds 580 msec
