                         Program Version 4.1.2  - RELEASE  -
|  1> #Run DFT-D3 single point of the dimer
|  2> ! wB97X-D3 def2-TZVP TIGHTSCF CHELPG PMODEL PAL8
|  3>
|  4> %base "9-35_DFT_AB"
|  5>
|  6> %scf
|  7> MaxIter 1000
|  8> end
|  9>
| 10> * xyz 0 1
| 11>   C                      -2.236262            -7.219065            -3.038028
| 12>   O                      -2.089203            -8.488530            -3.702297
| 13>   H                      -2.620605            -8.479153            -4.503310
| 14>   H                      -1.906942            -6.405743            -3.624474
| 15>   H                      -3.225869            -6.961767            -2.730361
| 16>   H                      -1.644495            -7.133655            -2.155844
| 17>   C                      1.377095             -6.672413            -1.983015
| 18>   O                      0.978614             -6.700655            -0.650823
| 19>   H                      0.060636             -6.518501            -0.611805
| 20>   H                      1.068664             -7.500446            -2.507398
| 21>   H                      0.774104             -5.990312            -2.559494
| 22>   H                      2.463643             -6.499056            -2.114415
| 23> *
| 24>
| 25> #Run DFT-D3 single point of the molecule with dimer basis set
| 26> $new_job
| 27> %base "9-35_DFT_A"
| 28> ! wB97X-D3 def2-TZVP TIGHTSCF CHELPG PMODEL
| 29>
| 30> %scf
| 31> MaxIter 1000
| 32> end
| 33>
| 34> * xyz 0 1
| 35>   C                      -2.236262            -7.219065            -3.038028
| 36>   O                      -2.089203            -8.488530            -3.702297
| 37>   H                      -2.620605            -8.479153            -4.503310
| 38>   H                      -1.906942            -6.405743            -3.624474
| 39>   H                      -3.225869            -6.961767            -2.730361
| 40>   H                      -1.644495            -7.133655            -2.155844
| 41>   C                    : 1.377095             -6.672413            -1.983015
| 42>   O                    : 0.978614             -6.700655            -0.650823
| 43>   H                    : 0.060636             -6.518501            -0.611805
| 44>   H                    : 1.068664             -7.500446            -2.507398
| 45>   H                    : 0.774104             -5.990312            -2.559494
| 46>   H                    : 2.463643             -6.499056            -2.114415
| 47> *
| 48>
| 49> #Run DFT-D3 single point of the particle with dimer basis set
| 50> $new_job
| 51> %base "9-35_DFT_B"
| 52> ! wB97X-D3 def2-TZVP TIGHTSCF CHELPG PMODEL
| 53>
| 54> %scf
| 55> MaxIter 1000
| 56> end
| 57>
| 58> * xyz 0 1
| 59>   C                    : -2.236262            -7.219065            -3.038028
| 60>   O                    : -2.089203            -8.488530            -3.702297
| 61>   H                    : -2.620605            -8.479153            -4.503310
| 62>   H                    : -1.906942            -6.405743            -3.624474
| 63>   H                    : -3.225869            -6.961767            -2.730361
| 64>   H                    : -1.644495            -7.133655            -2.155844
| 65>   C                      1.377095             -6.672413            -1.983015
| 66>   O                      0.978614             -6.700655            -0.650823
| 67>   H                      0.060636             -6.518501            -0.611805
| 68>   H                      1.068664             -7.500446            -2.507398
| 69>   H                      0.774104             -5.990312            -2.559494
| 70>   H                      2.463643             -6.499056            -2.114415
| 71> *
| 72>
| 73>                          ****END OF INPUT****
 Total Charge           Charge          ....    0
 Multiplicity           Mult            ....    1
 Number of Electrons    NEL             ....   36
Dispersion correction           -0.001866978
FINAL SINGLE POINT ENERGY      -231.458392112869
Dispersion correction           -0.000258077
FINAL SINGLE POINT ENERGY      -115.732265768834

CARTESIAN COORDINATES (ANGSTROEM)
---------------------------------
  C     -2.236262   -7.219065   -3.038028
  O     -2.089203   -8.488530   -3.702297
  H     -2.620605   -8.479153   -4.503310
  H     -1.906942   -6.405743   -3.624474
  H     -3.225869   -6.961767   -2.730361
  H     -1.644495   -7.133655   -2.155844
  C      1.377095   -6.672413   -1.983015
  O      0.978614   -6.700655   -0.650823
  H      0.060636   -6.518501   -0.611805
  H      1.068664   -7.500446   -2.507398
  H      0.774104   -5.990312   -2.559494
  H      2.463643   -6.499056   -2.114415

 Multiplicity           Mult            ....    1
 Number of Electrons    NEL             ....   18
 Basis Dimension        Dim             ....  172

ORBITAL ENERGIES
----------------

  NO   OCC          E(Eh)            E(eV)
   0   2.0000     -19.227619      -523.2101
   1   2.0000     -10.303993      -280.3859
   2   2.0000      -1.147813       -31.2336
   3   2.0000      -0.804943       -21.9036
   4   2.0000      -0.629705       -17.1351
   5   2.0000      -0.538746       -14.6600
   6   2.0000      -0.531508       -14.4631
   7   2.0000      -0.439856       -11.9691
   8   2.0000      -0.368156       -10.0180
   9   0.0000       0.072395         1.9700
  10   0.0000       0.125113         3.4045
  11   0.0000       0.153162         4.1678
  12   0.0000       0.167848         4.5674
  13   0.0000       0.189023         5.1436

MULLIKEN ATOMIC CHARGES
-----------------------
   0 C :    0.001886
   1 O :    0.000232
   2 H :   -0.000007
   3 H :   -0.000412
   4 H :   -0.000183
   5 H :   -0.007553
   6 C :   -0.159298
   7 O :   -0.466612
   8 H :    0.311327
   9 H :    0.103205
  10 H :    0.091842
  11 H :    0.125574
Sum of atomic charges:   -0.0000000

LOEWDIN ATOMIC CHARGES
----------------------
   0 C :   -0.003514
   1 O :   -0.000182
   2 H :   -0.000011
   3 H :   -0.000852
   4 H :   -0.000014
   5 H :   -0.004279
   6 C :   -0.393592
   7 O :   -0.044495
   8 H :    0.156128
   9 H :    0.082032
  10 H :    0.094828
  11 H :    0.113951

  Mayer bond orders larger than 0.1
B(  6-C ,  7-O ) :   0.9906 B(  6-C ,  9-H ) :   0.9769 B(  6-C , 10-H ) :   0.9893
B(  6-C , 11-H ) :   0.9732 B(  7-O ,  8-H ) :   0.9076

Dispersion correction           -0.000216814
FINAL SINGLE POINT ENERGY      -115.725619451735

DIPOLE MOMENT
-------------
                                X             Y             Z
Electronic contribution:     -0.26927      -0.08272       1.85540
Nuclear contribution   :     -0.19179       0.20134      -2.37248
                        -----------------------------------------
Total Dipole Moment    :     -0.46105       0.11863      -0.51708
                        -----------------------------------------
Magnitude (a.u.)       :      0.70286
Magnitude (Debye)      :      1.78653

Rotational constants in cm-1:     4.570553     0.865567     0.812865
Rotational constants in MHz : 137021.717806 25949.038292 24369.073416

                             ****ORCA TERMINATED NORMALLY****
TOTAL RUN TIME: 0 days 0 hours 0 minutes 43 seconds 667 msec
