                         Program Version 4.1.2  - RELEASE  -
|  1> #Run DFT-D3 single point of the dimer
|  2> ! wB97X-D3 def2-TZVP TIGHTSCF CHELPG PMODEL PAL8
|  3>
|  4> %base "11-182_DFT_AB"
|  5>
|  6> %scf
|  7> MaxIter 1000
|  8> end
|  9>
| 10> * xyz 0 1
| 11>   C                      7.713792             -7.355257            -5.392447
| 12>   O                      7.815476             -7.103153            -3.960262
| 13>   H                      8.624440             -6.547739            -3.986999
| 14>   H                      8.597518             -7.881962            -5.807863
| 15>   H                      6.778672             -7.836321            -5.653794
| 16>   H                      7.838172             -6.398663            -5.970114
| 17>   C                      5.547524             -7.144413            -1.480023
| 18>   O                      6.884929             -6.590262            -1.372487
| 19>   H                      7.005034             -6.172990            -2.186891
| 20>   H                      4.817243             -6.345806            -1.306037
| 21>   H                      5.434728             -7.623133            -2.470622
| 22>   H                      5.419992             -7.895576            -0.685752
| 23> *
| 24>
| 25> #Run DFT-D3 single point of the molecule with dimer basis set
| 26> $new_job
| 27> %base "11-182_DFT_A"
| 28> ! wB97X-D3 def2-TZVP TIGHTSCF CHELPG PMODEL
| 29>
| 30> %scf
| 31> MaxIter 1000
| 32> end
| 33>
| 34> * xyz 0 1
| 35>   C                      7.713792             -7.355257            -5.392447
| 36>   O                      7.815476             -7.103153            -3.960262
| 37>   H                      8.624440             -6.547739            -3.986999
| 38>   H                      8.597518             -7.881962            -5.807863
| 39>   H                      6.778672             -7.836321            -5.653794
| 40>   H                      7.838172             -6.398663            -5.970114
| 41>   C                    : 5.547524             -7.144413            -1.480023
| 42>   O                    : 6.884929             -6.590262            -1.372487
| 43>   H                    : 7.005034             -6.172990            -2.186891
| 44>   H                    : 4.817243             -6.345806            -1.306037
| 45>   H                    : 5.434728             -7.623133            -2.470622
| 46>   H                    : 5.419992             -7.895576            -0.685752
| 47> *
| 48>
| 49> #Run DFT-D3 single point of the particle with dimer basis set
| 50> $new_job
| 51> %base "11-182_DFT_B"
| 52> ! wB97X-D3 def2-TZVP TIGHTSCF CHELPG PMODEL
| 53>
| 54> %scf
| 55> MaxIter 1000
| 56> end
| 57>
| 58> * xyz 0 1
| 59>   C                    : 7.713792             -7.355257            -5.392447
| 60>   O                    : 7.815476             -7.103153            -3.960262
| 61>   H                    : 8.624440             -6.547739            -3.986999
| 62>   H                    : 8.597518             -7.881962            -5.807863
| 63>   H                    : 6.778672             -7.836321            -5.653794
| 64>   H                    : 7.838172             -6.398663            -5.970114
| 65>   C                      5.547524             -7.144413            -1.480023
| 66>   O                      6.884929             -6.590262            -1.372487
| 67>   H                      7.005034             -6.172990            -2.186891
| 68>   H                      4.817243             -6.345806            -1.306037
| 69>   H                      5.434728             -7.623133            -2.470622
| 70>   H                      5.419992             -7.895576            -0.685752
| 71> *
| 72>
| 73>                          ****END OF INPUT****
 Total Charge           Charge          ....    0
 Multiplicity           Mult            ....    1
 Number of Electrons    NEL             ....   36
Dispersion correction           -0.001668245
FINAL SINGLE POINT ENERGY      -231.465523933036
Dispersion correction           -0.000238185
FINAL SINGLE POINT ENERGY      -115.728573118649

CARTESIAN COORDINATES (ANGSTROEM)
---------------------------------
  C      7.713792   -7.355257   -5.392447
  O      7.815476   -7.103153   -3.960262
  H      8.624440   -6.547739   -3.986999
  H      8.597518   -7.881962   -5.807863
  H      6.778672   -7.836321   -5.653794
  H      7.838172   -6.398663   -5.970114
  C      5.547524   -7.144413   -1.480023
  O      6.884929   -6.590262   -1.372487
  H      7.005034   -6.172990   -2.186891
  H      4.817243   -6.345806   -1.306037
  H      5.434728   -7.623133   -2.470622
  H      5.419992   -7.895576   -0.685752

 Multiplicity           Mult            ....    1
 Number of Electrons    NEL             ....   18
 Basis Dimension        Dim             ....  172

ORBITAL ENERGIES
----------------

  NO   OCC          E(Eh)            E(eV)
   0   2.0000     -19.226835      -523.1888
   1   2.0000     -10.319587      -280.8102
   2   2.0000      -1.136041       -30.9132
   3   2.0000      -0.795557       -21.6482
   4   2.0000      -0.604660       -16.4536
   5   2.0000      -0.544417       -14.8143
   6   2.0000      -0.522547       -14.2192
   7   2.0000      -0.441456       -12.0126
   8   2.0000      -0.376684       -10.2501
   9   0.0000       0.074335         2.0228
  10   0.0000       0.129473         3.5231
  11   0.0000       0.143415         3.9025
  12   0.0000       0.175425         4.7736
  13   0.0000       0.192928         5.2498

MULLIKEN ATOMIC CHARGES
-----------------------
   0 C :   -0.001343
   1 O :   -0.008153
   2 H :   -0.001483
   3 H :    0.000041
   4 H :   -0.000131
   5 H :    0.000052
   6 C :   -0.177040
   7 O :   -0.460438
   8 H :    0.305630
   9 H :    0.111234
  10 H :    0.110673
  11 H :    0.120958
Sum of atomic charges:   -0.0000000

LOEWDIN ATOMIC CHARGES
----------------------
   0 C :   -0.001216
   1 O :   -0.016968
   2 H :   -0.002367
   3 H :   -0.000021
   4 H :   -0.000145
   5 H :   -0.000021
   6 C :   -0.354421
   7 O :   -0.073781
   8 H :    0.142699
   9 H :    0.097145
  10 H :    0.099929
  11 H :    0.109166

  Mayer bond orders larger than 0.1
B(  6-C ,  7-O ) :   0.9935 B(  6-C ,  9-H ) :   0.9779 B(  6-C , 10-H ) :   0.9753
B(  6-C , 11-H ) :   0.9737 B(  7-O ,  8-H ) :   0.9139

Dispersion correction           -0.000231814
FINAL SINGLE POINT ENERGY      -115.734481720909

DIPOLE MOMENT
-------------
                                X             Y             Z
Electronic contribution:      1.61769       0.61504       0.26129
Nuclear contribution   :     -2.09700      -0.59152      -0.79840
                        -----------------------------------------
Total Dipole Moment    :     -0.47931       0.02352      -0.53711
                        -----------------------------------------
Magnitude (a.u.)       :      0.72027
Magnitude (Debye)      :      1.83077

Rotational constants in cm-1:     4.180663     0.807964     0.781758
Rotational constants in MHz : 125333.134664 24222.153383 23436.515362

                             ****ORCA TERMINATED NORMALLY****
TOTAL RUN TIME: 0 days 0 hours 1 minutes 14 seconds 587 msec
