                         Program Version 4.1.2  - RELEASE  -
|  1> #Run DFT-D3 single point of the dimer
|  2> ! wB97X-D3 def2-TZVP TIGHTSCF CHELPG PMODEL PAL8
|  3>
|  4> %base "16-58_DFT_AB"
|  5>
|  6> %scf
|  7> MaxIter 1000
|  8> end
|  9>
| 10> * xyz 0 1
| 11>   C                      3.918612             -5.045741            2.896027
| 12>   O                      4.275113             -3.748419            2.773380
| 13>   H                      5.177996             -3.619790            2.820687
| 14>   H                      3.911424             -5.560728            1.980114
| 15>   H                      4.669848             -5.508734            3.468600
| 16>   H                      2.869578             -5.280809            3.312576
| 17>   C                      3.434464             -6.323335            -0.905216
| 18>   O                      4.164704             -7.455818            -1.326360
| 19>   H                      3.560411             -8.224098            -1.348252
| 20>   H                      4.097257             -5.507385            -0.597335
| 21>   H                      2.775232             -6.025212            -1.737524
| 22>   H                      2.795566             -6.570912            -0.068298
| 23> *
| 24>
| 25> #Run DFT-D3 single point of the molecule with dimer basis set
| 26> $new_job
| 27> %base "16-58_DFT_A"
| 28> ! wB97X-D3 def2-TZVP TIGHTSCF CHELPG PMODEL
| 29>
| 30> %scf
| 31> MaxIter 1000
| 32> end
| 33>
| 34> * xyz 0 1
| 35>   C                      3.918612             -5.045741            2.896027
| 36>   O                      4.275113             -3.748419            2.773380
| 37>   H                      5.177996             -3.619790            2.820687
| 38>   H                      3.911424             -5.560728            1.980114
| 39>   H                      4.669848             -5.508734            3.468600
| 40>   H                      2.869578             -5.280809            3.312576
| 41>   C                    : 3.434464             -6.323335            -0.905216
| 42>   O                    : 4.164704             -7.455818            -1.326360
| 43>   H                    : 3.560411             -8.224098            -1.348252
| 44>   H                    : 4.097257             -5.507385            -0.597335
| 45>   H                    : 2.775232             -6.025212            -1.737524
| 46>   H                    : 2.795566             -6.570912            -0.068298
| 47> *
| 48>
| 49> #Run DFT-D3 single point of the particle with dimer basis set
| 50> $new_job
| 51> %base "16-58_DFT_B"
| 52> ! wB97X-D3 def2-TZVP TIGHTSCF CHELPG PMODEL
| 53>
| 54> %scf
| 55> MaxIter 1000
| 56> end
| 57>
| 58> * xyz 0 1
| 59>   C                    : 3.918612             -5.045741            2.896027
| 60>   O                    : 4.275113             -3.748419            2.773380
| 61>   H                    : 5.177996             -3.619790            2.820687
| 62>   H                    : 3.911424             -5.560728            1.980114
| 63>   H                    : 4.669848             -5.508734            3.468600
| 64>   H                    : 2.869578             -5.280809            3.312576
| 65>   C                      3.434464             -6.323335            -0.905216
| 66>   O                      4.164704             -7.455818            -1.326360
| 67>   H                      3.560411             -8.224098            -1.348252
| 68>   H                      4.097257             -5.507385            -0.597335
| 69>   H                      2.775232             -6.025212            -1.737524
| 70>   H                      2.795566             -6.570912            -0.068298
| 71> *
| 72>
| 73>                          ****END OF INPUT****
 Total Charge           Charge          ....    0
 Multiplicity           Mult            ....    1
 Number of Electrons    NEL             ....   36
Dispersion correction           -0.001324589
FINAL SINGLE POINT ENERGY      -231.458136402788
Dispersion correction           -0.000218031
FINAL SINGLE POINT ENERGY      -115.722049982965

CARTESIAN COORDINATES (ANGSTROEM)
---------------------------------
  C      3.918612   -5.045741    2.896027
  O      4.275113   -3.748419    2.773380
  H      5.177996   -3.619790    2.820687
  H      3.911424   -5.560728    1.980114
  H      4.669848   -5.508734    3.468600
  H      2.869578   -5.280809    3.312576
  C      3.434464   -6.323335   -0.905216
  O      4.164704   -7.455818   -1.326360
  H      3.560411   -8.224098   -1.348252
  H      4.097257   -5.507385   -0.597335
  H      2.775232   -6.025212   -1.737524
  H      2.795566   -6.570912   -0.068298

 Multiplicity           Mult            ....    1
 Number of Electrons    NEL             ....   18
 Basis Dimension        Dim             ....  172

ORBITAL ENERGIES
----------------

  NO   OCC          E(Eh)            E(eV)
   0   2.0000     -19.228530      -523.2349
   1   2.0000     -10.312216      -280.6097
   2   2.0000      -1.132193       -30.8086
   3   2.0000      -0.792607       -21.5679
   4   2.0000      -0.608713       -16.5639
   5   2.0000      -0.542784       -14.7699
   6   2.0000      -0.528196       -14.3730
   7   2.0000      -0.432392       -11.7660
   8   2.0000      -0.369674       -10.0593
   9   0.0000       0.087097         2.3700
  10   0.0000       0.114605         3.1186
  11   0.0000       0.155578         4.2335
  12   0.0000       0.160304         4.3621
  13   0.0000       0.189671         5.1612

MULLIKEN ATOMIC CHARGES
-----------------------
   0 C :    0.000724
   1 O :    0.000035
   2 H :   -0.000023
   3 H :   -0.002196
   4 H :   -0.000226
   5 H :    0.000044
   6 C :   -0.160150
   7 O :   -0.480855
   8 H :    0.316528
   9 H :    0.121621
  10 H :    0.101121
  11 H :    0.103378
Sum of atomic charges:   -0.0000000

LOEWDIN ATOMIC CHARGES
----------------------
   0 C :   -0.002193
   1 O :   -0.000025
   2 H :   -0.000018
   3 H :   -0.004325
   4 H :   -0.000019
   5 H :   -0.000082
   6 C :   -0.383776
   7 O :   -0.087915
   8 H :    0.179081
   9 H :    0.110099
  10 H :    0.096436
  11 H :    0.092738

  Mayer bond orders larger than 0.1
B(  6-C ,  7-O ) :   0.9942 B(  6-C ,  9-H ) :   0.9689 B(  6-C , 10-H ) :   0.9754
B(  6-C , 11-H ) :   0.9808 B(  7-O ,  8-H ) :   0.8954

Dispersion correction           -0.000227648
FINAL SINGLE POINT ENERGY      -115.735212273542

DIPOLE MOMENT
-------------
                                X             Y             Z
Electronic contribution:      1.10949      -1.30302      -0.50608
Nuclear contribution   :     -1.78042       1.26589       0.67901
                        -----------------------------------------
Total Dipole Moment    :     -0.67093      -0.03713       0.17293
                        -----------------------------------------
Magnitude (a.u.)       :      0.69385
Magnitude (Debye)      :      1.76363

Rotational constants in cm-1:     4.237884     0.837100     0.804613
Rotational constants in MHz : 127048.569542 25095.638613 24121.684387

                             ****ORCA TERMINATED NORMALLY****
TOTAL RUN TIME: 0 days 0 hours 1 minutes 2 seconds 91 msec
