                         Program Version 4.1.2  - RELEASE  -
|  1> #Run DFT-D3 single point of the dimer
|  2> ! wB97X-D3 def2-TZVP TIGHTSCF CHELPG PMODEL PAL8
|  3>
|  4> %base "10-52_DFT_AB"
|  5>
|  6> %scf
|  7> MaxIter 1000
|  8> end
|  9>
| 10> * xyz 0 1
| 11>   C                      6.640702             1.118679             1.001048
| 12>   O                      7.266035             -0.143782            1.123999
| 13>   H                      7.994274             -0.063849            0.473445
| 14>   H                      5.730766             1.058960             0.469523
| 15>   H                      6.333335             1.429739             2.003741
| 16>   H                      7.222567             1.942048             0.618447
| 17>   C                      9.179188             -2.296258            -1.378937
| 18>   O                      9.126528             -3.730062            -1.614299
| 19>   H                      9.780172             -4.125602            -1.001933
| 20>   H                      10.076277            -2.135125            -0.877923
| 21>   H                      9.117740             -1.750285            -2.323667
| 22>   H                      8.413924             -1.920282            -0.682767
| 23> *
| 24>
| 25> #Run DFT-D3 single point of the molecule with dimer basis set
| 26> $new_job
| 27> %base "10-52_DFT_A"
| 28> ! wB97X-D3 def2-TZVP TIGHTSCF CHELPG PMODEL
| 29>
| 30> %scf
| 31> MaxIter 1000
| 32> end
| 33>
| 34> * xyz 0 1
| 35>   C                      6.640702             1.118679             1.001048
| 36>   O                      7.266035             -0.143782            1.123999
| 37>   H                      7.994274             -0.063849            0.473445
| 38>   H                      5.730766             1.058960             0.469523
| 39>   H                      6.333335             1.429739             2.003741
| 40>   H                      7.222567             1.942048             0.618447
| 41>   C                    : 9.179188             -2.296258            -1.378937
| 42>   O                    : 9.126528             -3.730062            -1.614299
| 43>   H                    : 9.780172             -4.125602            -1.001933
| 44>   H                    : 10.076277            -2.135125            -0.877923
| 45>   H                    : 9.117740             -1.750285            -2.323667
| 46>   H                    : 8.413924             -1.920282            -0.682767
| 47> *
| 48>
| 49> #Run DFT-D3 single point of the particle with dimer basis set
| 50> $new_job
| 51> %base "10-52_DFT_B"
| 52> ! wB97X-D3 def2-TZVP TIGHTSCF CHELPG PMODEL
| 53>
| 54> %scf
| 55> MaxIter 1000
| 56> end
| 57>
| 58> * xyz 0 1
| 59>   C                    : 6.640702             1.118679             1.001048
| 60>   O                    : 7.266035             -0.143782            1.123999
| 61>   H                    : 7.994274             -0.063849            0.473445
| 62>   H                    : 5.730766             1.058960             0.469523
| 63>   H                    : 6.333335             1.429739             2.003741
| 64>   H                    : 7.222567             1.942048             0.618447
| 65>   C                      9.179188             -2.296258            -1.378937
| 66>   O                      9.126528             -3.730062            -1.614299
| 67>   H                      9.780172             -4.125602            -1.001933
| 68>   H                      10.076277            -2.135125            -0.877923
| 69>   H                      9.117740             -1.750285            -2.323667
| 70>   H                      8.413924             -1.920282            -0.682767
| 71> *
| 72>
| 73>                          ****END OF INPUT****
 Total Charge           Charge          ....    0
 Multiplicity           Mult            ....    1
 Number of Electrons    NEL             ....   36
Dispersion correction           -0.001248820
FINAL SINGLE POINT ENERGY      -231.461718534785
Dispersion correction           -0.000239590
FINAL SINGLE POINT ENERGY      -115.731616756666

CARTESIAN COORDINATES (ANGSTROEM)
---------------------------------
  C      6.640702    1.118679    1.001048
  O      7.266035   -0.143782    1.123999
  H      7.994274   -0.063849    0.473445
  H      5.730766    1.058960    0.469523
  H      6.333335    1.429739    2.003741
  H      7.222567    1.942048    0.618447
  C      9.179188   -2.296258   -1.378937
  O      9.126528   -3.730062   -1.614299
  H      9.780172   -4.125602   -1.001933
  H     10.076277   -2.135125   -0.877923
  H      9.117740   -1.750285   -2.323667
  H      8.413924   -1.920282   -0.682767

 Multiplicity           Mult            ....    1
 Number of Electrons    NEL             ....   18
 Basis Dimension        Dim             ....  172

ORBITAL ENERGIES
----------------

  NO   OCC          E(Eh)            E(eV)
   0   2.0000     -19.229881      -523.2717
   1   2.0000     -10.311195      -280.5819
   2   2.0000      -1.121387       -30.5145
   3   2.0000      -0.797740       -21.7076
   4   2.0000      -0.605788       -16.4843
   5   2.0000      -0.533121       -14.5070
   6   2.0000      -0.529773       -14.4159
   7   2.0000      -0.436927       -11.8894
   8   2.0000      -0.373246       -10.1565
   9   0.0000       0.085039         2.3140
  10   0.0000       0.110561         3.0085
  11   0.0000       0.142697         3.8830
  12   0.0000       0.183938         5.0052
  13   0.0000       0.190361         5.1800

MULLIKEN ATOMIC CHARGES
-----------------------
   0 C :    0.000230
   1 O :    0.000478
   2 H :   -0.002176
   3 H :   -0.000041
   4 H :   -0.000004
   5 H :   -0.000023
   6 C :   -0.169766
   7 O :   -0.480388
   8 H :    0.314220
   9 H :    0.110114
  10 H :    0.121244
  11 H :    0.106114
Sum of atomic charges:    0.0000000

LOEWDIN ATOMIC CHARGES
----------------------
   0 C :   -0.000238
   1 O :   -0.002313
   2 H :   -0.006726
   3 H :   -0.000011
   4 H :   -0.000006
   5 H :   -0.000002
   6 C :   -0.349420
   7 O :   -0.115192
   8 H :    0.177297
   9 H :    0.087163
  10 H :    0.106824
  11 H :    0.102622

  Mayer bond orders larger than 0.1
B(  6-C ,  7-O ) :   1.0051 B(  6-C ,  9-H ) :   0.9948 B(  6-C , 10-H ) :   0.9712
B(  6-C , 11-H ) :   0.9686 B(  7-O ,  8-H ) :   0.9019

Dispersion correction           -0.000246973
FINAL SINGLE POINT ENERGY      -115.730190211325

DIPOLE MOMENT
-------------
                                X             Y             Z
Electronic contribution:     -0.18553      -1.71040      -0.46307
Nuclear contribution   :      0.64857       2.06433       0.95521
                        -----------------------------------------
Total Dipole Moment    :      0.46304       0.35393       0.49214
                        -----------------------------------------
Magnitude (a.u.)       :      0.76281
Magnitude (Debye)      :      1.93890

Rotational constants in cm-1:     4.333181     0.802012     0.770565
Rotational constants in MHz : 129905.508946 24043.727359 23100.953417

                             ****ORCA TERMINATED NORMALLY****
TOTAL RUN TIME: 0 days 0 hours 1 minutes 5 seconds 760 msec
