                         Program Version 4.1.2  - RELEASE  -
|  1> #Run DFT-D3 single point of the dimer
|  2> ! wB97X-D3 def2-TZVP TIGHTSCF CHELPG PMODEL PAL8
|  3>
|  4> %base "5-161_DFT_AB"
|  5>
|  6> %scf
|  7> MaxIter 1000
|  8> end
|  9>
| 10> * xyz 0 1
| 11>   C                      7.166154             11.280670            5.286611
| 12>   O                      8.375598             10.687281            4.811101
| 13>   H                      8.327499             10.761921            3.852238
| 14>   H                      6.538571             10.544897            5.912698
| 15>   H                      7.411956             12.162899            5.774472
| 16>   H                      6.515775             11.474074            4.435100
| 17>   C                      8.064708             10.850465            0.122423
| 18>   O                      7.810845             10.578228            1.499464
| 19>   H                      7.164749             11.236091            1.751363
| 20>   H                      8.730071             10.123581            -0.336614
| 21>   H                      7.191731             10.768912            -0.487760
| 22>   H                      8.419303             11.907190            0.065519
| 23> *
| 24>
| 25> #Run DFT-D3 single point of the molecule with dimer basis set
| 26> $new_job
| 27> %base "5-161_DFT_A"
| 28> ! wB97X-D3 def2-TZVP TIGHTSCF CHELPG PMODEL
| 29>
| 30> %scf
| 31> MaxIter 1000
| 32> end
| 33>
| 34> * xyz 0 1
| 35>   C                      7.166154             11.280670            5.286611
| 36>   O                      8.375598             10.687281            4.811101
| 37>   H                      8.327499             10.761921            3.852238
| 38>   H                      6.538571             10.544897            5.912698
| 39>   H                      7.411956             12.162899            5.774472
| 40>   H                      6.515775             11.474074            4.435100
| 41>   C                    : 8.064708             10.850465            0.122423
| 42>   O                    : 7.810845             10.578228            1.499464
| 43>   H                    : 7.164749             11.236091            1.751363
| 44>   H                    : 8.730071             10.123581            -0.336614
| 45>   H                    : 7.191731             10.768912            -0.487760
| 46>   H                    : 8.419303             11.907190            0.065519
| 47> *
| 48>
| 49> #Run DFT-D3 single point of the particle with dimer basis set
| 50> $new_job
| 51> %base "5-161_DFT_B"
| 52> ! wB97X-D3 def2-TZVP TIGHTSCF CHELPG PMODEL
| 53>
| 54> %scf
| 55> MaxIter 1000
| 56> end
| 57>
| 58> * xyz 0 1
| 59>   C                    : 7.166154             11.280670            5.286611
| 60>   O                    : 8.375598             10.687281            4.811101
| 61>   H                    : 8.327499             10.761921            3.852238
| 62>   H                    : 6.538571             10.544897            5.912698
| 63>   H                    : 7.411956             12.162899            5.774472
| 64>   H                    : 6.515775             11.474074            4.435100
| 65>   C                      8.064708             10.850465            0.122423
| 66>   O                      7.810845             10.578228            1.499464
| 67>   H                      7.164749             11.236091            1.751363
| 68>   H                      8.730071             10.123581            -0.336614
| 69>   H                      7.191731             10.768912            -0.487760
| 70>   H                      8.419303             11.907190            0.065519
| 71> *
| 72>
| 73>                          ****END OF INPUT****
 Total Charge           Charge          ....    0
 Multiplicity           Mult            ....    1
 Number of Electrons    NEL             ....   36
Dispersion correction           -0.001427068
FINAL SINGLE POINT ENERGY      -231.466092649311
Dispersion correction           -0.000237104
FINAL SINGLE POINT ENERGY      -115.729561533747

CARTESIAN COORDINATES (ANGSTROEM)
---------------------------------
  C      7.166154   11.280670    5.286611
  O      8.375598   10.687281    4.811101
  H      8.327499   10.761921    3.852238
  H      6.538571   10.544897    5.912698
  H      7.411956   12.162899    5.774472
  H      6.515775   11.474074    4.435100
  C      8.064708   10.850465    0.122423
  O      7.810845   10.578228    1.499464
  H      7.164749   11.236091    1.751363
  H      8.730071   10.123581   -0.336614
  H      7.191731   10.768912   -0.487760
  H      8.419303   11.907190    0.065519

 Multiplicity           Mult            ....    1
 Number of Electrons    NEL             ....   18
 Basis Dimension        Dim             ....  172

ORBITAL ENERGIES
----------------

  NO   OCC          E(Eh)            E(eV)
   0   2.0000     -19.230642      -523.2924
   1   2.0000     -10.313361      -280.6408
   2   2.0000      -1.136000       -30.9121
   3   2.0000      -0.796378       -21.6705
   4   2.0000      -0.608262       -16.5516
   5   2.0000      -0.548125       -14.9152
   6   2.0000      -0.523237       -14.2380
   7   2.0000      -0.439011       -11.9461
   8   2.0000      -0.373068       -10.1517
   9   0.0000       0.089114         2.4249
  10   0.0000       0.124425         3.3858
  11   0.0000       0.155074         4.2198
  12   0.0000       0.183778         5.0009
  13   0.0000       0.201527         5.4838

MULLIKEN ATOMIC CHARGES
-----------------------
   0 C :    0.000420
   1 O :    0.001215
   2 H :   -0.011767
   3 H :   -0.000019
   4 H :    0.000099
   5 H :   -0.000419
   6 C :   -0.179861
   7 O :   -0.458676
   8 H :    0.315163
   9 H :    0.125014
  10 H :    0.104957
  11 H :    0.103873
Sum of atomic charges:    0.0000000

LOEWDIN ATOMIC CHARGES
----------------------
   0 C :   -0.001014
   1 O :   -0.000898
   2 H :   -0.015602
   3 H :   -0.000007
   4 H :   -0.000007
   5 H :   -0.000837
   6 C :   -0.376746
   7 O :   -0.072515
   8 H :    0.169127
   9 H :    0.108071
  10 H :    0.088938
  11 H :    0.101490

  Mayer bond orders larger than 0.1
B(  6-C ,  7-O ) :   0.9924 B(  6-C ,  9-H ) :   0.9733 B(  6-C , 10-H ) :   0.9687
B(  6-C , 11-H ) :   0.9856 B(  7-O ,  8-H ) :   0.8996

Dispersion correction           -0.000225203
FINAL SINGLE POINT ENERGY      -115.733124455572

DIPOLE MOMENT
-------------
                                X             Y             Z
Electronic contribution:     -0.17892      -0.53074       1.73462
Nuclear contribution   :     -0.14338       1.02769      -2.15793
                        -----------------------------------------
Total Dipole Moment    :     -0.32230       0.49695      -0.42331
                        -----------------------------------------
Magnitude (a.u.)       :      0.72803
Magnitude (Debye)      :      1.85050

Rotational constants in cm-1:     4.292907     0.826931     0.793151
Rotational constants in MHz : 128698.114346 24790.771084 23778.056896

                             ****ORCA TERMINATED NORMALLY****
TOTAL RUN TIME: 0 days 0 hours 0 minutes 54 seconds 435 msec
