                         Program Version 4.1.2  - RELEASE  -
|  1> #Run DFT-D3 single point of the dimer
|  2> ! wB97X-D3 def2-TZVP TIGHTSCF CHELPG PMODEL PAL8
|  3>
|  4> %base "15-141_DFT_AB"
|  5>
|  6> %scf
|  7> MaxIter 1000
|  8> end
|  9>
| 10> * xyz 0 1
| 11>   C                      0.539348             -7.166168            0.517284
| 12>   O                      0.719637             -6.836601            -0.852378
| 13>   H                      -0.086676            -6.402254            -1.195676
| 14>   H                      1.415332             -7.554984            1.038854
| 15>   H                      0.234247             -6.288057            1.056190
| 16>   H                      -0.304731            -7.862906            0.678743
| 17>   C                      1.674890             -5.070432            -4.306692
| 18>   O                      0.651857             -4.569950            -3.366266
| 19>   H                      1.142490             -4.351245            -2.580795
| 20>   H                      2.465199             -4.304580            -4.429567
| 21>   H                      2.164696             -5.972457            -3.822451
| 22>   H                      1.296751             -5.369933            -5.330497
| 23> *
| 24>
| 25> #Run DFT-D3 single point of the molecule with dimer basis set
| 26> $new_job
| 27> %base "15-141_DFT_A"
| 28> ! wB97X-D3 def2-TZVP TIGHTSCF CHELPG PMODEL
| 29>
| 30> %scf
| 31> MaxIter 1000
| 32> end
| 33>
| 34> * xyz 0 1
| 35>   C                      0.539348             -7.166168            0.517284
| 36>   O                      0.719637             -6.836601            -0.852378
| 37>   H                      -0.086676            -6.402254            -1.195676
| 38>   H                      1.415332             -7.554984            1.038854
| 39>   H                      0.234247             -6.288057            1.056190
| 40>   H                      -0.304731            -7.862906            0.678743
| 41>   C                    : 1.674890             -5.070432            -4.306692
| 42>   O                    : 0.651857             -4.569950            -3.366266
| 43>   H                    : 1.142490             -4.351245            -2.580795
| 44>   H                    : 2.465199             -4.304580            -4.429567
| 45>   H                    : 2.164696             -5.972457            -3.822451
| 46>   H                    : 1.296751             -5.369933            -5.330497
| 47> *
| 48>
| 49> #Run DFT-D3 single point of the particle with dimer basis set
| 50> $new_job
| 51> %base "15-141_DFT_B"
| 52> ! wB97X-D3 def2-TZVP TIGHTSCF CHELPG PMODEL
| 53>
| 54> %scf
| 55> MaxIter 1000
| 56> end
| 57>
| 58> * xyz 0 1
| 59>   C                    : 0.539348             -7.166168            0.517284
| 60>   O                    : 0.719637             -6.836601            -0.852378
| 61>   H                    : -0.086676            -6.402254            -1.195676
| 62>   H                    : 1.415332             -7.554984            1.038854
| 63>   H                    : 0.234247             -6.288057            1.056190
| 64>   H                    : -0.304731            -7.862906            0.678743
| 65>   C                      1.674890             -5.070432            -4.306692
| 66>   O                      0.651857             -4.569950            -3.366266
| 67>   H                      1.142490             -4.351245            -2.580795
| 68>   H                      2.465199             -4.304580            -4.429567
| 69>   H                      2.164696             -5.972457            -3.822451
| 70>   H                      1.296751             -5.369933            -5.330497
| 71> *
| 72>
| 73>                          ****END OF INPUT****
 Total Charge           Charge          ....    0
 Multiplicity           Mult            ....    1
 Number of Electrons    NEL             ....   36
Dispersion correction           -0.001419658
FINAL SINGLE POINT ENERGY      -231.467562364206
Dispersion correction           -0.000245592
FINAL SINGLE POINT ENERGY      -115.733244096536

CARTESIAN COORDINATES (ANGSTROEM)
---------------------------------
  C      0.539348   -7.166168    0.517284
  O      0.719637   -6.836601   -0.852378
  H     -0.086676   -6.402254   -1.195676
  H      1.415332   -7.554984    1.038854
  H      0.234247   -6.288057    1.056190
  H     -0.304731   -7.862906    0.678743
  C      1.674890   -5.070432   -4.306692
  O      0.651857   -4.569950   -3.366266
  H      1.142490   -4.351245   -2.580795
  H      2.465199   -4.304580   -4.429567
  H      2.164696   -5.972457   -3.822451
  H      1.296751   -5.369933   -5.330497

 Multiplicity           Mult            ....    1
 Number of Electrons    NEL             ....   18
 Basis Dimension        Dim             ....  172

ORBITAL ENERGIES
----------------

  NO   OCC          E(Eh)            E(eV)
   0   2.0000     -19.231921      -523.3272
   1   2.0000     -10.330453      -281.1059
   2   2.0000      -1.123565       -30.5738
   3   2.0000      -0.790497       -21.5105
   4   2.0000      -0.597922       -16.2703
   5   2.0000      -0.531726       -14.4690
   6   2.0000      -0.523783       -14.2529
   7   2.0000      -0.439123       -11.9491
   8   2.0000      -0.374673       -10.1954
   9   0.0000       0.083799         2.2803
  10   0.0000       0.117563         3.1991
  11   0.0000       0.145778         3.9668
  12   0.0000       0.177477         4.8294
  13   0.0000       0.190364         5.1801

MULLIKEN ATOMIC CHARGES
-----------------------
   0 C :    0.000049
   1 O :   -0.001422
   2 H :   -0.005730
   3 H :    0.000036
   4 H :   -0.000059
   5 H :   -0.000011
   6 C :   -0.185613
   7 O :   -0.471256
   8 H :    0.314427
   9 H :    0.113242
  10 H :    0.108014
  11 H :    0.128323
Sum of atomic charges:   -0.0000000

LOEWDIN ATOMIC CHARGES
----------------------
   0 C :   -0.000163
   1 O :   -0.002421
   2 H :   -0.006175
   3 H :   -0.000003
   4 H :   -0.000008
   5 H :   -0.000003
   6 C :   -0.353976
   7 O :   -0.112958
   8 H :    0.160121
   9 H :    0.097169
  10 H :    0.102833
  11 H :    0.115585

  Mayer bond orders larger than 0.1
B(  6-C ,  7-O ) :   0.9866 B(  6-C ,  9-H ) :   0.9751 B(  6-C , 10-H ) :   0.9758
B(  6-C , 11-H ) :   0.9686 B(  7-O ,  8-H ) :   0.9011

Dispersion correction           -0.000261122
FINAL SINGLE POINT ENERGY      -115.730278659732

DIPOLE MOMENT
-------------
                                X             Y             Z
Electronic contribution:     -1.46644       0.63964       0.95957
Nuclear contribution   :      2.21228      -0.70170      -0.88351
                        -----------------------------------------
Total Dipole Moment    :      0.74585      -0.06206       0.07605
                        -----------------------------------------
Magnitude (a.u.)       :      0.75228
Magnitude (Debye)      :      1.91214

Rotational constants in cm-1:     4.102123     0.772472     0.743814
Rotational constants in MHz : 122978.562849 23158.139522 22298.973280

                             ****ORCA TERMINATED NORMALLY****
TOTAL RUN TIME: 0 days 0 hours 1 minutes 5 seconds 723 msec
