                         Program Version 4.1.2  - RELEASE  -
|  1> #Run DFT-D3 single point of the dimer
|  2> ! wB97X-D3 def2-TZVP TIGHTSCF CHELPG PMODEL PAL8
|  3>
|  4> %base "16-186_DFT_AB"
|  5>
|  6> %scf
|  7> MaxIter 1000
|  8> end
|  9>
| 10> * xyz 0 1
| 11>   C                      -0.641262            -3.997556            3.460501
| 12>   O                      -1.289227            -3.611036            2.241810
| 13>   H                      -2.235809            -3.829308            2.249596
| 14>   H                      -0.552726            -5.112312            3.504210
| 15>   H                      0.331831             -3.481780            3.610580
| 16>   H                      -1.286851            -3.741639            4.301010
| 17>   C                      -2.777194            -0.270792            0.949009
| 18>   O                      -1.995689            -1.417188            1.100612
| 19>   H                      -1.644728            -1.674541            1.990131
| 20>   H                      -2.231855            0.680778             0.936263
| 21>   H                      -3.323798            -0.297364            0.091819
| 22>   H                      -3.522735            -0.224258            1.774500
| 23> *
| 24>
| 25> #Run DFT-D3 single point of the molecule with dimer basis set
| 26> $new_job
| 27> %base "16-186_DFT_A"
| 28> ! wB97X-D3 def2-TZVP TIGHTSCF CHELPG PMODEL
| 29>
| 30> %scf
| 31> MaxIter 1000
| 32> end
| 33>
| 34> * xyz 0 1
| 35>   C                      -0.641262            -3.997556            3.460501
| 36>   O                      -1.289227            -3.611036            2.241810
| 37>   H                      -2.235809            -3.829308            2.249596
| 38>   H                      -0.552726            -5.112312            3.504210
| 39>   H                      0.331831             -3.481780            3.610580
| 40>   H                      -1.286851            -3.741639            4.301010
| 41>   C                    : -2.777194            -0.270792            0.949009
| 42>   O                    : -1.995689            -1.417188            1.100612
| 43>   H                    : -1.644728            -1.674541            1.990131
| 44>   H                    : -2.231855            0.680778             0.936263
| 45>   H                    : -3.323798            -0.297364            0.091819
| 46>   H                    : -3.522735            -0.224258            1.774500
| 47> *
| 48>
| 49> #Run DFT-D3 single point of the particle with dimer basis set
| 50> $new_job
| 51> %base "16-186_DFT_B"
| 52> ! wB97X-D3 def2-TZVP TIGHTSCF CHELPG PMODEL
| 53>
| 54> %scf
| 55> MaxIter 1000
| 56> end
| 57>
| 58> * xyz 0 1
| 59>   C                    : -0.641262            -3.997556            3.460501
| 60>   O                    : -1.289227            -3.611036            2.241810
| 61>   H                    : -2.235809            -3.829308            2.249596
| 62>   H                    : -0.552726            -5.112312            3.504210
| 63>   H                    : 0.331831             -3.481780            3.610580
| 64>   H                    : -1.286851            -3.741639            4.301010
| 65>   C                      -2.777194            -0.270792            0.949009
| 66>   O                      -1.995689            -1.417188            1.100612
| 67>   H                      -1.644728            -1.674541            1.990131
| 68>   H                      -2.231855            0.680778             0.936263
| 69>   H                      -3.323798            -0.297364            0.091819
| 70>   H                      -3.522735            -0.224258            1.774500
| 71> *
| 72>
| 73>                          ****END OF INPUT****
 Total Charge           Charge          ....    0
 Multiplicity           Mult            ....    1
 Number of Electrons    NEL             ....   36
Dispersion correction           -0.001515094
FINAL SINGLE POINT ENERGY      -231.462586458282
Dispersion correction           -0.000253696
FINAL SINGLE POINT ENERGY      -115.733944001168

CARTESIAN COORDINATES (ANGSTROEM)
---------------------------------
  C     -0.641262   -3.997556    3.460501
  O     -1.289227   -3.611036    2.241810
  H     -2.235809   -3.829308    2.249596
  H     -0.552726   -5.112312    3.504210
  H      0.331831   -3.481780    3.610580
  H     -1.286851   -3.741639    4.301010
  C     -2.777194   -0.270792    0.949009
  O     -1.995689   -1.417188    1.100612
  H     -1.644728   -1.674541    1.990131
  H     -2.231855    0.680778    0.936263
  H     -3.323798   -0.297364    0.091819
  H     -3.522735   -0.224258    1.774500

 Multiplicity           Mult            ....    1
 Number of Electrons    NEL             ....   18
 Basis Dimension        Dim             ....  172

ORBITAL ENERGIES
----------------

  NO   OCC          E(Eh)            E(eV)
   0   2.0000     -19.228500      -523.2341
   1   2.0000     -10.307296      -280.4758
   2   2.0000      -1.128551       -30.7094
   3   2.0000      -0.804246       -21.8847
   4   2.0000      -0.613117       -16.6838
   5   2.0000      -0.541928       -14.7466
   6   2.0000      -0.538586       -14.6557
   7   2.0000      -0.416035       -11.3209
   8   2.0000      -0.370963       -10.0944
   9   0.0000       0.073990         2.0134
  10   0.0000       0.131841         3.5876
  11   0.0000       0.152946         4.1619
  12   0.0000       0.171185         4.6582
  13   0.0000       0.196372         5.3436

MULLIKEN ATOMIC CHARGES
-----------------------
   0 C :    0.001290
   1 O :   -0.003294
   2 H :   -0.005515
   3 H :   -0.000036
   4 H :   -0.000240
   5 H :   -0.000390
   6 C :   -0.136918
   7 O :   -0.494046
   8 H :    0.326827
   9 H :    0.093980
  10 H :    0.126518
  11 H :    0.091824
Sum of atomic charges:    0.0000000

LOEWDIN ATOMIC CHARGES
----------------------
   0 C :   -0.003142
   1 O :   -0.024124
   2 H :   -0.007759
   3 H :   -0.000058
   4 H :   -0.000189
   5 H :   -0.000193
   6 C :   -0.384648
   7 O :   -0.061958
   8 H :    0.197225
   9 H :    0.095422
  10 H :    0.089941
  11 H :    0.099482

  Mayer bond orders larger than 0.1
B(  6-C ,  7-O ) :   0.9994 B(  6-C ,  9-H ) :   0.9716 B(  6-C , 10-H ) :   0.9729
B(  6-C , 11-H ) :   0.9882 B(  7-O ,  8-H ) :   0.8810

Dispersion correction           -0.000265576
FINAL SINGLE POINT ENERGY      -115.727465443139

DIPOLE MOMENT
-------------
                                X             Y             Z
Electronic contribution:      1.02871      -1.48040      -0.03626
Nuclear contribution   :     -1.14247       1.78533       0.53398
                        -----------------------------------------
Total Dipole Moment    :     -0.11376       0.30493       0.49772
                        -----------------------------------------
Magnitude (a.u.)       :      0.59468
Magnitude (Debye)      :      1.51157

Rotational constants in cm-1:     4.618776     0.826181     0.806061
Rotational constants in MHz : 138467.416088 24768.293407 24165.109531

                             ****ORCA TERMINATED NORMALLY****
TOTAL RUN TIME: 0 days 0 hours 1 minutes 5 seconds 48 msec
