                         Program Version 4.1.2  - RELEASE  -
|  1> #Run DFT-D3 single point of the dimer
|  2> ! wB97X-D3 def2-TZVP TIGHTSCF CHELPG PMODEL PAL8
|  3>
|  4> %base "21-76_DFT_AB"
|  5>
|  6> %scf
|  7> MaxIter 1000
|  8> end
|  9>
| 10> * xyz 0 1
| 11>   C                      3.842016             6.695679             2.250202
| 12>   O                      2.873278             7.246164             1.343030
| 13>   H                      3.031708             6.919436             0.425400
| 14>   H                      3.817862             5.565453             2.173094
| 15>   H                      4.822762             6.953849             1.878522
| 16>   H                      3.663193             7.138407             3.241986
| 17>   C                      7.219055             7.169444             4.966093
| 18>   O                      7.661412             8.280458             4.280042
| 19>   H                      8.536713             8.035610             3.951400
| 20>   H                      6.173010             6.995546             4.965965
| 21>   H                      7.549404             6.229393             4.492122
| 22>   H                      7.548917             7.196411             6.057170
| 23> *
| 24>
| 25> #Run DFT-D3 single point of the molecule with dimer basis set
| 26> $new_job
| 27> %base "21-76_DFT_A"
| 28> ! wB97X-D3 def2-TZVP TIGHTSCF CHELPG PMODEL
| 29>
| 30> %scf
| 31> MaxIter 1000
| 32> end
| 33>
| 34> * xyz 0 1
| 35>   C                      3.842016             6.695679             2.250202
| 36>   O                      2.873278             7.246164             1.343030
| 37>   H                      3.031708             6.919436             0.425400
| 38>   H                      3.817862             5.565453             2.173094
| 39>   H                      4.822762             6.953849             1.878522
| 40>   H                      3.663193             7.138407             3.241986
| 41>   C                    : 7.219055             7.169444             4.966093
| 42>   O                    : 7.661412             8.280458             4.280042
| 43>   H                    : 8.536713             8.035610             3.951400
| 44>   H                    : 6.173010             6.995546             4.965965
| 45>   H                    : 7.549404             6.229393             4.492122
| 46>   H                    : 7.548917             7.196411             6.057170
| 47> *
| 48>
| 49> #Run DFT-D3 single point of the particle with dimer basis set
| 50> $new_job
| 51> %base "21-76_DFT_B"
| 52> ! wB97X-D3 def2-TZVP TIGHTSCF CHELPG PMODEL
| 53>
| 54> %scf
| 55> MaxIter 1000
| 56> end
| 57>
| 58> * xyz 0 1
| 59>   C                    : 3.842016             6.695679             2.250202
| 60>   O                    : 2.873278             7.246164             1.343030
| 61>   H                    : 3.031708             6.919436             0.425400
| 62>   H                    : 3.817862             5.565453             2.173094
| 63>   H                    : 4.822762             6.953849             1.878522
| 64>   H                    : 3.663193             7.138407             3.241986
| 65>   C                      7.219055             7.169444             4.966093
| 66>   O                      7.661412             8.280458             4.280042
| 67>   H                      8.536713             8.035610             3.951400
| 68>   H                      6.173010             6.995546             4.965965
| 69>   H                      7.549404             6.229393             4.492122
| 70>   H                      7.548917             7.196411             6.057170
| 71> *
| 72>
| 73>                          ****END OF INPUT****
 Total Charge           Charge          ....    0
 Multiplicity           Mult            ....    1
 Number of Electrons    NEL             ....   36
Dispersion correction           -0.001133891
FINAL SINGLE POINT ENERGY      -231.462943378566
Dispersion correction           -0.000238932
FINAL SINGLE POINT ENERGY      -115.731976276593

CARTESIAN COORDINATES (ANGSTROEM)
---------------------------------
  C      3.842016    6.695679    2.250202
  O      2.873278    7.246164    1.343030
  H      3.031708    6.919436    0.425400
  H      3.817862    5.565453    2.173094
  H      4.822762    6.953849    1.878522
  H      3.663193    7.138407    3.241986
  C      7.219055    7.169444    4.966093
  O      7.661412    8.280458    4.280042
  H      8.536713    8.035610    3.951400
  H      6.173010    6.995546    4.965965
  H      7.549404    6.229393    4.492122
  H      7.548917    7.196411    6.057170

 Multiplicity           Mult            ....    1
 Number of Electrons    NEL             ....   18
 Basis Dimension        Dim             ....  172

ORBITAL ENERGIES
----------------

  NO   OCC          E(Eh)            E(eV)
   0   2.0000     -19.234454      -523.3961
   1   2.0000     -10.312309      -280.6122
   2   2.0000      -1.150218       -31.2990
   3   2.0000      -0.793324       -21.5874
   4   2.0000      -0.617152       -16.7936
   5   2.0000      -0.545990       -14.8571
   6   2.0000      -0.534440       -14.5428
   7   2.0000      -0.427864       -11.6428
   8   2.0000      -0.374121       -10.1804
   9   0.0000       0.086234         2.3465
  10   0.0000       0.115023         3.1299
  11   0.0000       0.147700         4.0191
  12   0.0000       0.173356         4.7173
  13   0.0000       0.192026         5.2253

MULLIKEN ATOMIC CHARGES
-----------------------
   0 C :   -0.000094
   1 O :    0.000010
   2 H :   -0.000001
   3 H :    0.000131
   4 H :   -0.000379
   5 H :    0.000003
   6 C :   -0.173284
   7 O :   -0.460659
   8 H :    0.322636
   9 H :    0.121856
  10 H :    0.093841
  11 H :    0.095940
Sum of atomic charges:   -0.0000000

LOEWDIN ATOMIC CHARGES
----------------------
   0 C :   -0.000914
   1 O :   -0.000007
   2 H :   -0.000002
   3 H :   -0.000020
   4 H :   -0.000338
   5 H :   -0.000605
   6 C :   -0.423610
   7 O :   -0.051322
   8 H :    0.181477
   9 H :    0.097004
  10 H :    0.096809
  11 H :    0.101527

  Mayer bond orders larger than 0.1
B(  6-C ,  7-O ) :   1.0105 B(  6-C ,  9-H ) :   0.9696 B(  6-C , 10-H ) :   0.9861
B(  6-C , 11-H ) :   0.9770 B(  7-O ,  8-H ) :   0.8956

Dispersion correction           -0.000234984
FINAL SINGLE POINT ENERGY      -115.730446031627

DIPOLE MOMENT
-------------
                                X             Y             Z
Electronic contribution:      0.42703       1.67721      -0.94976
Nuclear contribution   :     -0.06183      -2.25456       0.95444
                        -----------------------------------------
Total Dipole Moment    :      0.36520      -0.57735       0.00467
                        -----------------------------------------
Magnitude (a.u.)       :      0.68317
Magnitude (Debye)      :      1.73648

Rotational constants in cm-1:     4.326078     0.851681     0.832973
Rotational constants in MHz : 129692.565461 25532.763451 24971.894274

                             ****ORCA TERMINATED NORMALLY****
TOTAL RUN TIME: 0 days 0 hours 1 minutes 5 seconds 351 msec
