                         Program Version 4.1.2  - RELEASE  -
|  1> #Run DFT-D3 single point of the dimer
|  2> ! wB97X-D3 def2-TZVP TIGHTSCF CHELPG PMODEL PAL8
|  3>
|  4> %base "3-49_DFT_AB"
|  5>
|  6> %scf
|  7> MaxIter 1000
|  8> end
|  9>
| 10> * xyz 0 1
| 11>   C                      -1.585375            -0.526504            1.034932
| 12>   O                      -1.659778            -0.611331            2.447003
| 13>   H                      -2.532319            -0.358363            2.745018
| 14>   H                      -0.888317            0.258825             0.604334
| 15>   H                      -1.291051            -1.503012            0.632394
| 16>   H                      -2.593034            -0.391837            0.618044
| 17>   C                      -1.179622            -0.680025            6.462159
| 18>   O                      -1.994517            0.038928             7.405688
| 19>   H                      -2.109912            0.907878             7.079844
| 20>   H                      -0.109920            -0.503745            6.727623
| 21>   H                      -1.354234            -1.756892            6.522703
| 22>   H                      -1.366128            -0.313220            5.402350
| 23> *
| 24>
| 25> #Run DFT-D3 single point of the molecule with dimer basis set
| 26> $new_job
| 27> %base "3-49_DFT_A"
| 28> ! wB97X-D3 def2-TZVP TIGHTSCF CHELPG PMODEL
| 29>
| 30> %scf
| 31> MaxIter 1000
| 32> end
| 33>
| 34> * xyz 0 1
| 35>   C                      -1.585375            -0.526504            1.034932
| 36>   O                      -1.659778            -0.611331            2.447003
| 37>   H                      -2.532319            -0.358363            2.745018
| 38>   H                      -0.888317            0.258825             0.604334
| 39>   H                      -1.291051            -1.503012            0.632394
| 40>   H                      -2.593034            -0.391837            0.618044
| 41>   C                    : -1.179622            -0.680025            6.462159
| 42>   O                    : -1.994517            0.038928             7.405688
| 43>   H                    : -2.109912            0.907878             7.079844
| 44>   H                    : -0.109920            -0.503745            6.727623
| 45>   H                    : -1.354234            -1.756892            6.522703
| 46>   H                    : -1.366128            -0.313220            5.402350
| 47> *
| 48>
| 49> #Run DFT-D3 single point of the particle with dimer basis set
| 50> $new_job
| 51> %base "3-49_DFT_B"
| 52> ! wB97X-D3 def2-TZVP TIGHTSCF CHELPG PMODEL
| 53>
| 54> %scf
| 55> MaxIter 1000
| 56> end
| 57>
| 58> * xyz 0 1
| 59>   C                    : -1.585375            -0.526504            1.034932
| 60>   O                    : -1.659778            -0.611331            2.447003
| 61>   H                    : -2.532319            -0.358363            2.745018
| 62>   H                    : -0.888317            0.258825             0.604334
| 63>   H                    : -1.291051            -1.503012            0.632394
| 64>   H                    : -2.593034            -0.391837            0.618044
| 65>   C                      -1.179622            -0.680025            6.462159
| 66>   O                      -1.994517            0.038928             7.405688
| 67>   H                      -2.109912            0.907878             7.079844
| 68>   H                      -0.109920            -0.503745            6.727623
| 69>   H                      -1.354234            -1.756892            6.522703
| 70>   H                      -1.366128            -0.313220            5.402350
| 71> *
| 72>
| 73>                          ****END OF INPUT****
 Total Charge           Charge          ....    0
 Multiplicity           Mult            ....    1
 Number of Electrons    NEL             ....   36
Dispersion correction           -0.001049534
FINAL SINGLE POINT ENERGY      -231.467885207237
Dispersion correction           -0.000262640
FINAL SINGLE POINT ENERGY      -115.732859424300

CARTESIAN COORDINATES (ANGSTROEM)
---------------------------------
  C     -1.585375   -0.526504    1.034932
  O     -1.659778   -0.611331    2.447003
  H     -2.532319   -0.358363    2.745018
  H     -0.888317    0.258825    0.604334
  H     -1.291051   -1.503012    0.632394
  H     -2.593034   -0.391837    0.618044
  C     -1.179622   -0.680025    6.462159
  O     -1.994517    0.038928    7.405688
  H     -2.109912    0.907878    7.079844
  H     -0.109920   -0.503745    6.727623
  H     -1.354234   -1.756892    6.522703
  H     -1.366128   -0.313220    5.402350

 Multiplicity           Mult            ....    1
 Number of Electrons    NEL             ....   18
 Basis Dimension        Dim             ....  172

ORBITAL ENERGIES
----------------

  NO   OCC          E(Eh)            E(eV)
   0   2.0000     -19.226894      -523.1904
   1   2.0000     -10.322797      -280.8976
   2   2.0000      -1.133583       -30.8464
   3   2.0000      -0.793486       -21.5918
   4   2.0000      -0.605556       -16.4780
   5   2.0000      -0.534886       -14.5550
   6   2.0000      -0.528578       -14.3833
   7   2.0000      -0.435508       -11.8508
   8   2.0000      -0.372756       -10.1432
   9   0.0000       0.082060         2.2330
  10   0.0000       0.115443         3.1414
  11   0.0000       0.145443         3.9577
  12   0.0000       0.170691         4.6447
  13   0.0000       0.189168         5.1475

MULLIKEN ATOMIC CHARGES
-----------------------
   0 C :   -0.000223
   1 O :   -0.000086
   2 H :   -0.000066
   3 H :    0.000004
   4 H :    0.000006
   5 H :    0.000008
   6 C :   -0.176632
   7 O :   -0.471377
   8 H :    0.311041
   9 H :    0.108004
  10 H :    0.126559
  11 H :    0.102762
Sum of atomic charges:    0.0000000

LOEWDIN ATOMIC CHARGES
----------------------
   0 C :   -0.000102
   1 O :   -0.001550
   2 H :   -0.001176
   3 H :   -0.000003
   4 H :   -0.000003
   5 H :   -0.000001
   6 C :   -0.371048
   7 O :   -0.086025
   8 H :    0.149967
   9 H :    0.099745
  10 H :    0.105957
  11 H :    0.104240

  Mayer bond orders larger than 0.1
B(  6-C ,  7-O ) :   0.9939 B(  6-C ,  9-H ) :   0.9745 B(  6-C , 10-H ) :   0.9715
B(  6-C , 11-H ) :   0.9809 B(  7-O ,  8-H ) :   0.9061

Dispersion correction           -0.000253585
FINAL SINGLE POINT ENERGY      -115.733842815579

DIPOLE MOMENT
-------------
                                X             Y             Z
Electronic contribution:     -1.09262       0.73590       1.26519
Nuclear contribution   :      1.33917      -0.47782      -1.85615
                        -----------------------------------------
Total Dipole Moment    :      0.24656       0.25808      -0.59096
                        -----------------------------------------
Magnitude (a.u.)       :      0.69039
Magnitude (Debye)      :      1.75482

Rotational constants in cm-1:     4.167571     0.807770     0.778790
Rotational constants in MHz : 124940.621400 24216.330762 23347.528275

                             ****ORCA TERMINATED NORMALLY****
TOTAL RUN TIME: 0 days 0 hours 6 minutes 17 seconds 555 msec
