                         Program Version 4.1.2  - RELEASE  -
|  1> #Run DFT-D3 single point of the dimer
|  2> ! wB97X-D3 def2-TZVP TIGHTSCF CHELPG PMODEL PAL8
|  3>
|  4> %base "4-128_DFT_AB"
|  5>
|  6> %scf
|  7> MaxIter 1000
|  8> end
|  9>
| 10> * xyz 0 1
| 11>   C                      6.954746             7.491548             2.890849
| 12>   O                      6.315243             6.971353             1.717059
| 13>   H                      5.920077             7.735909             1.324826
| 14>   H                      7.605254             6.722106             3.359889
| 15>   H                      7.647488             8.305513             2.508878
| 16>   H                      6.250953             7.862724             3.602146
| 17>   C                      1.018940             6.694985             -1.032136
| 18>   O                      2.230174             6.372593             -0.305373
| 19>   H                      2.404146             5.410996             -0.444812
| 20>   H                      0.998442             7.759421             -1.303204
| 21>   H                      1.070386             6.146931             -2.024044
| 22>   H                      0.123242             6.356830             -0.452372
| 23> *
| 24>
| 25> #Run DFT-D3 single point of the molecule with dimer basis set
| 26> $new_job
| 27> %base "4-128_DFT_A"
| 28> ! wB97X-D3 def2-TZVP TIGHTSCF CHELPG PMODEL
| 29>
| 30> %scf
| 31> MaxIter 1000
| 32> end
| 33>
| 34> * xyz 0 1
| 35>   C                      6.954746             7.491548             2.890849
| 36>   O                      6.315243             6.971353             1.717059
| 37>   H                      5.920077             7.735909             1.324826
| 38>   H                      7.605254             6.722106             3.359889
| 39>   H                      7.647488             8.305513             2.508878
| 40>   H                      6.250953             7.862724             3.602146
| 41>   C                    : 1.018940             6.694985             -1.032136
| 42>   O                    : 2.230174             6.372593             -0.305373
| 43>   H                    : 2.404146             5.410996             -0.444812
| 44>   H                    : 0.998442             7.759421             -1.303204
| 45>   H                    : 1.070386             6.146931             -2.024044
| 46>   H                    : 0.123242             6.356830             -0.452372
| 47> *
| 48>
| 49> #Run DFT-D3 single point of the particle with dimer basis set
| 50> $new_job
| 51> %base "4-128_DFT_B"
| 52> ! wB97X-D3 def2-TZVP TIGHTSCF CHELPG PMODEL
| 53>
| 54> %scf
| 55> MaxIter 1000
| 56> end
| 57>
| 58> * xyz 0 1
| 59>   C                    : 6.954746             7.491548             2.890849
| 60>   O                    : 6.315243             6.971353             1.717059
| 61>   H                    : 5.920077             7.735909             1.324826
| 62>   H                    : 7.605254             6.722106             3.359889
| 63>   H                    : 7.647488             8.305513             2.508878
| 64>   H                    : 6.250953             7.862724             3.602146
| 65>   C                      1.018940             6.694985             -1.032136
| 66>   O                      2.230174             6.372593             -0.305373
| 67>   H                      2.404146             5.410996             -0.444812
| 68>   H                      0.998442             7.759421             -1.303204
| 69>   H                      1.070386             6.146931             -2.024044
| 70>   H                      0.123242             6.356830             -0.452372
| 71> *
| 72>
| 73>                          ****END OF INPUT****
 Total Charge           Charge          ....    0
 Multiplicity           Mult            ....    1
 Number of Electrons    NEL             ....   36
Dispersion correction           -0.000615508
FINAL SINGLE POINT ENERGY      -231.465887902006
Dispersion correction           -0.000225224
FINAL SINGLE POINT ENERGY      -115.732965067011

CARTESIAN COORDINATES (ANGSTROEM)
---------------------------------
  C      6.954746    7.491548    2.890849
  O      6.315243    6.971353    1.717059
  H      5.920077    7.735909    1.324826
  H      7.605254    6.722106    3.359889
  H      7.647488    8.305513    2.508878
  H      6.250953    7.862724    3.602146
  C      1.018940    6.694985   -1.032136
  O      2.230174    6.372593   -0.305373
  H      2.404146    5.410996   -0.444812
  H      0.998442    7.759421   -1.303204
  H      1.070386    6.146931   -2.024044
  H      0.123242    6.356830   -0.452372

 Multiplicity           Mult            ....    1
 Number of Electrons    NEL             ....   18
 Basis Dimension        Dim             ....  172

ORBITAL ENERGIES
----------------

  NO   OCC          E(Eh)            E(eV)
   0   2.0000     -19.230709      -523.2942
   1   2.0000     -10.323782      -280.9244
   2   2.0000      -1.120598       -30.4930
   3   2.0000      -0.787686       -21.4340
   4   2.0000      -0.596364       -16.2279
   5   2.0000      -0.541643       -14.7389
   6   2.0000      -0.520594       -14.1661
   7   2.0000      -0.429768       -11.6946
   8   2.0000      -0.373243       -10.1565
   9   0.0000       0.093646         2.5482
  10   0.0000       0.109526         2.9804
  11   0.0000       0.150274         4.0892
  12   0.0000       0.176695         4.8081
  13   0.0000       0.193891         5.2760

MULLIKEN ATOMIC CHARGES
-----------------------
   0 C :    0.000049
   1 O :   -0.000003
   2 H :   -0.000487
   3 H :    0.000002
   4 H :   -0.000000
   5 H :   -0.000008
   6 C :   -0.171387
   7 O :   -0.482787
   8 H :    0.317022
   9 H :    0.127080
  10 H :    0.101342
  11 H :    0.109177
Sum of atomic charges:   -0.0000000

LOEWDIN ATOMIC CHARGES
----------------------
   0 C :   -0.000003
   1 O :   -0.000035
   2 H :   -0.000253
   3 H :   -0.000000
   4 H :   -0.000000
   5 H :   -0.000000
   6 C :   -0.370453
   7 O :   -0.121138
   8 H :    0.181542
   9 H :    0.107697
  10 H :    0.102275
  11 H :    0.100369

  Mayer bond orders larger than 0.1
B(  6-C ,  7-O ) :   0.9937 B(  6-C ,  9-H ) :   0.9691 B(  6-C , 10-H ) :   0.9835
B(  6-C , 11-H ) :   0.9681 B(  7-O ,  8-H ) :   0.8964

Dispersion correction           -0.000253575
FINAL SINGLE POINT ENERGY      -115.732405203791

DIPOLE MOMENT
-------------
                                X             Y             Z
Electronic contribution:      1.45587      -0.15256       1.02977
Nuclear contribution   :     -1.83402      -0.30464      -1.43500
                        -----------------------------------------
Total Dipole Moment    :     -0.37814      -0.45720      -0.40524
                        -----------------------------------------
Magnitude (a.u.)       :      0.71850
Magnitude (Debye)      :      1.82627

Rotational constants in cm-1:     4.032696     0.796726     0.773604
Rotational constants in MHz : 120897.181668 23885.241770 23192.064719

                             ****ORCA TERMINATED NORMALLY****
TOTAL RUN TIME: 0 days 0 hours 1 minutes 20 seconds 867 msec
