                         Program Version 4.1.2  - RELEASE  -
|  1> #Run DFT-D3 single point of the dimer
|  2> ! wB97X-D3 def2-TZVP TIGHTSCF CHELPG PMODEL PAL8
|  3>
|  4> %base "5-149_DFT_AB"
|  5>
|  6> %scf
|  7> MaxIter 1000
|  8> end
|  9>
| 10> * xyz 0 1
| 11>   C                      8.147362             3.621650             -3.749684
| 12>   O                      8.053980             4.057583             -2.454928
| 13>   H                      7.472880             3.409524             -2.063040
| 14>   H                      7.820027             2.626620             -3.885421
| 15>   H                      7.487367             4.180078             -4.434288
| 16>   H                      9.216773             3.642630             -4.117676
| 17>   C                      10.206809            1.078521             -1.554075
| 18>   O                      10.951794            0.939919             -2.685973
| 19>   H                      10.413294            1.008399             -3.440788
| 20>   H                      10.922767            1.007575             -0.680634
| 21>   H                      9.666471             2.045954             -1.565513
| 22>   H                      9.447073             0.300277             -1.448344
| 23> *
| 24>
| 25> #Run DFT-D3 single point of the molecule with dimer basis set
| 26> $new_job
| 27> %base "5-149_DFT_A"
| 28> ! wB97X-D3 def2-TZVP TIGHTSCF CHELPG PMODEL
| 29>
| 30> %scf
| 31> MaxIter 1000
| 32> end
| 33>
| 34> * xyz 0 1
| 35>   C                      8.147362             3.621650             -3.749684
| 36>   O                      8.053980             4.057583             -2.454928
| 37>   H                      7.472880             3.409524             -2.063040
| 38>   H                      7.820027             2.626620             -3.885421
| 39>   H                      7.487367             4.180078             -4.434288
| 40>   H                      9.216773             3.642630             -4.117676
| 41>   C                    : 10.206809            1.078521             -1.554075
| 42>   O                    : 10.951794            0.939919             -2.685973
| 43>   H                    : 10.413294            1.008399             -3.440788
| 44>   H                    : 10.922767            1.007575             -0.680634
| 45>   H                    : 9.666471             2.045954             -1.565513
| 46>   H                    : 9.447073             0.300277             -1.448344
| 47> *
| 48>
| 49> #Run DFT-D3 single point of the particle with dimer basis set
| 50> $new_job
| 51> %base "5-149_DFT_B"
| 52> ! wB97X-D3 def2-TZVP TIGHTSCF CHELPG PMODEL
| 53>
| 54> %scf
| 55> MaxIter 1000
| 56> end
| 57>
| 58> * xyz 0 1
| 59>   C                    : 8.147362             3.621650             -3.749684
| 60>   O                    : 8.053980             4.057583             -2.454928
| 61>   H                    : 7.472880             3.409524             -2.063040
| 62>   H                    : 7.820027             2.626620             -3.885421
| 63>   H                    : 7.487367             4.180078             -4.434288
| 64>   H                    : 9.216773             3.642630             -4.117676
| 65>   C                      10.206809            1.078521             -1.554075
| 66>   O                      10.951794            0.939919             -2.685973
| 67>   H                      10.413294            1.008399             -3.440788
| 68>   H                      10.922767            1.007575             -0.680634
| 69>   H                      9.666471             2.045954             -1.565513
| 70>   H                      9.447073             0.300277             -1.448344
| 71> *
| 72>
| 73>                          ****END OF INPUT****
 Total Charge           Charge          ....    0
 Multiplicity           Mult            ....    1
 Number of Electrons    NEL             ....   36
Dispersion correction           -0.001965756
FINAL SINGLE POINT ENERGY      -231.465414335874
Dispersion correction           -0.000222055
FINAL SINGLE POINT ENERGY      -115.730587557949

CARTESIAN COORDINATES (ANGSTROEM)
---------------------------------
  C      8.147362    3.621650   -3.749684
  O      8.053980    4.057583   -2.454928
  H      7.472880    3.409524   -2.063040
  H      7.820027    2.626620   -3.885421
  H      7.487367    4.180078   -4.434288
  H      9.216773    3.642630   -4.117676
  C     10.206809    1.078521   -1.554075
  O     10.951794    0.939919   -2.685973
  H     10.413294    1.008399   -3.440788
  H     10.922767    1.007575   -0.680634
  H      9.666471    2.045954   -1.565513
  H      9.447073    0.300277   -1.448344

 Multiplicity           Mult            ....    1
 Number of Electrons    NEL             ....   18
 Basis Dimension        Dim             ....  172

ORBITAL ENERGIES
----------------

  NO   OCC          E(Eh)            E(eV)
   0   2.0000     -19.226468      -523.1788
   1   2.0000     -10.314319      -280.6669
   2   2.0000      -1.158353       -31.5204
   3   2.0000      -0.793943       -21.6043
   4   2.0000      -0.625870       -17.0308
   5   2.0000      -0.546395       -14.8682
   6   2.0000      -0.530896       -14.4464
   7   2.0000      -0.429337       -11.6828
   8   2.0000      -0.370344       -10.0776
   9   0.0000       0.073419         1.9978
  10   0.0000       0.132166         3.5964
  11   0.0000       0.147358         4.0098
  12   0.0000       0.177025         4.8171
  13   0.0000       0.184393         5.0176

MULLIKEN ATOMIC CHARGES
-----------------------
   0 C :    0.001192
   1 O :   -0.000008
   2 H :   -0.001328
   3 H :   -0.000158
   4 H :    0.000132
   5 H :   -0.000999
   6 C :   -0.140931
   7 O :   -0.460348
   8 H :    0.309382
   9 H :    0.113275
  10 H :    0.086616
  11 H :    0.093175
Sum of atomic charges:    0.0000000

LOEWDIN ATOMIC CHARGES
----------------------
   0 C :   -0.004110
   1 O :   -0.002952
   2 H :   -0.002371
   3 H :   -0.000535
   4 H :   -0.000027
   5 H :   -0.000948
   6 C :   -0.422350
   7 O :   -0.022273
   8 H :    0.150912
   9 H :    0.117325
  10 H :    0.097290
  11 H :    0.090040

  Mayer bond orders larger than 0.1
B(  6-C ,  7-O ) :   1.0010 B(  6-C ,  9-H ) :   0.9730 B(  6-C , 10-H ) :   0.9813
B(  6-C , 11-H ) :   0.9766 B(  7-O ,  8-H ) :   0.9052

Dispersion correction           -0.000218817
FINAL SINGLE POINT ENERGY      -115.733696365696

DIPOLE MOMENT
-------------
                                X             Y             Z
Electronic contribution:      1.08259      -0.21223      -1.44857
Nuclear contribution   :     -1.69995       0.29813       1.35930
                        -----------------------------------------
Total Dipole Moment    :     -0.61736       0.08589      -0.08928
                        -----------------------------------------
Magnitude (a.u.)       :      0.62967
Magnitude (Debye)      :      1.60048

Rotational constants in cm-1:     4.224854     0.886639     0.847891
Rotational constants in MHz : 126657.944656 26580.762381 25419.138346

                             ****ORCA TERMINATED NORMALLY****
TOTAL RUN TIME: 0 days 0 hours 1 minutes 2 seconds 258 msec
