                         Program Version 4.1.2  - RELEASE  -
|  1> #Run DFT-D3 single point of the dimer
|  2> ! wB97X-D3 def2-TZVP TIGHTSCF CHELPG PMODEL PAL8
|  3>
|  4> %base "4-174_DFT_AB"
|  5>
|  6> %scf
|  7> MaxIter 1000
|  8> end
|  9>
| 10> * xyz 0 1
| 11>   C                      9.897088             -6.106647            -1.344404
| 12>   O                      8.894205             -6.210218            -0.357511
| 13>   H                      8.365926             -5.424265            -0.546781
| 14>   H                      9.837343             -6.958201            -2.012444
| 15>   H                      9.795360             -5.159881            -1.911323
| 16>   H                      10.927268            -6.047717            -0.936030
| 17>   C                      6.153015             -5.292098            3.603107
| 18>   O                      6.950715             -5.901456            2.651022
| 19>   H                      6.387861             -6.556969            2.128899
| 20>   H                      5.094600             -5.368703            3.263244
| 21>   H                      6.258839             -5.732729            4.566604
| 22>   H                      6.401723             -4.268254            3.740448
| 23> *
| 24>
| 25> #Run DFT-D3 single point of the molecule with dimer basis set
| 26> $new_job
| 27> %base "4-174_DFT_A"
| 28> ! wB97X-D3 def2-TZVP TIGHTSCF CHELPG PMODEL
| 29>
| 30> %scf
| 31> MaxIter 1000
| 32> end
| 33>
| 34> * xyz 0 1
| 35>   C                      9.897088             -6.106647            -1.344404
| 36>   O                      8.894205             -6.210218            -0.357511
| 37>   H                      8.365926             -5.424265            -0.546781
| 38>   H                      9.837343             -6.958201            -2.012444
| 39>   H                      9.795360             -5.159881            -1.911323
| 40>   H                      10.927268            -6.047717            -0.936030
| 41>   C                    : 6.153015             -5.292098            3.603107
| 42>   O                    : 6.950715             -5.901456            2.651022
| 43>   H                    : 6.387861             -6.556969            2.128899
| 44>   H                    : 5.094600             -5.368703            3.263244
| 45>   H                    : 6.258839             -5.732729            4.566604
| 46>   H                    : 6.401723             -4.268254            3.740448
| 47> *
| 48>
| 49> #Run DFT-D3 single point of the particle with dimer basis set
| 50> $new_job
| 51> %base "4-174_DFT_B"
| 52> ! wB97X-D3 def2-TZVP TIGHTSCF CHELPG PMODEL
| 53>
| 54> %scf
| 55> MaxIter 1000
| 56> end
| 57>
| 58> * xyz 0 1
| 59>   C                    : 9.897088             -6.106647            -1.344404
| 60>   O                    : 8.894205             -6.210218            -0.357511
| 61>   H                    : 8.365926             -5.424265            -0.546781
| 62>   H                    : 9.837343             -6.958201            -2.012444
| 63>   H                    : 9.795360             -5.159881            -1.911323
| 64>   H                    : 10.927268            -6.047717            -0.936030
| 65>   C                      6.153015             -5.292098            3.603107
| 66>   O                      6.950715             -5.901456            2.651022
| 67>   H                      6.387861             -6.556969            2.128899
| 68>   H                      5.094600             -5.368703            3.263244
| 69>   H                      6.258839             -5.732729            4.566604
| 70>   H                      6.401723             -4.268254            3.740448
| 71> *
| 72>
| 73>                          ****END OF INPUT****
 Total Charge           Charge          ....    0
 Multiplicity           Mult            ....    1
 Number of Electrons    NEL             ....   36
Dispersion correction           -0.000905830
FINAL SINGLE POINT ENERGY      -231.463034734617
Dispersion correction           -0.000237367
FINAL SINGLE POINT ENERGY      -115.732741603387

CARTESIAN COORDINATES (ANGSTROEM)
---------------------------------
  C      9.897088   -6.106647   -1.344404
  O      8.894205   -6.210218   -0.357511
  H      8.365926   -5.424265   -0.546781
  H      9.837343   -6.958201   -2.012444
  H      9.795360   -5.159881   -1.911323
  H     10.927268   -6.047717   -0.936030
  C      6.153015   -5.292098    3.603107
  O      6.950715   -5.901456    2.651022
  H      6.387861   -6.556969    2.128899
  H      5.094600   -5.368703    3.263244
  H      6.258839   -5.732729    4.566604
  H      6.401723   -4.268254    3.740448

 Multiplicity           Mult            ....    1
 Number of Electrons    NEL             ....   18
 Basis Dimension        Dim             ....  172

ORBITAL ENERGIES
----------------

  NO   OCC          E(Eh)            E(eV)
   0   2.0000     -19.231873      -523.3259
   1   2.0000     -10.305333      -280.4224
   2   2.0000      -1.136383       -30.9225
   3   2.0000      -0.793075       -21.5807
   4   2.0000      -0.609365       -16.5817
   5   2.0000      -0.545817       -14.8524
   6   2.0000      -0.538404       -14.6507
   7   2.0000      -0.425761       -11.5855
   8   2.0000      -0.369910       -10.0658
   9   0.0000       0.091725         2.4960
  10   0.0000       0.107324         2.9204
  11   0.0000       0.154870         4.2142
  12   0.0000       0.182623         4.9694
  13   0.0000       0.201239         5.4760

MULLIKEN ATOMIC CHARGES
-----------------------
   0 C :    0.000130
   1 O :   -0.000369
   2 H :   -0.001996
   3 H :   -0.000004
   4 H :    0.000008
   5 H :    0.000006
   6 C :   -0.156430
   7 O :   -0.472635
   8 H :    0.323273
   9 H :    0.094694
  10 H :    0.099678
  11 H :    0.113644
Sum of atomic charges:    0.0000000

LOEWDIN ATOMIC CHARGES
----------------------
   0 C :   -0.000052
   1 O :   -0.001053
   2 H :   -0.001516
   3 H :   -0.000002
   4 H :   -0.000001
   5 H :   -0.000001
   6 C :   -0.406234
   7 O :   -0.078003
   8 H :    0.201311
   9 H :    0.100359
  10 H :    0.088398
  11 H :    0.096793

  Mayer bond orders larger than 0.1
B(  6-C ,  7-O ) :   1.0117 B(  6-C ,  9-H ) :   0.9939 B(  6-C , 10-H ) :   0.9736
B(  6-C , 11-H ) :   0.9753 B(  7-O ,  8-H ) :   0.8892

Dispersion correction           -0.000228758
FINAL SINGLE POINT ENERGY      -115.730522496671

DIPOLE MOMENT
-------------
                                X             Y             Z
Electronic contribution:      1.21376      -0.68463      -1.15204
Nuclear contribution   :     -1.87325       0.51577       1.19234
                        -----------------------------------------
Total Dipole Moment    :     -0.65949      -0.16886       0.04030
                        -----------------------------------------
Magnitude (a.u.)       :      0.68196
Magnitude (Debye)      :      1.73339

Rotational constants in cm-1:     4.309183     0.865996     0.824599
Rotational constants in MHz : 129186.063157 25961.913655 24720.844452

                             ****ORCA TERMINATED NORMALLY****
TOTAL RUN TIME: 0 days 0 hours 1 minutes 32 seconds 428 msec
