                         Program Version 4.1.2  - RELEASE  -
|  1> #Run DFT-D3 single point of the dimer
|  2> ! wB97X-D3 def2-TZVP TIGHTSCF CHELPG PMODEL PAL8
|  3>
|  4> %base "4-74_DFT_AB"
|  5>
|  6> %scf
|  7> MaxIter 1000
|  8> end
|  9>
| 10> * xyz 0 1
| 11>   C                      4.024355             -6.801977            -8.916837
| 12>   O                      2.663368             -6.801153            -9.057764
| 13>   H                      2.302271             -5.971964            -8.723730
| 14>   H                      4.469199             -5.890253            -9.387422
| 15>   H                      4.195968             -6.701892            -7.838637
| 16>   H                      4.536072             -7.759296            -9.102608
| 17>   C                      5.007363             -10.473364           -8.114477
| 18>   O                      5.496894             -11.732456           -8.497833
| 19>   H                      5.834597             -12.210601           -7.718582
| 20>   H                      5.577281             -10.086766           -7.260337
| 21>   H                      5.110055             -9.707083            -8.899859
| 22>   H                      3.930187             -10.396516           -7.917804
| 23> *
| 24>
| 25> #Run DFT-D3 single point of the molecule with dimer basis set
| 26> $new_job
| 27> %base "4-74_DFT_A"
| 28> ! wB97X-D3 def2-TZVP TIGHTSCF CHELPG PMODEL
| 29>
| 30> %scf
| 31> MaxIter 1000
| 32> end
| 33>
| 34> * xyz 0 1
| 35>   C                      4.024355             -6.801977            -8.916837
| 36>   O                      2.663368             -6.801153            -9.057764
| 37>   H                      2.302271             -5.971964            -8.723730
| 38>   H                      4.469199             -5.890253            -9.387422
| 39>   H                      4.195968             -6.701892            -7.838637
| 40>   H                      4.536072             -7.759296            -9.102608
| 41>   C                    : 5.007363             -10.473364           -8.114477
| 42>   O                    : 5.496894             -11.732456           -8.497833
| 43>   H                    : 5.834597             -12.210601           -7.718582
| 44>   H                    : 5.577281             -10.086766           -7.260337
| 45>   H                    : 5.110055             -9.707083            -8.899859
| 46>   H                    : 3.930187             -10.396516           -7.917804
| 47> *
| 48>
| 49> #Run DFT-D3 single point of the particle with dimer basis set
| 50> $new_job
| 51> %base "4-74_DFT_B"
| 52> ! wB97X-D3 def2-TZVP TIGHTSCF CHELPG PMODEL
| 53>
| 54> %scf
| 55> MaxIter 1000
| 56> end
| 57>
| 58> * xyz 0 1
| 59>   C                    : 4.024355             -6.801977            -8.916837
| 60>   O                    : 2.663368             -6.801153            -9.057764
| 61>   H                    : 2.302271             -5.971964            -8.723730
| 62>   H                    : 4.469199             -5.890253            -9.387422
| 63>   H                    : 4.195968             -6.701892            -7.838637
| 64>   H                    : 4.536072             -7.759296            -9.102608
| 65>   C                      5.007363             -10.473364           -8.114477
| 66>   O                      5.496894             -11.732456           -8.497833
| 67>   H                      5.834597             -12.210601           -7.718582
| 68>   H                      5.577281             -10.086766           -7.260337
| 69>   H                      5.110055             -9.707083            -8.899859
| 70>   H                      3.930187             -10.396516           -7.917804
| 71> *
| 72>
| 73>                          ****END OF INPUT****
 Total Charge           Charge          ....    0
 Multiplicity           Mult            ....    1
 Number of Electrons    NEL             ....   36
Dispersion correction           -0.001423272
FINAL SINGLE POINT ENERGY      -231.460414967399
Dispersion correction           -0.000212364
FINAL SINGLE POINT ENERGY      -115.727480819030

CARTESIAN COORDINATES (ANGSTROEM)
---------------------------------
  C      4.024355   -6.801977   -8.916837
  O      2.663368   -6.801153   -9.057764
  H      2.302271   -5.971964   -8.723730
  H      4.469199   -5.890253   -9.387422
  H      4.195968   -6.701892   -7.838637
  H      4.536072   -7.759296   -9.102608
  C      5.007363  -10.473364   -8.114477
  O      5.496894  -11.732456   -8.497833
  H      5.834597  -12.210601   -7.718582
  H      5.577281  -10.086766   -7.260337
  H      5.110055   -9.707083   -8.899859
  H      3.930187  -10.396516   -7.917804

 Multiplicity           Mult            ....    1
 Number of Electrons    NEL             ....   18
 Basis Dimension        Dim             ....  172

ORBITAL ENERGIES
----------------

  NO   OCC          E(Eh)            E(eV)
   0   2.0000     -19.233784      -523.3779
   1   2.0000     -10.313775      -280.6521
   2   2.0000      -1.136483       -30.9253
   3   2.0000      -0.795633       -21.6503
   4   2.0000      -0.612882       -16.6774
   5   2.0000      -0.543654       -14.7936
   6   2.0000      -0.526731       -14.3331
   7   2.0000      -0.427254       -11.6262
   8   2.0000      -0.373638       -10.1672
   9   0.0000       0.083830         2.2811
  10   0.0000       0.113027         3.0756
  11   0.0000       0.147920         4.0251
  12   0.0000       0.173057         4.7091
  13   0.0000       0.181591         4.9413

MULLIKEN ATOMIC CHARGES
-----------------------
   0 C :    0.001101
   1 O :    0.000010
   2 H :    0.000005
   3 H :    0.000065
   4 H :   -0.000186
   5 H :   -0.002550
   6 C :   -0.169160
   7 O :   -0.472685
   8 H :    0.322946
   9 H :    0.101602
  10 H :    0.119646
  11 H :    0.099205
Sum of atomic charges:   -0.0000000

LOEWDIN ATOMIC CHARGES
----------------------
   0 C :   -0.003088
   1 O :   -0.000036
   2 H :   -0.000002
   3 H :   -0.000008
   4 H :   -0.000109
   5 H :   -0.009571
   6 C :   -0.399221
   7 O :   -0.074191
   8 H :    0.180549
   9 H :    0.097651
  10 H :    0.112259
  11 H :    0.095766

  Mayer bond orders larger than 0.1
B(  6-C ,  7-O ) :   1.0205 B(  6-C ,  9-H ) :   0.9873 B(  6-C , 10-H ) :   0.9736
B(  6-C , 11-H ) :   0.9671 B(  7-O ,  8-H ) :   0.8921

Dispersion correction           -0.000260760
FINAL SINGLE POINT ENERGY      -115.732997635842

DIPOLE MOMENT
-------------
                                X             Y             Z
Electronic contribution:      0.60945      -1.73845      -0.61121
Nuclear contribution   :     -0.56720       1.93395       1.25754
                        -----------------------------------------
Total Dipole Moment    :      0.04224       0.19550       0.64633
                        -----------------------------------------
Magnitude (a.u.)       :      0.67657
Magnitude (Debye)      :      1.71971

Rotational constants in cm-1:     4.420511     0.826164     0.794794
Rotational constants in MHz : 132523.581460 24767.773899 23827.311941

                             ****ORCA TERMINATED NORMALLY****
TOTAL RUN TIME: 0 days 0 hours 1 minutes 31 seconds 611 msec
