                         Program Version 4.1.2  - RELEASE  -
|  1> #Run DFT-D3 single point of the dimer
|  2> ! wB97X-D3 def2-TZVP TIGHTSCF CHELPG PMODEL PAL8
|  3>
|  4> %base "15-84_DFT_AB"
|  5>
|  6> %scf
|  7> MaxIter 1000
|  8> end
|  9>
| 10> * xyz 0 1
| 11>   C                      3.160590             5.904719             1.409526
| 12>   O                      1.952229             6.513314             1.905539
| 13>   H                      2.203480             7.011722             2.707374
| 14>   H                      3.131705             5.037513             0.685736
| 15>   H                      3.800379             6.728786             1.090960
| 16>   H                      3.782874             5.542182             2.299754
| 17>   C                      -0.069685            3.844129             0.063434
| 18>   O                      -0.104926            5.211639             0.418285
| 19>   H                      0.753784             5.502813             0.660447
| 20>   H                      -0.962979            3.347517             -0.377816
| 21>   H                      0.827611             3.554464             -0.528559
| 22>   H                      0.022119             3.317603             0.991936
| 23> *
| 24>
| 25> #Run DFT-D3 single point of the molecule with dimer basis set
| 26> $new_job
| 27> %base "15-84_DFT_A"
| 28> ! wB97X-D3 def2-TZVP TIGHTSCF CHELPG PMODEL
| 29>
| 30> %scf
| 31> MaxIter 1000
| 32> end
| 33>
| 34> * xyz 0 1
| 35>   C                      3.160590             5.904719             1.409526
| 36>   O                      1.952229             6.513314             1.905539
| 37>   H                      2.203480             7.011722             2.707374
| 38>   H                      3.131705             5.037513             0.685736
| 39>   H                      3.800379             6.728786             1.090960
| 40>   H                      3.782874             5.542182             2.299754
| 41>   C                    : -0.069685            3.844129             0.063434
| 42>   O                    : -0.104926            5.211639             0.418285
| 43>   H                    : 0.753784             5.502813             0.660447
| 44>   H                    : -0.962979            3.347517             -0.377816
| 45>   H                    : 0.827611             3.554464             -0.528559
| 46>   H                    : 0.022119             3.317603             0.991936
| 47> *
| 48>
| 49> #Run DFT-D3 single point of the particle with dimer basis set
| 50> $new_job
| 51> %base "15-84_DFT_B"
| 52> ! wB97X-D3 def2-TZVP TIGHTSCF CHELPG PMODEL
| 53>
| 54> %scf
| 55> MaxIter 1000
| 56> end
| 57>
| 58> * xyz 0 1
| 59>   C                    : 3.160590             5.904719             1.409526
| 60>   O                    : 1.952229             6.513314             1.905539
| 61>   H                    : 2.203480             7.011722             2.707374
| 62>   H                    : 3.131705             5.037513             0.685736
| 63>   H                    : 3.800379             6.728786             1.090960
| 64>   H                    : 3.782874             5.542182             2.299754
| 65>   C                      -0.069685            3.844129             0.063434
| 66>   O                      -0.104926            5.211639             0.418285
| 67>   H                      0.753784             5.502813             0.660447
| 68>   H                      -0.962979            3.347517             -0.377816
| 69>   H                      0.827611             3.554464             -0.528559
| 70>   H                      0.022119             3.317603             0.991936
| 71> *
| 72>
| 73>                          ****END OF INPUT****
 Total Charge           Charge          ....    0
 Multiplicity           Mult            ....    1
 Number of Electrons    NEL             ....   36
Dispersion correction           -0.001815182
FINAL SINGLE POINT ENERGY      -231.454849360952
Dispersion correction           -0.000248475
FINAL SINGLE POINT ENERGY      -115.723830289921

CARTESIAN COORDINATES (ANGSTROEM)
---------------------------------
  C      3.160590    5.904719    1.409526
  O      1.952229    6.513314    1.905539
  H      2.203480    7.011722    2.707374
  H      3.131705    5.037513    0.685736
  H      3.800379    6.728786    1.090960
  H      3.782874    5.542182    2.299754
  C     -0.069685    3.844129    0.063434
  O     -0.104926    5.211639    0.418285
  H      0.753784    5.502813    0.660447
  H     -0.962979    3.347517   -0.377816
  H      0.827611    3.554464   -0.528559
  H      0.022119    3.317603    0.991936

 Multiplicity           Mult            ....    1
 Number of Electrons    NEL             ....   18
 Basis Dimension        Dim             ....  172

ORBITAL ENERGIES
----------------

  NO   OCC          E(Eh)            E(eV)
   0   2.0000     -19.229120      -523.2510
   1   2.0000     -10.315743      -280.7057
   2   2.0000      -1.140616       -31.0377
   3   2.0000      -0.799161       -21.7463
   4   2.0000      -0.615393       -16.7457
   5   2.0000      -0.538942       -14.6654
   6   2.0000      -0.533473       -14.5166
   7   2.0000      -0.430292       -11.7088
   8   2.0000      -0.370220       -10.0742
   9   0.0000       0.070001         1.9048
  10   0.0000       0.131490         3.5780
  11   0.0000       0.148961         4.0534
  12   0.0000       0.164946         4.4884
  13   0.0000       0.192377         5.2348

MULLIKEN ATOMIC CHARGES
-----------------------
   0 C :   -0.003218
   1 O :   -0.002361
   2 H :   -0.000238
   3 H :   -0.000210
   4 H :   -0.000076
   5 H :    0.000103
   6 C :   -0.179224
   7 O :   -0.468077
   8 H :    0.312678
   9 H :    0.126893
  10 H :    0.105317
  11 H :    0.108415
Sum of atomic charges:   -0.0000000

LOEWDIN ATOMIC CHARGES
----------------------
   0 C :   -0.008921
   1 O :   -0.015282
   2 H :   -0.000587
   3 H :   -0.001711
   4 H :   -0.000154
   5 H :   -0.000119
   6 C :   -0.389760
   7 O :   -0.053798
   8 H :    0.164541
   9 H :    0.114080
  10 H :    0.099119
  11 H :    0.092592

  Mayer bond orders larger than 0.1
B(  6-C ,  7-O ) :   0.9802 B(  6-C ,  9-H ) :   0.9680 B(  6-C , 10-H ) :   0.9780
B(  6-C , 11-H ) :   0.9847 B(  7-O ,  8-H ) :   0.9085

Dispersion correction           -0.000245467
FINAL SINGLE POINT ENERGY      -115.727712887409

DIPOLE MOMENT
-------------
                                X             Y             Z
Electronic contribution:     -0.25786       1.88148       0.29531
Nuclear contribution   :      0.81926      -2.26878      -0.25879
                        -----------------------------------------
Total Dipole Moment    :      0.56140      -0.38730       0.03652
                        -----------------------------------------
Magnitude (a.u.)       :      0.68301
Magnitude (Debye)      :      1.73607

Rotational constants in cm-1:     4.502334     0.822192     0.788540
Rotational constants in MHz : 134976.563288 24648.701887 23639.821965

                             ****ORCA TERMINATED NORMALLY****
TOTAL RUN TIME: 0 days 0 hours 1 minutes 6 seconds 790 msec
