                         Program Version 4.1.2  - RELEASE  -
|  1> #Run DFT-D3 single point of the dimer
|  2> ! wB97X-D3 def2-TZVP TIGHTSCF CHELPG PMODEL PAL8
|  3>
|  4> %base "9-106_DFT_AB"
|  5>
|  6> %scf
|  7> MaxIter 1000
|  8> end
|  9>
| 10> * xyz 0 1
| 11>   C                      6.482871             0.175619             -3.124092
| 12>   O                      5.876064             1.479061             -3.086430
| 13>   H                      5.127288             1.460981             -2.485195
| 14>   H                      6.305677             -0.243266            -2.102666
| 15>   H                      5.921835             -0.472918            -3.836024
| 16>   H                      7.590044             0.153542             -3.268757
| 17>   C                      4.357055             -0.921012            0.508239
| 18>   O                      4.768038             -2.020735            -0.250055
| 19>   H                      5.388173             -2.572599            0.225571
| 20>   H                      3.704529             -1.196182            1.324755
| 21>   H                      5.206016             -0.304580            0.819030
| 22>   H                      3.826832             -0.204135            -0.156533
| 23> *
| 24>
| 25> #Run DFT-D3 single point of the molecule with dimer basis set
| 26> $new_job
| 27> %base "9-106_DFT_A"
| 28> ! wB97X-D3 def2-TZVP TIGHTSCF CHELPG PMODEL
| 29>
| 30> %scf
| 31> MaxIter 1000
| 32> end
| 33>
| 34> * xyz 0 1
| 35>   C                      6.482871             0.175619             -3.124092
| 36>   O                      5.876064             1.479061             -3.086430
| 37>   H                      5.127288             1.460981             -2.485195
| 38>   H                      6.305677             -0.243266            -2.102666
| 39>   H                      5.921835             -0.472918            -3.836024
| 40>   H                      7.590044             0.153542             -3.268757
| 41>   C                    : 4.357055             -0.921012            0.508239
| 42>   O                    : 4.768038             -2.020735            -0.250055
| 43>   H                    : 5.388173             -2.572599            0.225571
| 44>   H                    : 3.704529             -1.196182            1.324755
| 45>   H                    : 5.206016             -0.304580            0.819030
| 46>   H                    : 3.826832             -0.204135            -0.156533
| 47> *
| 48>
| 49> #Run DFT-D3 single point of the particle with dimer basis set
| 50> $new_job
| 51> %base "9-106_DFT_B"
| 52> ! wB97X-D3 def2-TZVP TIGHTSCF CHELPG PMODEL
| 53>
| 54> %scf
| 55> MaxIter 1000
| 56> end
| 57>
| 58> * xyz 0 1
| 59>   C                    : 6.482871             0.175619             -3.124092
| 60>   O                    : 5.876064             1.479061             -3.086430
| 61>   H                    : 5.127288             1.460981             -2.485195
| 62>   H                    : 6.305677             -0.243266            -2.102666
| 63>   H                    : 5.921835             -0.472918            -3.836024
| 64>   H                    : 7.590044             0.153542             -3.268757
| 65>   C                      4.357055             -0.921012            0.508239
| 66>   O                      4.768038             -2.020735            -0.250055
| 67>   H                      5.388173             -2.572599            0.225571
| 68>   H                      3.704529             -1.196182            1.324755
| 69>   H                      5.206016             -0.304580            0.819030
| 70>   H                      3.826832             -0.204135            -0.156533
| 71> *
| 72>
| 73>                          ****END OF INPUT****
 Total Charge           Charge          ....    0
 Multiplicity           Mult            ....    1
 Number of Electrons    NEL             ....   36
Dispersion correction           -0.001565385
FINAL SINGLE POINT ENERGY      -231.467284623387
Dispersion correction           -0.000249290
FINAL SINGLE POINT ENERGY      -115.730380942122

CARTESIAN COORDINATES (ANGSTROEM)
---------------------------------
  C      6.482871    0.175619   -3.124092
  O      5.876064    1.479061   -3.086430
  H      5.127288    1.460981   -2.485195
  H      6.305677   -0.243266   -2.102666
  H      5.921835   -0.472918   -3.836024
  H      7.590044    0.153542   -3.268757
  C      4.357055   -0.921012    0.508239
  O      4.768038   -2.020735   -0.250055
  H      5.388173   -2.572599    0.225571
  H      3.704529   -1.196182    1.324755
  H      5.206016   -0.304580    0.819030
  H      3.826832   -0.204135   -0.156533

 Multiplicity           Mult            ....    1
 Number of Electrons    NEL             ....   18
 Basis Dimension        Dim             ....  172

ORBITAL ENERGIES
----------------

  NO   OCC          E(Eh)            E(eV)
   0   2.0000     -19.228378      -523.2308
   1   2.0000     -10.311999      -280.6038
   2   2.0000      -1.139120       -30.9970
   3   2.0000      -0.797050       -21.6888
   4   2.0000      -0.612591       -16.6694
   5   2.0000      -0.552697       -15.0397
   6   2.0000      -0.524342       -14.2681
   7   2.0000      -0.421508       -11.4698
   8   2.0000      -0.375991       -10.2312
   9   0.0000       0.091367         2.4862
  10   0.0000       0.124092         3.3767
  11   0.0000       0.147596         4.0163
  12   0.0000       0.176436         4.8011
  13   0.0000       0.198825         5.4103

MULLIKEN ATOMIC CHARGES
-----------------------
   0 C :    0.000426
   1 O :   -0.000055
   2 H :   -0.000210
   3 H :   -0.003013
   4 H :   -0.000164
   5 H :   -0.000068
   6 C :   -0.163961
   7 O :   -0.482993
   8 H :    0.315783
   9 H :    0.112408
  10 H :    0.104749
  11 H :    0.117099
Sum of atomic charges:   -0.0000000

LOEWDIN ATOMIC CHARGES
----------------------
   0 C :   -0.001635
   1 O :   -0.000043
   2 H :   -0.000491
   3 H :   -0.004127
   4 H :   -0.000123
   5 H :   -0.000009
   6 C :   -0.400023
   7 O :   -0.062193
   8 H :    0.166065
   9 H :    0.093022
  10 H :    0.095729
  11 H :    0.113827

  Mayer bond orders larger than 0.1
B(  6-C ,  7-O ) :   0.9860 B(  6-C ,  9-H ) :   0.9713 B(  6-C , 10-H ) :   0.9811
B(  6-C , 11-H ) :   0.9747 B(  7-O ,  8-H ) :   0.8963

Dispersion correction           -0.000245963
FINAL SINGLE POINT ENERGY      -115.735294741464

DIPOLE MOMENT
-------------
                                X             Y             Z
Electronic contribution:      0.43416      -1.47717      -0.95718
Nuclear contribution   :     -0.19548       1.56607       1.56269
                        -----------------------------------------
Total Dipole Moment    :      0.23868       0.08890       0.60550
                        -----------------------------------------
Magnitude (a.u.)       :      0.65689
Magnitude (Debye)      :      1.66969

Rotational constants in cm-1:     4.361802     0.835968     0.816020
Rotational constants in MHz : 130763.520301 25061.690214 24463.666355

                             ****ORCA TERMINATED NORMALLY****
TOTAL RUN TIME: 0 days 0 hours 0 minutes 40 seconds 617 msec
