                         Program Version 4.1.2  - RELEASE  -
|  1> #Run DFT-D3 single point of the dimer
|  2> ! wB97X-D3 def2-TZVP TIGHTSCF CHELPG PMODEL PAL8
|  3>
|  4> %base "19-34_DFT_AB"
|  5>
|  6> %scf
|  7> MaxIter 1000
|  8> end
|  9>
| 10> * xyz 0 1
| 11>   C                      7.257563             6.735818             4.442851
| 12>   O                      8.386543             7.556154             4.548185
| 13>   H                      9.044606             7.039462             5.018656
| 14>   H                      7.278685             6.428361             3.430371
| 15>   H                      7.463774             5.931356             5.183014
| 16>   H                      6.305239             7.244127             4.579032
| 17>   C                      8.905412             3.723221             8.095253
| 18>   O                      7.644204             3.455748             8.700712
| 19>   H                      7.890491             2.887441             9.435179
| 20>   H                      9.317823             2.764151             7.637089
| 21>   H                      8.787449             4.390905             7.335888
| 22>   H                      9.649400             4.099344             8.856138
| 23> *
| 24>
| 25> #Run DFT-D3 single point of the molecule with dimer basis set
| 26> $new_job
| 27> %base "19-34_DFT_A"
| 28> ! wB97X-D3 def2-TZVP TIGHTSCF CHELPG PMODEL
| 29>
| 30> %scf
| 31> MaxIter 1000
| 32> end
| 33>
| 34> * xyz 0 1
| 35>   C                      7.257563             6.735818             4.442851
| 36>   O                      8.386543             7.556154             4.548185
| 37>   H                      9.044606             7.039462             5.018656
| 38>   H                      7.278685             6.428361             3.430371
| 39>   H                      7.463774             5.931356             5.183014
| 40>   H                      6.305239             7.244127             4.579032
| 41>   C                    : 8.905412             3.723221             8.095253
| 42>   O                    : 7.644204             3.455748             8.700712
| 43>   H                    : 7.890491             2.887441             9.435179
| 44>   H                    : 9.317823             2.764151             7.637089
| 45>   H                    : 8.787449             4.390905             7.335888
| 46>   H                    : 9.649400             4.099344             8.856138
| 47> *
| 48>
| 49> #Run DFT-D3 single point of the particle with dimer basis set
| 50> $new_job
| 51> %base "19-34_DFT_B"
| 52> ! wB97X-D3 def2-TZVP TIGHTSCF CHELPG PMODEL
| 53>
| 54> %scf
| 55> MaxIter 1000
| 56> end
| 57>
| 58> * xyz 0 1
| 59>   C                    : 7.257563             6.735818             4.442851
| 60>   O                    : 8.386543             7.556154             4.548185
| 61>   H                    : 9.044606             7.039462             5.018656
| 62>   H                    : 7.278685             6.428361             3.430371
| 63>   H                    : 7.463774             5.931356             5.183014
| 64>   H                    : 6.305239             7.244127             4.579032
| 65>   C                      8.905412             3.723221             8.095253
| 66>   O                      7.644204             3.455748             8.700712
| 67>   H                      7.890491             2.887441             9.435179
| 68>   H                      9.317823             2.764151             7.637089
| 69>   H                      8.787449             4.390905             7.335888
| 70>   H                      9.649400             4.099344             8.856138
| 71> *
| 72>
| 73>                          ****END OF INPUT****
 Total Charge           Charge          ....    0
 Multiplicity           Mult            ....    1
 Number of Electrons    NEL             ....   36
Dispersion correction           -0.000872022
FINAL SINGLE POINT ENERGY      -231.457322306102
Dispersion correction           -0.000206596
FINAL SINGLE POINT ENERGY      -115.726391069482

CARTESIAN COORDINATES (ANGSTROEM)
---------------------------------
  C      7.257563    6.735818    4.442851
  O      8.386543    7.556154    4.548185
  H      9.044606    7.039462    5.018656
  H      7.278685    6.428361    3.430371
  H      7.463774    5.931356    5.183014
  H      6.305239    7.244127    4.579032
  C      8.905412    3.723221    8.095253
  O      7.644204    3.455748    8.700712
  H      7.890491    2.887441    9.435179
  H      9.317823    2.764151    7.637089
  H      8.787449    4.390905    7.335888
  H      9.649400    4.099344    8.856138

 Multiplicity           Mult            ....    1
 Number of Electrons    NEL             ....   18
 Basis Dimension        Dim             ....  172

ORBITAL ENERGIES
----------------

  NO   OCC          E(Eh)            E(eV)
   0   2.0000     -19.231447      -523.3143
   1   2.0000     -10.314632      -280.6754
   2   2.0000      -1.136989       -30.9391
   3   2.0000      -0.794837       -21.6286
   4   2.0000      -0.606069       -16.4920
   5   2.0000      -0.535583       -14.5740
   6   2.0000      -0.533692       -14.5225
   7   2.0000      -0.444456       -12.0943
   8   2.0000      -0.371700       -10.1145
   9   0.0000       0.089561         2.4371
  10   0.0000       0.114560         3.1173
  11   0.0000       0.150911         4.1065
  12   0.0000       0.171474         4.6660
  13   0.0000       0.185799         5.0558

MULLIKEN ATOMIC CHARGES
-----------------------
   0 C :   -0.000675
   1 O :    0.000032
   2 H :   -0.000073
   3 H :    0.000026
   4 H :    0.001122
   5 H :    0.000009
   6 C :   -0.181662
   7 O :   -0.463299
   8 H :    0.313590
   9 H :    0.095216
  10 H :    0.130465
  11 H :    0.105249
Sum of atomic charges:   -0.0000000

LOEWDIN ATOMIC CHARGES
----------------------
   0 C :   -0.000182
   1 O :   -0.000006
   2 H :   -0.000138
   3 H :   -0.000001
   4 H :   -0.000612
   5 H :   -0.000001
   6 C :   -0.376746
   7 O :   -0.083627
   8 H :    0.170825
   9 H :    0.102176
  10 H :    0.086304
  11 H :    0.102008

  Mayer bond orders larger than 0.1
B(  6-C ,  7-O ) :   1.0099 B(  6-C ,  9-H ) :   0.9773 B(  6-C , 10-H ) :   0.9733
B(  6-C , 11-H ) :   0.9772 B(  7-O ,  8-H ) :   0.9046

Dispersion correction           -0.000225163
FINAL SINGLE POINT ENERGY      -115.730787333719

DIPOLE MOMENT
-------------
                                X             Y             Z
Electronic contribution:     -1.74713      -0.10637       0.60926
Nuclear contribution   :      2.37316      -0.11639      -0.40602
                        -----------------------------------------
Total Dipole Moment    :      0.62602      -0.22277       0.20324
                        -----------------------------------------
Magnitude (a.u.)       :      0.69487
Magnitude (Debye)      :      1.76621

Rotational constants in cm-1:     4.178462     0.828641     0.802731
Rotational constants in MHz : 125267.131896 24842.044021 24065.270592

                             ****ORCA TERMINATED NORMALLY****
TOTAL RUN TIME: 0 days 0 hours 0 minutes 51 seconds 637 msec
