                         Program Version 4.1.2  - RELEASE  -
|  1> #Run DFT-D3 single point of the dimer
|  2> ! wB97X-D3 def2-TZVP TIGHTSCF CHELPG PMODEL PAL8
|  3>
|  4> %base "7-172_DFT_AB"
|  5>
|  6> %scf
|  7> MaxIter 1000
|  8> end
|  9>
| 10> * xyz 0 1
| 11>   C                      3.278767             9.966566             6.843198
| 12>   O                      1.925544             10.400813            6.441194
| 13>   H                      1.443355             9.600670             6.282680
| 14>   H                      3.783586             9.270249             6.212619
| 15>   H                      3.982962             10.774376            7.045077
| 16>   H                      3.233536             9.385685             7.769559
| 17>   C                      -0.468411            10.917468            9.744762
| 18>   O                      0.367310             10.997238            8.530884
| 19>   H                      1.283004             10.964284            8.845762
| 20>   H                      -0.276453            9.959998             10.367247
| 21>   H                      -0.282208            11.773058            10.431436
| 22>   H                      -1.528698            10.968892            9.402682
| 23> *
| 24>
| 25> #Run DFT-D3 single point of the molecule with dimer basis set
| 26> $new_job
| 27> %base "7-172_DFT_A"
| 28> ! wB97X-D3 def2-TZVP TIGHTSCF CHELPG PMODEL
| 29>
| 30> %scf
| 31> MaxIter 1000
| 32> end
| 33>
| 34> * xyz 0 1
| 35>   C                      3.278767             9.966566             6.843198
| 36>   O                      1.925544             10.400813            6.441194
| 37>   H                      1.443355             9.600670             6.282680
| 38>   H                      3.783586             9.270249             6.212619
| 39>   H                      3.982962             10.774376            7.045077
| 40>   H                      3.233536             9.385685             7.769559
| 41>   C                    : -0.468411            10.917468            9.744762
| 42>   O                    : 0.367310             10.997238            8.530884
| 43>   H                    : 1.283004             10.964284            8.845762
| 44>   H                    : -0.276453            9.959998             10.367247
| 45>   H                    : -0.282208            11.773058            10.431436
| 46>   H                    : -1.528698            10.968892            9.402682
| 47> *
| 48>
| 49> #Run DFT-D3 single point of the particle with dimer basis set
| 50> $new_job
| 51> %base "7-172_DFT_B"
| 52> ! wB97X-D3 def2-TZVP TIGHTSCF CHELPG PMODEL
| 53>
| 54> %scf
| 55> MaxIter 1000
| 56> end
| 57>
| 58> * xyz 0 1
| 59>   C                    : 3.278767             9.966566             6.843198
| 60>   O                    : 1.925544             10.400813            6.441194
| 61>   H                    : 1.443355             9.600670             6.282680
| 62>   H                    : 3.783586             9.270249             6.212619
| 63>   H                    : 3.982962             10.774376            7.045077
| 64>   H                    : 3.233536             9.385685             7.769559
| 65>   C                      -0.468411            10.917468            9.744762
| 66>   O                      0.367310             10.997238            8.530884
| 67>   H                      1.283004             10.964284            8.845762
| 68>   H                      -0.276453            9.959998             10.367247
| 69>   H                      -0.282208            11.773058            10.431436
| 70>   H                      -1.528698            10.968892            9.402682
| 71> *
| 72>
| 73>                          ****END OF INPUT****
 Total Charge           Charge          ....    0
 Multiplicity           Mult            ....    1
 Number of Electrons    NEL             ....   36
Dispersion correction           -0.001729372
FINAL SINGLE POINT ENERGY      -231.458205219850
Dispersion correction           -0.000273601
FINAL SINGLE POINT ENERGY      -115.729223628766

CARTESIAN COORDINATES (ANGSTROEM)
---------------------------------
  C      3.278767    9.966566    6.843198
  O      1.925544   10.400813    6.441194
  H      1.443355    9.600670    6.282680
  H      3.783586    9.270249    6.212619
  H      3.982962   10.774376    7.045077
  H      3.233536    9.385685    7.769559
  C     -0.468411   10.917468    9.744762
  O      0.367310   10.997238    8.530884
  H      1.283004   10.964284    8.845762
  H     -0.276453    9.959998   10.367247
  H     -0.282208   11.773058   10.431436
  H     -1.528698   10.968892    9.402682

 Multiplicity           Mult            ....    1
 Number of Electrons    NEL             ....   18
 Basis Dimension        Dim             ....  172

ORBITAL ENERGIES
----------------

  NO   OCC          E(Eh)            E(eV)
   0   2.0000     -19.234411      -523.3949
   1   2.0000     -10.330137      -281.0973
   2   2.0000      -1.119732       -30.4695
   3   2.0000      -0.788803       -21.4644
   4   2.0000      -0.599080       -16.3018
   5   2.0000      -0.526749       -14.3336
   6   2.0000      -0.516135       -14.0448
   7   2.0000      -0.443215       -12.0605
   8   2.0000      -0.375873       -10.2280
   9   0.0000       0.081198         2.2095
  10   0.0000       0.126195         3.4339
  11   0.0000       0.150082         4.0839
  12   0.0000       0.173371         4.7177
  13   0.0000       0.189702         5.1621

MULLIKEN ATOMIC CHARGES
-----------------------
   0 C :    0.000783
   1 O :    0.000349
   2 H :   -0.004017
   3 H :   -0.000241
   4 H :   -0.000119
   5 H :   -0.002625
   6 C :   -0.201118
   7 O :   -0.465143
   8 H :    0.314759
   9 H :    0.109261
  10 H :    0.115201
  11 H :    0.132909
Sum of atomic charges:   -0.0000000

LOEWDIN ATOMIC CHARGES
----------------------
   0 C :   -0.004877
   1 O :   -0.014013
   2 H :   -0.005058
   3 H :   -0.000048
   4 H :   -0.000132
   5 H :   -0.001368
   6 C :   -0.359594
   7 O :   -0.105614
   8 H :    0.172326
   9 H :    0.106109
  10 H :    0.098146
  11 H :    0.114122

  Mayer bond orders larger than 0.1
B(  6-C ,  7-O ) :   0.9955 B(  6-C ,  9-H ) :   0.9658 B(  6-C , 10-H ) :   0.9685
B(  6-C , 11-H ) :   0.9731 B(  7-O ,  8-H ) :   0.8995

Dispersion correction           -0.000282603
FINAL SINGLE POINT ENERGY      -115.732278742549

DIPOLE MOMENT
-------------
                                X             Y             Z
Electronic contribution:      0.88850       0.12279      -1.62195
Nuclear contribution   :     -0.68332      -0.15186       2.32135
                        -----------------------------------------
Total Dipole Moment    :      0.20518      -0.02908       0.69940
                        -----------------------------------------
Magnitude (a.u.)       :      0.72946
Magnitude (Debye)      :      1.85414

Rotational constants in cm-1:     4.025882     0.772494     0.742332
Rotational constants in MHz : 120692.903886 23158.798115 22254.554127

                             ****ORCA TERMINATED NORMALLY****
TOTAL RUN TIME: 0 days 0 hours 1 minutes 5 seconds 586 msec
