                         Program Version 4.1.2  - RELEASE  -
|  1> #Run DFT-D3 single point of the dimer
|  2> ! wB97X-D3 def2-TZVP TIGHTSCF CHELPG PMODEL PAL8
|  3>
|  4> %base "15-63_DFT_AB"
|  5>
|  6> %scf
|  7> MaxIter 1000
|  8> end
|  9>
| 10> * xyz 0 1
| 11>   C                      0.395747             0.499302             3.166637
| 12>   O                      -0.741435            1.109411             2.820772
| 13>   H                      -1.443136            0.800324             3.428644
| 14>   H                      0.572906             0.753819             4.234277
| 15>   H                      0.320529             -0.597235            3.056164
| 16>   H                      1.203881             0.845296             2.442496
| 17>   C                      3.467180             1.393242             0.592832
| 18>   O                      3.199770             2.200727             -0.571443
| 19>   H                      2.595145             1.775491             -1.163679
| 20>   H                      3.979197             0.438904             0.292025
| 21>   H                      4.181762             1.851568             1.262663
| 22>   H                      2.615667             1.283709             1.299601
| 23> *
| 24>
| 25> #Run DFT-D3 single point of the molecule with dimer basis set
| 26> $new_job
| 27> %base "15-63_DFT_A"
| 28> ! wB97X-D3 def2-TZVP TIGHTSCF CHELPG PMODEL
| 29>
| 30> %scf
| 31> MaxIter 1000
| 32> end
| 33>
| 34> * xyz 0 1
| 35>   C                      0.395747             0.499302             3.166637
| 36>   O                      -0.741435            1.109411             2.820772
| 37>   H                      -1.443136            0.800324             3.428644
| 38>   H                      0.572906             0.753819             4.234277
| 39>   H                      0.320529             -0.597235            3.056164
| 40>   H                      1.203881             0.845296             2.442496
| 41>   C                    : 3.467180             1.393242             0.592832
| 42>   O                    : 3.199770             2.200727             -0.571443
| 43>   H                    : 2.595145             1.775491             -1.163679
| 44>   H                    : 3.979197             0.438904             0.292025
| 45>   H                    : 4.181762             1.851568             1.262663
| 46>   H                    : 2.615667             1.283709             1.299601
| 47> *
| 48>
| 49> #Run DFT-D3 single point of the particle with dimer basis set
| 50> $new_job
| 51> %base "15-63_DFT_B"
| 52> ! wB97X-D3 def2-TZVP TIGHTSCF CHELPG PMODEL
| 53>
| 54> %scf
| 55> MaxIter 1000
| 56> end
| 57>
| 58> * xyz 0 1
| 59>   C                    : 0.395747             0.499302             3.166637
| 60>   O                    : -0.741435            1.109411             2.820772
| 61>   H                    : -1.443136            0.800324             3.428644
| 62>   H                    : 0.572906             0.753819             4.234277
| 63>   H                    : 0.320529             -0.597235            3.056164
| 64>   H                    : 1.203881             0.845296             2.442496
| 65>   C                      3.467180             1.393242             0.592832
| 66>   O                      3.199770             2.200727             -0.571443
| 67>   H                      2.595145             1.775491             -1.163679
| 68>   H                      3.979197             0.438904             0.292025
| 69>   H                      4.181762             1.851568             1.262663
| 70>   H                      2.615667             1.283709             1.299601
| 71> *
| 72>
| 73>                          ****END OF INPUT****
 Total Charge           Charge          ....    0
 Multiplicity           Mult            ....    1
 Number of Electrons    NEL             ....   36
Dispersion correction           -0.001258291
FINAL SINGLE POINT ENERGY      -231.457940102689
Dispersion correction           -0.000199292
FINAL SINGLE POINT ENERGY      -115.728167072655

CARTESIAN COORDINATES (ANGSTROEM)
---------------------------------
  C      0.395747    0.499302    3.166637
  O     -0.741435    1.109411    2.820772
  H     -1.443136    0.800324    3.428644
  H      0.572906    0.753819    4.234277
  H      0.320529   -0.597235    3.056164
  H      1.203881    0.845296    2.442496
  C      3.467180    1.393242    0.592832
  O      3.199770    2.200727   -0.571443
  H      2.595145    1.775491   -1.163679
  H      3.979197    0.438904    0.292025
  H      4.181762    1.851568    1.262663
  H      2.615667    1.283709    1.299601

 Multiplicity           Mult            ....    1
 Number of Electrons    NEL             ....   18
 Basis Dimension        Dim             ....  172

ORBITAL ENERGIES
----------------

  NO   OCC          E(Eh)            E(eV)
   0   2.0000     -19.229556      -523.2628
   1   2.0000     -10.320313      -280.8300
   2   2.0000      -1.128297       -30.7025
   3   2.0000      -0.799793       -21.7635
   4   2.0000      -0.604101       -16.4384
   5   2.0000      -0.543763       -14.7965
   6   2.0000      -0.523003       -14.2316
   7   2.0000      -0.422496       -11.4967
   8   2.0000      -0.378249       -10.2927
   9   0.0000       0.084999         2.3129
  10   0.0000       0.120716         3.2848
  11   0.0000       0.146075         3.9749
  12   0.0000       0.176357         4.7989
  13   0.0000       0.188176         5.1205

MULLIKEN ATOMIC CHARGES
-----------------------
   0 C :   -0.007687
   1 O :   -0.000137
   2 H :   -0.000026
   3 H :    0.000114
   4 H :    0.000183
   5 H :    0.016576
   6 C :   -0.138357
   7 O :   -0.485779
   8 H :    0.315388
   9 H :    0.108443
  10 H :    0.120244
  11 H :    0.071038
Sum of atomic charges:   -0.0000000

LOEWDIN ATOMIC CHARGES
----------------------
   0 C :   -0.004220
   1 O :   -0.000008
   2 H :   -0.000006
   3 H :   -0.000030
   4 H :   -0.000072
   5 H :   -0.015192
   6 C :   -0.369505
   7 O :   -0.089599
   8 H :    0.157462
   9 H :    0.104040
  10 H :    0.106991
  11 H :    0.110140

  Mayer bond orders larger than 0.1
B(  6-C ,  7-O ) :   0.9954 B(  6-C ,  9-H ) :   0.9897 B(  6-C , 10-H ) :   0.9675
B(  6-C , 11-H ) :   0.9764 B(  7-O ,  8-H ) :   0.8996

Dispersion correction           -0.000284390
FINAL SINGLE POINT ENERGY      -115.730703156105

DIPOLE MOMENT
-------------
                                X             Y             Z
Electronic contribution:     -0.34431       1.10500      -1.49318
Nuclear contribution   :      0.09176      -1.69009       1.61502
                        -----------------------------------------
Total Dipole Moment    :     -0.25255      -0.58509       0.12183
                        -----------------------------------------
Magnitude (a.u.)       :      0.64881
Magnitude (Debye)      :      1.64916

Rotational constants in cm-1:     4.393838     0.782472     0.772406
Rotational constants in MHz : 131723.962876 23457.917703 23156.152176

                             ****ORCA TERMINATED NORMALLY****
TOTAL RUN TIME: 0 days 0 hours 1 minutes 1 seconds 89 msec
