                         Program Version 4.1.2  - RELEASE  -
|  1> #Run DFT-D3 single point of the dimer
|  2> ! wB97X-D3 def2-TZVP TIGHTSCF CHELPG PMODEL PAL8
|  3>
|  4> %base "22-137_DFT_AB"
|  5>
|  6> %scf
|  7> MaxIter 1000
|  8> end
|  9>
| 10> * xyz 0 1
| 11>   C                      -6.064627            7.188321             -11.432468
| 12>   O                      -5.788437            7.373492             -10.093867
| 13>   H                      -4.872446            7.602528             -10.077802
| 14>   H                      -7.156699            7.111076             -11.643021
| 15>   H                      -5.706428            8.024415             -11.995838
| 16>   H                      -5.650287            6.228816             -11.865128
| 17>   C                      -4.210365            4.969740             -8.567934
| 18>   O                      -3.339307            3.880786             -8.748351
| 19>   H                      -3.229901            3.875587             -9.708577
| 20>   H                      -4.026477            5.682011             -9.355726
| 21>   H                      -5.254050            4.707741             -8.586173
| 22>   H                      -3.923397            5.552361             -7.666104
| 23> *
| 24>
| 25> #Run DFT-D3 single point of the molecule with dimer basis set
| 26> $new_job
| 27> %base "22-137_DFT_A"
| 28> ! wB97X-D3 def2-TZVP TIGHTSCF CHELPG PMODEL
| 29>
| 30> %scf
| 31> MaxIter 1000
| 32> end
| 33>
| 34> * xyz 0 1
| 35>   C                      -6.064627            7.188321             -11.432468
| 36>   O                      -5.788437            7.373492             -10.093867
| 37>   H                      -4.872446            7.602528             -10.077802
| 38>   H                      -7.156699            7.111076             -11.643021
| 39>   H                      -5.706428            8.024415             -11.995838
| 40>   H                      -5.650287            6.228816             -11.865128
| 41>   C                    : -4.210365            4.969740             -8.567934
| 42>   O                    : -3.339307            3.880786             -8.748351
| 43>   H                    : -3.229901            3.875587             -9.708577
| 44>   H                    : -4.026477            5.682011             -9.355726
| 45>   H                    : -5.254050            4.707741             -8.586173
| 46>   H                    : -3.923397            5.552361             -7.666104
| 47> *
| 48>
| 49> #Run DFT-D3 single point of the particle with dimer basis set
| 50> $new_job
| 51> %base "22-137_DFT_B"
| 52> ! wB97X-D3 def2-TZVP TIGHTSCF CHELPG PMODEL
| 53>
| 54> %scf
| 55> MaxIter 1000
| 56> end
| 57>
| 58> * xyz 0 1
| 59>   C                    : -6.064627            7.188321             -11.432468
| 60>   O                    : -5.788437            7.373492             -10.093867
| 61>   H                    : -4.872446            7.602528             -10.077802
| 62>   H                    : -7.156699            7.111076             -11.643021
| 63>   H                    : -5.706428            8.024415             -11.995838
| 64>   H                    : -5.650287            6.228816             -11.865128
| 65>   C                      -4.210365            4.969740             -8.567934
| 66>   O                      -3.339307            3.880786             -8.748351
| 67>   H                      -3.229901            3.875587             -9.708577
| 68>   H                      -4.026477            5.682011             -9.355726
| 69>   H                      -5.254050            4.707741             -8.586173
| 70>   H                      -3.923397            5.552361             -7.666104
| 71> *
| 72>
| 73>                          ****END OF INPUT****
 Total Charge           Charge          ....    0
 Multiplicity           Mult            ....    1
 Number of Electrons    NEL             ....   36
Dispersion correction           -0.001757447
FINAL SINGLE POINT ENERGY      -231.465859229954
Dispersion correction           -0.000225241
FINAL SINGLE POINT ENERGY      -115.733759832507

CARTESIAN COORDINATES (ANGSTROEM)
---------------------------------
  C     -6.064627    7.188321  -11.432468
  O     -5.788437    7.373492  -10.093867
  H     -4.872446    7.602528  -10.077802
  H     -7.156699    7.111076  -11.643021
  H     -5.706428    8.024415  -11.995838
  H     -5.650287    6.228816  -11.865128
  C     -4.210365    4.969740   -8.567934
  O     -3.339307    3.880786   -8.748351
  H     -3.229901    3.875587   -9.708577
  H     -4.026477    5.682011   -9.355726
  H     -5.254050    4.707741   -8.586173
  H     -3.923397    5.552361   -7.666104

 Multiplicity           Mult            ....    1
 Number of Electrons    NEL             ....   18
 Basis Dimension        Dim             ....  172

ORBITAL ENERGIES
----------------

  NO   OCC          E(Eh)            E(eV)
   0   2.0000     -19.231761      -523.3228
   1   2.0000     -10.310221      -280.5554
   2   2.0000      -1.141990       -31.0751
   3   2.0000      -0.792697       -21.5704
   4   2.0000      -0.612625       -16.6704
   5   2.0000      -0.552071       -15.0226
   6   2.0000      -0.523458       -14.2440
   7   2.0000      -0.432400       -11.7662
   8   2.0000      -0.377025       -10.2594
   9   0.0000       0.078284         2.1302
  10   0.0000       0.116442         3.1686
  11   0.0000       0.148410         4.0384
  12   0.0000       0.171237         4.6596
  13   0.0000       0.191852         5.2206

MULLIKEN ATOMIC CHARGES
-----------------------
   0 C :   -0.000796
   1 O :   -0.000467
   2 H :   -0.001455
   3 H :    0.000053
   4 H :    0.000036
   5 H :    0.000118
   6 C :   -0.175881
   7 O :   -0.459342
   8 H :    0.315502
   9 H :    0.102789
  10 H :    0.106049
  11 H :    0.113395
Sum of atomic charges:   -0.0000000

LOEWDIN ATOMIC CHARGES
----------------------
   0 C :   -0.002527
   1 O :   -0.005231
   2 H :   -0.006435
   3 H :   -0.000029
   4 H :   -0.000020
   5 H :   -0.000523
   6 C :   -0.392697
   7 O :   -0.072097
   8 H :    0.177399
   9 H :    0.098603
  10 H :    0.093040
  11 H :    0.110519

  Mayer bond orders larger than 0.1
B(  6-C ,  7-O ) :   1.0128 B(  6-C ,  9-H ) :   0.9958 B(  6-C , 10-H ) :   0.9662
B(  6-C , 11-H ) :   0.9723 B(  7-O ,  8-H ) :   0.9038

Dispersion correction           -0.000222096
FINAL SINGLE POINT ENERGY      -115.732173390508

DIPOLE MOMENT
-------------
                                X             Y             Z
Electronic contribution:      1.04814      -1.55068      -0.03003
Nuclear contribution   :     -1.29160       1.98218      -0.51969
                        -----------------------------------------
Total Dipole Moment    :     -0.24346       0.43150      -0.54971
                        -----------------------------------------
Magnitude (a.u.)       :      0.74003
Magnitude (Debye)      :      1.88102

Rotational constants in cm-1:     4.270951     0.843983     0.818842
Rotational constants in MHz : 128039.875503 25301.973230 24548.252882

                             ****ORCA TERMINATED NORMALLY****
TOTAL RUN TIME: 0 days 0 hours 1 minutes 3 seconds 42 msec
