                         Program Version 4.1.2  - RELEASE  -
|  1> #Run DFT-D3 single point of the dimer
|  2> ! wB97X-D3 def2-TZVP TIGHTSCF CHELPG PMODEL PAL8
|  3>
|  4> %base "4-100_DFT_AB"
|  5>
|  6> %scf
|  7> MaxIter 1000
|  8> end
|  9>
| 10> * xyz 0 1
| 11>   C                      8.304697             0.773642             -7.879795
| 12>   O                      7.697569             -0.052126            -8.879199
| 13>   H                      7.046114             -0.492704            -8.416586
| 14>   H                      8.728058             0.224718             -7.058519
| 15>   H                      9.138744             1.205424             -8.296531
| 16>   H                      7.608282             1.530593             -7.478363
| 17>   C                      10.110529            -3.538022            -10.362752
| 18>   O                      10.360112            -2.184385            -10.469441
| 19>   H                      9.761213             -1.694418            -9.957847
| 20>   H                      9.985376             -3.832961            -9.357469
| 21>   H                      9.162929             -3.809189            -10.892752
| 22>   H                      10.902557            -4.076878            -10.866006
| 23> *
| 24>
| 25> #Run DFT-D3 single point of the molecule with dimer basis set
| 26> $new_job
| 27> %base "4-100_DFT_A"
| 28> ! wB97X-D3 def2-TZVP TIGHTSCF CHELPG PMODEL
| 29>
| 30> %scf
| 31> MaxIter 1000
| 32> end
| 33>
| 34> * xyz 0 1
| 35>   C                      8.304697             0.773642             -7.879795
| 36>   O                      7.697569             -0.052126            -8.879199
| 37>   H                      7.046114             -0.492704            -8.416586
| 38>   H                      8.728058             0.224718             -7.058519
| 39>   H                      9.138744             1.205424             -8.296531
| 40>   H                      7.608282             1.530593             -7.478363
| 41>   C                    : 10.110529            -3.538022            -10.362752
| 42>   O                    : 10.360112            -2.184385            -10.469441
| 43>   H                    : 9.761213             -1.694418            -9.957847
| 44>   H                    : 9.985376             -3.832961            -9.357469
| 45>   H                    : 9.162929             -3.809189            -10.892752
| 46>   H                    : 10.902557            -4.076878            -10.866006
| 47> *
| 48>
| 49> #Run DFT-D3 single point of the particle with dimer basis set
| 50> $new_job
| 51> %base "4-100_DFT_B"
| 52> ! wB97X-D3 def2-TZVP TIGHTSCF CHELPG PMODEL
| 53>
| 54> %scf
| 55> MaxIter 1000
| 56> end
| 57>
| 58> * xyz 0 1
| 59>   C                    : 8.304697             0.773642             -7.879795
| 60>   O                    : 7.697569             -0.052126            -8.879199
| 61>   H                    : 7.046114             -0.492704            -8.416586
| 62>   H                    : 8.728058             0.224718             -7.058519
| 63>   H                    : 9.138744             1.205424             -8.296531
| 64>   H                    : 7.608282             1.530593             -7.478363
| 65>   C                      10.110529            -3.538022            -10.362752
| 66>   O                      10.360112            -2.184385            -10.469441
| 67>   H                      9.761213             -1.694418            -9.957847
| 68>   H                      9.985376             -3.832961            -9.357469
| 69>   H                      9.162929             -3.809189            -10.892752
| 70>   H                      10.902557            -4.076878            -10.866006
| 71> *
| 72>
| 73>                          ****END OF INPUT****
 Total Charge           Charge          ....    0
 Multiplicity           Mult            ....    1
 Number of Electrons    NEL             ....   36
Dispersion correction           -0.001196110
FINAL SINGLE POINT ENERGY      -231.467845515259
Dispersion correction           -0.000227093
FINAL SINGLE POINT ENERGY      -115.730207779677

CARTESIAN COORDINATES (ANGSTROEM)
---------------------------------
  C      8.304697    0.773642   -7.879795
  O      7.697569   -0.052126   -8.879199
  H      7.046114   -0.492704   -8.416586
  H      8.728058    0.224718   -7.058519
  H      9.138744    1.205424   -8.296531
  H      7.608282    1.530593   -7.478363
  C     10.110529   -3.538022  -10.362752
  O     10.360112   -2.184385  -10.469441
  H      9.761213   -1.694418   -9.957847
  H      9.985376   -3.832961   -9.357469
  H      9.162929   -3.809189  -10.892752
  H     10.902557   -4.076878  -10.866006

 Multiplicity           Mult            ....    1
 Number of Electrons    NEL             ....   18
 Basis Dimension        Dim             ....  172

ORBITAL ENERGIES
----------------

  NO   OCC          E(Eh)            E(eV)
   0   2.0000     -19.224407      -523.1227
   1   2.0000     -10.307278      -280.4753
   2   2.0000      -1.150671       -31.3113
   3   2.0000      -0.800458       -21.7816
   4   2.0000      -0.623567       -16.9681
   5   2.0000      -0.544776       -14.8241
   6   2.0000      -0.533827       -14.5262
   7   2.0000      -0.433199       -11.7880
   8   2.0000      -0.369570       -10.0565
   9   0.0000       0.070189         1.9099
  10   0.0000       0.128345         3.4925
  11   0.0000       0.156624         4.2620
  12   0.0000       0.164035         4.4636
  13   0.0000       0.194265         5.2862

MULLIKEN ATOMIC CHARGES
-----------------------
   0 C :   -0.000638
   1 O :   -0.000305
   2 H :   -0.000061
   3 H :    0.000033
   4 H :    0.000103
   5 H :   -0.000006
   6 C :   -0.145873
   7 O :   -0.467699
   8 H :    0.308025
   9 H :    0.100482
  10 H :    0.087533
  11 H :    0.118408
Sum of atomic charges:   -0.0000000

LOEWDIN ATOMIC CHARGES
----------------------
   0 C :   -0.000887
   1 O :   -0.001485
   2 H :   -0.000184
   3 H :   -0.000051
   4 H :   -0.000084
   5 H :   -0.000023
   6 C :   -0.399314
   7 O :   -0.035772
   8 H :    0.147802
   9 H :    0.085558
  10 H :    0.096421
  11 H :    0.108020

  Mayer bond orders larger than 0.1
B(  6-C ,  7-O ) :   0.9973 B(  6-C ,  9-H ) :   0.9800 B(  6-C , 10-H ) :   0.9789
B(  6-C , 11-H ) :   0.9735 B(  7-O ,  8-H ) :   0.9082

Dispersion correction           -0.000219814
FINAL SINGLE POINT ENERGY      -115.733948023746

DIPOLE MOMENT
-------------
                                X             Y             Z
Electronic contribution:      0.50835       1.71681      -0.11749
Nuclear contribution   :     -0.98223      -1.92096       0.50808
                        -----------------------------------------
Total Dipole Moment    :     -0.47388      -0.20415       0.39059
                        -----------------------------------------
Magnitude (a.u.)       :      0.64715
Magnitude (Debye)      :      1.64492

Rotational constants in cm-1:     4.416019     0.868273     0.835458
Rotational constants in MHz : 132388.933350 26030.162562 25046.406447

                             ****ORCA TERMINATED NORMALLY****
TOTAL RUN TIME: 0 days 0 hours 1 minutes 33 seconds 412 msec
