                         Program Version 4.1.2  - RELEASE  -
|  1> #Run DFT-D3 single point of the dimer
|  2> ! wB97X-D3 def2-TZVP TIGHTSCF CHELPG PMODEL PAL8
|  3>
|  4> %base "13-100_DFT_AB"
|  5>
|  6> %scf
|  7> MaxIter 1000
|  8> end
|  9>
| 10> * xyz 0 1
| 11>   C                      -8.327295            -6.314122            3.863884
| 12>   O                      -7.013995            -6.096790            4.267801
| 13>   H                      -6.519497            -6.634224            3.582791
| 14>   H                      -8.460313            -6.122950            2.836673
| 15>   H                      -8.712477            -7.355026            4.012781
| 16>   H                      -9.101512            -5.635674            4.311855
| 17>   C                      -8.231021            -2.321032            5.418552
| 18>   O                      -7.593325            -1.459487            4.532825
| 19>   H                      -7.053479            -1.994212            3.917231
| 20>   H                      -8.694611            -1.840338            6.231808
| 21>   H                      -9.013949            -2.975823            4.948725
| 22>   H                      -7.423615            -2.892773            5.845033
| 23> *
| 24>
| 25> #Run DFT-D3 single point of the molecule with dimer basis set
| 26> $new_job
| 27> %base "13-100_DFT_A"
| 28> ! wB97X-D3 def2-TZVP TIGHTSCF CHELPG PMODEL
| 29>
| 30> %scf
| 31> MaxIter 1000
| 32> end
| 33>
| 34> * xyz 0 1
| 35>   C                      -8.327295            -6.314122            3.863884
| 36>   O                      -7.013995            -6.096790            4.267801
| 37>   H                      -6.519497            -6.634224            3.582791
| 38>   H                      -8.460313            -6.122950            2.836673
| 39>   H                      -8.712477            -7.355026            4.012781
| 40>   H                      -9.101512            -5.635674            4.311855
| 41>   C                    : -8.231021            -2.321032            5.418552
| 42>   O                    : -7.593325            -1.459487            4.532825
| 43>   H                    : -7.053479            -1.994212            3.917231
| 44>   H                    : -8.694611            -1.840338            6.231808
| 45>   H                    : -9.013949            -2.975823            4.948725
| 46>   H                    : -7.423615            -2.892773            5.845033
| 47> *
| 48>
| 49> #Run DFT-D3 single point of the particle with dimer basis set
| 50> $new_job
| 51> %base "13-100_DFT_B"
| 52> ! wB97X-D3 def2-TZVP TIGHTSCF CHELPG PMODEL
| 53>
| 54> %scf
| 55> MaxIter 1000
| 56> end
| 57>
| 58> * xyz 0 1
| 59>   C                    : -8.327295            -6.314122            3.863884
| 60>   O                    : -7.013995            -6.096790            4.267801
| 61>   H                    : -6.519497            -6.634224            3.582791
| 62>   H                    : -8.460313            -6.122950            2.836673
| 63>   H                    : -8.712477            -7.355026            4.012781
| 64>   H                    : -9.101512            -5.635674            4.311855
| 65>   C                      -8.231021            -2.321032            5.418552
| 66>   O                      -7.593325            -1.459487            4.532825
| 67>   H                      -7.053479            -1.994212            3.917231
| 68>   H                      -8.694611            -1.840338            6.231808
| 69>   H                      -9.013949            -2.975823            4.948725
| 70>   H                      -7.423615            -2.892773            5.845033
| 71> *
| 72>
| 73>                          ****END OF INPUT****
 Total Charge           Charge          ....    0
 Multiplicity           Mult            ....    1
 Number of Electrons    NEL             ....   36
Dispersion correction           -0.001313128
FINAL SINGLE POINT ENERGY      -231.460804665074
Dispersion correction           -0.000231840
FINAL SINGLE POINT ENERGY      -115.728398163775

CARTESIAN COORDINATES (ANGSTROEM)
---------------------------------
  C     -8.327295   -6.314122    3.863884
  O     -7.013995   -6.096790    4.267801
  H     -6.519497   -6.634224    3.582791
  H     -8.460313   -6.122950    2.836673
  H     -8.712477   -7.355026    4.012781
  H     -9.101512   -5.635674    4.311855
  C     -8.231021   -2.321032    5.418552
  O     -7.593325   -1.459487    4.532825
  H     -7.053479   -1.994212    3.917231
  H     -8.694611   -1.840338    6.231808
  H     -9.013949   -2.975823    4.948725
  H     -7.423615   -2.892773    5.845033

 Multiplicity           Mult            ....    1
 Number of Electrons    NEL             ....   18
 Basis Dimension        Dim             ....  172

ORBITAL ENERGIES
----------------

  NO   OCC          E(Eh)            E(eV)
   0   2.0000     -19.229457      -523.2601
   1   2.0000     -10.307175      -280.4725
   2   2.0000      -1.139813       -31.0159
   3   2.0000      -0.795457       -21.6455
   4   2.0000      -0.608693       -16.5634
   5   2.0000      -0.549278       -14.9466
   6   2.0000      -0.537422       -14.6240
   7   2.0000      -0.425649       -11.5825
   8   2.0000      -0.370413       -10.0795
   9   0.0000       0.077318         2.1039
  10   0.0000       0.116942         3.1821
  11   0.0000       0.148211         4.0330
  12   0.0000       0.164114         4.4658
  13   0.0000       0.193230         5.2580

MULLIKEN ATOMIC CHARGES
-----------------------
   0 C :    0.001487
   1 O :    0.000018
   2 H :    0.000007
   3 H :   -0.000230
   4 H :   -0.000009
   5 H :   -0.002229
   6 C :   -0.159676
   7 O :   -0.474739
   8 H :    0.319672
   9 H :    0.121083
  10 H :    0.094749
  11 H :    0.099868
Sum of atomic charges:    0.0000000

LOEWDIN ATOMIC CHARGES
----------------------
   0 C :   -0.001314
   1 O :   -0.000185
   2 H :   -0.000009
   3 H :   -0.000032
   4 H :   -0.000002
   5 H :   -0.002355
   6 C :   -0.400982
   7 O :   -0.070565
   8 H :    0.182616
   9 H :    0.098081
  10 H :    0.099669
  11 H :    0.095079

  Mayer bond orders larger than 0.1
B(  6-C ,  7-O ) :   0.9981 B(  6-C ,  9-H ) :   0.9693 B(  6-C , 10-H ) :   0.9712
B(  6-C , 11-H ) :   0.9959 B(  7-O ,  8-H ) :   0.8937

Dispersion correction           -0.000223998
FINAL SINGLE POINT ENERGY      -115.730788028816

DIPOLE MOMENT
-------------
                                X             Y             Z
Electronic contribution:      0.69049       1.30288      -1.06856
Nuclear contribution   :     -0.58492      -1.95141       1.05359
                        -----------------------------------------
Total Dipole Moment    :      0.10557      -0.64853      -0.01497
                        -----------------------------------------
Magnitude (a.u.)       :      0.65724
Magnitude (Debye)      :      1.67057

Rotational constants in cm-1:     4.362132     0.850156     0.828423
Rotational constants in MHz : 130773.436094 25487.031508 24835.491186

                             ****ORCA TERMINATED NORMALLY****
TOTAL RUN TIME: 0 days 0 hours 1 minutes 9 seconds 946 msec
