                         Program Version 4.1.2  - RELEASE  -
|  1> #Run DFT-D3 single point of the dimer
|  2> ! wB97X-D3 def2-TZVP TIGHTSCF CHELPG PMODEL PAL8
|  3>
|  4> %base "8-111_DFT_AB"
|  5>
|  6> %scf
|  7> MaxIter 1000
|  8> end
|  9>
| 10> * xyz 0 1
| 11>   C                      8.297950             9.638053             6.999184
| 12>   O                      7.073123             9.026462             7.254794
| 13>   H                      6.756923             9.261665             8.121239
| 14>   H                      8.609197             9.209825             6.040132
| 15>   H                      8.162283             10.762873            6.849724
| 16>   H                      9.095038             9.417143             7.781061
| 17>   C                      6.823729             6.653392             4.663200
| 18>   O                      5.853408             7.293050             3.735871
| 19>   H                      5.958699             6.875321             2.844677
| 20>   H                      6.405214             6.361899             5.666741
| 21>   H                      7.327214             5.758224             4.307533
| 22>   H                      7.632612             7.335827             4.701187
| 23> *
| 24>
| 25> #Run DFT-D3 single point of the molecule with dimer basis set
| 26> $new_job
| 27> %base "8-111_DFT_A"
| 28> ! wB97X-D3 def2-TZVP TIGHTSCF CHELPG PMODEL
| 29>
| 30> %scf
| 31> MaxIter 1000
| 32> end
| 33>
| 34> * xyz 0 1
| 35>   C                      8.297950             9.638053             6.999184
| 36>   O                      7.073123             9.026462             7.254794
| 37>   H                      6.756923             9.261665             8.121239
| 38>   H                      8.609197             9.209825             6.040132
| 39>   H                      8.162283             10.762873            6.849724
| 40>   H                      9.095038             9.417143             7.781061
| 41>   C                    : 6.823729             6.653392             4.663200
| 42>   O                    : 5.853408             7.293050             3.735871
| 43>   H                    : 5.958699             6.875321             2.844677
| 44>   H                    : 6.405214             6.361899             5.666741
| 45>   H                    : 7.327214             5.758224             4.307533
| 46>   H                    : 7.632612             7.335827             4.701187
| 47> *
| 48>
| 49> #Run DFT-D3 single point of the particle with dimer basis set
| 50> $new_job
| 51> %base "8-111_DFT_B"
| 52> ! wB97X-D3 def2-TZVP TIGHTSCF CHELPG PMODEL
| 53>
| 54> %scf
| 55> MaxIter 1000
| 56> end
| 57>
| 58> * xyz 0 1
| 59>   C                    : 8.297950             9.638053             6.999184
| 60>   O                    : 7.073123             9.026462             7.254794
| 61>   H                    : 6.756923             9.261665             8.121239
| 62>   H                    : 8.609197             9.209825             6.040132
| 63>   H                    : 8.162283             10.762873            6.849724
| 64>   H                    : 9.095038             9.417143             7.781061
| 65>   C                      6.823729             6.653392             4.663200
| 66>   O                      5.853408             7.293050             3.735871
| 67>   H                      5.958699             6.875321             2.844677
| 68>   H                      6.405214             6.361899             5.666741
| 69>   H                      7.327214             5.758224             4.307533
| 70>   H                      7.632612             7.335827             4.701187
| 71> *
| 72>
| 73>                          ****END OF INPUT****
 Total Charge           Charge          ....    0
 Multiplicity           Mult            ....    1
 Number of Electrons    NEL             ....   36
Dispersion correction           -0.001630416
FINAL SINGLE POINT ENERGY      -231.459823438228
Dispersion correction           -0.000251256
FINAL SINGLE POINT ENERGY      -115.734592853320

CARTESIAN COORDINATES (ANGSTROEM)
---------------------------------
  C      8.297950    9.638053    6.999184
  O      7.073123    9.026462    7.254794
  H      6.756923    9.261665    8.121239
  H      8.609197    9.209825    6.040132
  H      8.162283   10.762873    6.849724
  H      9.095038    9.417143    7.781061
  C      6.823729    6.653392    4.663200
  O      5.853408    7.293050    3.735871
  H      5.958699    6.875321    2.844677
  H      6.405214    6.361899    5.666741
  H      7.327214    5.758224    4.307533
  H      7.632612    7.335827    4.701187

 Multiplicity           Mult            ....    1
 Number of Electrons    NEL             ....   18
 Basis Dimension        Dim             ....  172

ORBITAL ENERGIES
----------------

  NO   OCC          E(Eh)            E(eV)
   0   2.0000     -19.233226      -523.3627
   1   2.0000     -10.318104      -280.7699
   2   2.0000      -1.109814       -30.1996
   3   2.0000      -0.799044       -21.7431
   4   2.0000      -0.597686       -16.2639
   5   2.0000      -0.541887       -14.7455
   6   2.0000      -0.505550       -13.7567
   7   2.0000      -0.437422       -11.9029
   8   2.0000      -0.375385       -10.2147
   9   0.0000       0.088949         2.4204
  10   0.0000       0.112966         3.0740
  11   0.0000       0.147170         4.0047
  12   0.0000       0.162721         4.4279
  13   0.0000       0.185688         5.0528

MULLIKEN ATOMIC CHARGES
-----------------------
   0 C :   -0.000780
   1 O :    0.000150
   2 H :   -0.000065
   3 H :    0.001581
   4 H :   -0.000079
   5 H :    0.000109
   6 C :   -0.188395
   7 O :   -0.487314
   8 H :    0.317354
   9 H :    0.119929
  10 H :    0.116473
  11 H :    0.121037
Sum of atomic charges:   -0.0000000

LOEWDIN ATOMIC CHARGES
----------------------
   0 C :   -0.002358
   1 O :   -0.001061
   2 H :   -0.000077
   3 H :   -0.003095
   4 H :   -0.000019
   5 H :   -0.000012
   6 C :   -0.340025
   7 O :   -0.139692
   8 H :    0.180900
   9 H :    0.113087
  10 H :    0.096400
  11 H :    0.095953

  Mayer bond orders larger than 0.1
B(  6-C ,  7-O ) :   0.9977 B(  6-C ,  9-H ) :   0.9685 B(  6-C , 10-H ) :   0.9719
B(  6-C , 11-H ) :   0.9780 B(  7-O ,  8-H ) :   0.8961

Dispersion correction           -0.000287315
FINAL SINGLE POINT ENERGY      -115.725024678625

DIPOLE MOMENT
-------------
                                X             Y             Z
Electronic contribution:     -1.32292       0.86674      -0.98295
Nuclear contribution   :      1.83460      -1.42523       0.80235
                        -----------------------------------------
Total Dipole Moment    :      0.51169      -0.55849      -0.18061
                        -----------------------------------------
Magnitude (a.u.)       :      0.77869
Magnitude (Debye)      :      1.97926

Rotational constants in cm-1:     4.347411     0.757947     0.733318
Rotational constants in MHz : 130332.117770 22722.675959 21984.318866

                             ****ORCA TERMINATED NORMALLY****
TOTAL RUN TIME: 0 days 0 hours 0 minutes 44 seconds 368 msec
