                         Program Version 4.1.2  - RELEASE  -
|  1> #Run DFT-D3 single point of the dimer
|  2> ! wB97X-D3 def2-TZVP TIGHTSCF CHELPG PMODEL PAL8
|  3>
|  4> %base "4-126_DFT_AB"
|  5>
|  6> %scf
|  7> MaxIter 1000
|  8> end
|  9>
| 10> * xyz 0 1
| 11>   C                      6.954746             7.491548             2.890849
| 12>   O                      6.315243             6.971353             1.717059
| 13>   H                      5.920077             7.735909             1.324826
| 14>   H                      7.605254             6.722106             3.359889
| 15>   H                      7.647488             8.305513             2.508878
| 16>   H                      6.250953             7.862724             3.602146
| 17>   C                      8.803671             5.429537             -0.344730
| 18>   O                      7.914857             5.250084             -1.418711
| 19>   H                      8.278456             5.800383             -2.093842
| 20>   H                      9.875000             5.493104             -0.713531
| 21>   H                      8.621284             6.403243             0.179232
| 22>   H                      8.789780             4.531197             0.299483
| 23> *
| 24>
| 25> #Run DFT-D3 single point of the molecule with dimer basis set
| 26> $new_job
| 27> %base "4-126_DFT_A"
| 28> ! wB97X-D3 def2-TZVP TIGHTSCF CHELPG PMODEL
| 29>
| 30> %scf
| 31> MaxIter 1000
| 32> end
| 33>
| 34> * xyz 0 1
| 35>   C                      6.954746             7.491548             2.890849
| 36>   O                      6.315243             6.971353             1.717059
| 37>   H                      5.920077             7.735909             1.324826
| 38>   H                      7.605254             6.722106             3.359889
| 39>   H                      7.647488             8.305513             2.508878
| 40>   H                      6.250953             7.862724             3.602146
| 41>   C                    : 8.803671             5.429537             -0.344730
| 42>   O                    : 7.914857             5.250084             -1.418711
| 43>   H                    : 8.278456             5.800383             -2.093842
| 44>   H                    : 9.875000             5.493104             -0.713531
| 45>   H                    : 8.621284             6.403243             0.179232
| 46>   H                    : 8.789780             4.531197             0.299483
| 47> *
| 48>
| 49> #Run DFT-D3 single point of the particle with dimer basis set
| 50> $new_job
| 51> %base "4-126_DFT_B"
| 52> ! wB97X-D3 def2-TZVP TIGHTSCF CHELPG PMODEL
| 53>
| 54> %scf
| 55> MaxIter 1000
| 56> end
| 57>
| 58> * xyz 0 1
| 59>   C                    : 6.954746             7.491548             2.890849
| 60>   O                    : 6.315243             6.971353             1.717059
| 61>   H                    : 5.920077             7.735909             1.324826
| 62>   H                    : 7.605254             6.722106             3.359889
| 63>   H                    : 7.647488             8.305513             2.508878
| 64>   H                    : 6.250953             7.862724             3.602146
| 65>   C                      8.803671             5.429537             -0.344730
| 66>   O                      7.914857             5.250084             -1.418711
| 67>   H                      8.278456             5.800383             -2.093842
| 68>   H                      9.875000             5.493104             -0.713531
| 69>   H                      8.621284             6.403243             0.179232
| 70>   H                      8.789780             4.531197             0.299483
| 71> *
| 72>
| 73>                          ****END OF INPUT****
 Total Charge           Charge          ....    0
 Multiplicity           Mult            ....    1
 Number of Electrons    NEL             ....   36
Dispersion correction           -0.001498850
FINAL SINGLE POINT ENERGY      -231.466295674477
Dispersion correction           -0.000225224
FINAL SINGLE POINT ENERGY      -115.733258406636

CARTESIAN COORDINATES (ANGSTROEM)
---------------------------------
  C      6.954746    7.491548    2.890849
  O      6.315243    6.971353    1.717059
  H      5.920077    7.735909    1.324826
  H      7.605254    6.722106    3.359889
  H      7.647488    8.305513    2.508878
  H      6.250953    7.862724    3.602146
  C      8.803671    5.429537   -0.344730
  O      7.914857    5.250084   -1.418711
  H      8.278456    5.800383   -2.093842
  H      9.875000    5.493104   -0.713531
  H      8.621284    6.403243    0.179232
  H      8.789780    4.531197    0.299483

 Multiplicity           Mult            ....    1
 Number of Electrons    NEL             ....   18
 Basis Dimension        Dim             ....  172

ORBITAL ENERGIES
----------------

  NO   OCC          E(Eh)            E(eV)
   0   2.0000     -19.230841      -523.2978
   1   2.0000     -10.321160      -280.8530
   2   2.0000      -1.146527       -31.1986
   3   2.0000      -0.788165       -21.4471
   4   2.0000      -0.613911       -16.7054
   5   2.0000      -0.544996       -14.8301
   6   2.0000      -0.521734       -14.1971
   7   2.0000      -0.436513       -11.8781
   8   2.0000      -0.373937       -10.1753
   9   0.0000       0.084085         2.2881
  10   0.0000       0.117087         3.1861
  11   0.0000       0.153943         4.1890
  12   0.0000       0.170996         4.6530
  13   0.0000       0.183414         4.9909

MULLIKEN ATOMIC CHARGES
-----------------------
   0 C :    0.000806
   1 O :    0.000513
   2 H :   -0.000016
   3 H :   -0.000412
   4 H :   -0.000371
   5 H :   -0.000048
   6 C :   -0.187488
   7 O :   -0.457344
   8 H :    0.313616
   9 H :    0.101454
  10 H :    0.105477
  11 H :    0.123811
Sum of atomic charges:   -0.0000000

LOEWDIN ATOMIC CHARGES
----------------------
   0 C :   -0.002605
   1 O :   -0.001608
   2 H :   -0.000235
   3 H :   -0.000277
   4 H :   -0.000543
   5 H :   -0.000039
   6 C :   -0.403188
   7 O :   -0.062981
   8 H :    0.161934
   9 H :    0.099502
  10 H :    0.100005
  11 H :    0.110036

  Mayer bond orders larger than 0.1
B(  6-C ,  7-O ) :   0.9968 B(  6-C ,  9-H ) :   0.9812 B(  6-C , 10-H ) :   0.9673
B(  6-C , 11-H ) :   0.9717 B(  7-O ,  8-H ) :   0.9046

Dispersion correction           -0.000231076
FINAL SINGLE POINT ENERGY      -115.732974782807

DIPOLE MOMENT
-------------
                                X             Y             Z
Electronic contribution:     -1.37119      -0.35656      -1.26524
Nuclear contribution   :      1.94560       0.75277       1.22599
                        -----------------------------------------
Total Dipole Moment    :      0.57441       0.39621      -0.03925
                        -----------------------------------------
Magnitude (a.u.)       :      0.69890
Magnitude (Debye)      :      1.77647

Rotational constants in cm-1:     4.098339     0.841201     0.811765
Rotational constants in MHz : 122865.110840 25218.586508 24336.087574

                             ****ORCA TERMINATED NORMALLY****
TOTAL RUN TIME: 0 days 0 hours 1 minutes 27 seconds 220 msec
