                         Program Version 4.1.2  - RELEASE  -
|  1> #Run DFT-D3 single point of the dimer
|  2> ! wB97X-D3 def2-TZVP TIGHTSCF CHELPG PMODEL PAL8
|  3>
|  4> %base "7-53_DFT_AB"
|  5>
|  6> %scf
|  7> MaxIter 1000
|  8> end
|  9>
| 10> * xyz 0 1
| 11>   C                      -10.430630           5.965214             -6.659766
| 12>   O                      -11.506915           6.842817             -6.664926
| 13>   H                      -12.269845           6.244401             -6.518812
| 14>   H                      -10.239529           5.594698             -5.660409
| 15>   H                      -10.552653           5.211127             -7.463928
| 16>   H                      -9.466643            6.469908             -6.833632
| 17>   C                      -10.183614           9.524734             -5.139864
| 18>   O                      -11.337074           9.590991             -5.942400
| 19>   H                      -11.625128           8.722792             -6.108999
| 20>   H                      -10.434982           8.820017             -4.289603
| 21>   H                      -9.287826            9.000407             -5.527425
| 22>   H                      -9.973464            10.497566            -4.715971
| 23> *
| 24>
| 25> #Run DFT-D3 single point of the molecule with dimer basis set
| 26> $new_job
| 27> %base "7-53_DFT_A"
| 28> ! wB97X-D3 def2-TZVP TIGHTSCF CHELPG PMODEL
| 29>
| 30> %scf
| 31> MaxIter 1000
| 32> end
| 33>
| 34> * xyz 0 1
| 35>   C                      -10.430630           5.965214             -6.659766
| 36>   O                      -11.506915           6.842817             -6.664926
| 37>   H                      -12.269845           6.244401             -6.518812
| 38>   H                      -10.239529           5.594698             -5.660409
| 39>   H                      -10.552653           5.211127             -7.463928
| 40>   H                      -9.466643            6.469908             -6.833632
| 41>   C                    : -10.183614           9.524734             -5.139864
| 42>   O                    : -11.337074           9.590991             -5.942400
| 43>   H                    : -11.625128           8.722792             -6.108999
| 44>   H                    : -10.434982           8.820017             -4.289603
| 45>   H                    : -9.287826            9.000407             -5.527425
| 46>   H                    : -9.973464            10.497566            -4.715971
| 47> *
| 48>
| 49> #Run DFT-D3 single point of the particle with dimer basis set
| 50> $new_job
| 51> %base "7-53_DFT_B"
| 52> ! wB97X-D3 def2-TZVP TIGHTSCF CHELPG PMODEL
| 53>
| 54> %scf
| 55> MaxIter 1000
| 56> end
| 57>
| 58> * xyz 0 1
| 59>   C                    : -10.430630           5.965214             -6.659766
| 60>   O                    : -11.506915           6.842817             -6.664926
| 61>   H                    : -12.269845           6.244401             -6.518812
| 62>   H                    : -10.239529           5.594698             -5.660409
| 63>   H                    : -10.552653           5.211127             -7.463928
| 64>   H                    : -9.466643            6.469908             -6.833632
| 65>   C                      -10.183614           9.524734             -5.139864
| 66>   O                      -11.337074           9.590991             -5.942400
| 67>   H                      -11.625128           8.722792             -6.108999
| 68>   H                      -10.434982           8.820017             -4.289603
| 69>   H                      -9.287826            9.000407             -5.527425
| 70>   H                      -9.973464            10.497566            -4.715971
| 71> *
| 72>
| 73>                          ****END OF INPUT****
 Total Charge           Charge          ....    0
 Multiplicity           Mult            ....    1
 Number of Electrons    NEL             ....   36
Dispersion correction           -0.002090916
FINAL SINGLE POINT ENERGY      -231.469237003440
Dispersion correction           -0.000219080
FINAL SINGLE POINT ENERGY      -115.731575920907

CARTESIAN COORDINATES (ANGSTROEM)
---------------------------------
  C    -10.430630    5.965214   -6.659766
  O    -11.506915    6.842817   -6.664926
  H    -12.269845    6.244401   -6.518812
  H    -10.239529    5.594698   -5.660409
  H    -10.552653    5.211127   -7.463928
  H     -9.466643    6.469908   -6.833632
  C    -10.183614    9.524734   -5.139864
  O    -11.337074    9.590991   -5.942400
  H    -11.625128    8.722792   -6.108999
  H    -10.434982    8.820017   -4.289603
  H     -9.287826    9.000407   -5.527425
  H     -9.973464   10.497566   -4.715971

 Multiplicity           Mult            ....    1
 Number of Electrons    NEL             ....   18
 Basis Dimension        Dim             ....  172

ORBITAL ENERGIES
----------------

  NO   OCC          E(Eh)            E(eV)
   0   2.0000     -19.230158      -523.2792
   1   2.0000     -10.318035      -280.7680
   2   2.0000      -1.146442       -31.1963
   3   2.0000      -0.796521       -21.6744
   4   2.0000      -0.621641       -16.9157
   5   2.0000      -0.535459       -14.5706
   6   2.0000      -0.528529       -14.3820
   7   2.0000      -0.440621       -11.9899
   8   2.0000      -0.369305       -10.0493
   9   0.0000       0.068415         1.8617
  10   0.0000       0.134629         3.6634
  11   0.0000       0.140568         3.8251
  12   0.0000       0.171939         4.6787
  13   0.0000       0.190866         5.1937

MULLIKEN ATOMIC CHARGES
-----------------------
   0 C :   -0.000142
   1 O :   -0.005679
   2 H :   -0.000403
   3 H :   -0.000415
   4 H :    0.000048
   5 H :   -0.000020
   6 C :   -0.177664
   7 O :   -0.457433
   8 H :    0.312306
   9 H :    0.096287
  10 H :    0.102165
  11 H :    0.130950
Sum of atomic charges:   -0.0000000

LOEWDIN ATOMIC CHARGES
----------------------
   0 C :   -0.003665
   1 O :   -0.019328
   2 H :   -0.001128
   3 H :   -0.000187
   4 H :   -0.000049
   5 H :   -0.000944
   6 C :   -0.392901
   7 O :   -0.043432
   8 H :    0.156591
   9 H :    0.101554
  10 H :    0.096786
  11 H :    0.106705

  Mayer bond orders larger than 0.1
B(  6-C ,  7-O ) :   0.9953 B(  6-C ,  9-H ) :   0.9905 B(  6-C , 10-H ) :   0.9619
B(  6-C , 11-H ) :   0.9738 B(  7-O ,  8-H ) :   0.9096

Dispersion correction           -0.000239811
FINAL SINGLE POINT ENERGY      -115.730313243090

DIPOLE MOMENT
-------------
                                X             Y             Z
Electronic contribution:     -1.41859       0.41101      -1.21486
Nuclear contribution   :      1.67169      -0.99098       1.43017
                        -----------------------------------------
Total Dipole Moment    :      0.25311      -0.57997       0.21531
                        -----------------------------------------
Magnitude (a.u.)       :      0.66842
Magnitude (Debye)      :      1.69899

Rotational constants in cm-1:     4.314450     0.839652     0.800049
Rotational constants in MHz : 129343.961846 25172.118898 23984.880205

                             ****ORCA TERMINATED NORMALLY****
TOTAL RUN TIME: 0 days 0 hours 1 minutes 15 seconds 185 msec
