                         Program Version 4.1.2  - RELEASE  -
|  1> #Run DFT-D3 single point of the dimer
|  2> ! wB97X-D3 def2-TZVP TIGHTSCF CHELPG PMODEL PAL8
|  3>
|  4> %base "11-207_DFT_AB"
|  5>
|  6> %scf
|  7> MaxIter 1000
|  8> end
|  9>
| 10> * xyz 0 1
| 11>   C                      3.638969             -4.243337            -10.933634
| 12>   O                      2.752678             -4.105651            -9.852440
| 13>   H                      2.637474             -3.196895            -9.717942
| 14>   H                      3.322658             -3.639756            -11.848749
| 15>   H                      4.652541             -3.898487            -10.690251
| 16>   H                      3.701753             -5.267917            -11.306703
| 17>   C                      4.437092             -0.808071            -10.256159
| 18>   O                      3.049270             -0.932101            -9.980154
| 19>   H                      2.555484             -1.028475            -10.807407
| 20>   H                      5.159058             -1.269933            -9.547572
| 21>   H                      4.795339             -1.273333            -11.214875
| 22>   H                      4.641081             0.196038             -10.414987
| 23> *
| 24>
| 25> #Run DFT-D3 single point of the molecule with dimer basis set
| 26> $new_job
| 27> %base "11-207_DFT_A"
| 28> ! wB97X-D3 def2-TZVP TIGHTSCF CHELPG PMODEL
| 29>
| 30> %scf
| 31> MaxIter 1000
| 32> end
| 33>
| 34> * xyz 0 1
| 35>   C                      3.638969             -4.243337            -10.933634
| 36>   O                      2.752678             -4.105651            -9.852440
| 37>   H                      2.637474             -3.196895            -9.717942
| 38>   H                      3.322658             -3.639756            -11.848749
| 39>   H                      4.652541             -3.898487            -10.690251
| 40>   H                      3.701753             -5.267917            -11.306703
| 41>   C                    : 4.437092             -0.808071            -10.256159
| 42>   O                    : 3.049270             -0.932101            -9.980154
| 43>   H                    : 2.555484             -1.028475            -10.807407
| 44>   H                    : 5.159058             -1.269933            -9.547572
| 45>   H                    : 4.795339             -1.273333            -11.214875
| 46>   H                    : 4.641081             0.196038             -10.414987
| 47> *
| 48>
| 49> #Run DFT-D3 single point of the particle with dimer basis set
| 50> $new_job
| 51> %base "11-207_DFT_B"
| 52> ! wB97X-D3 def2-TZVP TIGHTSCF CHELPG PMODEL
| 53>
| 54> %scf
| 55> MaxIter 1000
| 56> end
| 57>
| 58> * xyz 0 1
| 59>   C                    : 3.638969             -4.243337            -10.933634
| 60>   O                    : 2.752678             -4.105651            -9.852440
| 61>   H                    : 2.637474             -3.196895            -9.717942
| 62>   H                    : 3.322658             -3.639756            -11.848749
| 63>   H                    : 4.652541             -3.898487            -10.690251
| 64>   H                    : 3.701753             -5.267917            -11.306703
| 65>   C                      4.437092             -0.808071            -10.256159
| 66>   O                      3.049270             -0.932101            -9.980154
| 67>   H                      2.555484             -1.028475            -10.807407
| 68>   H                      5.159058             -1.269933            -9.547572
| 69>   H                      4.795339             -1.273333            -11.214875
| 70>   H                      4.641081             0.196038             -10.414987
| 71> *
| 72>
| 73>                          ****END OF INPUT****
 Total Charge           Charge          ....    0
 Multiplicity           Mult            ....    1
 Number of Electrons    NEL             ....   36
Dispersion correction           -0.002472856
FINAL SINGLE POINT ENERGY      -231.468195453190
Dispersion correction           -0.000243861
FINAL SINGLE POINT ENERGY      -115.734315249442

CARTESIAN COORDINATES (ANGSTROEM)
---------------------------------
  C      3.638969   -4.243337  -10.933634
  O      2.752678   -4.105651   -9.852440
  H      2.637474   -3.196895   -9.717942
  H      3.322658   -3.639756  -11.848749
  H      4.652541   -3.898487  -10.690251
  H      3.701753   -5.267917  -11.306703
  C      4.437092   -0.808071  -10.256159
  O      3.049270   -0.932101   -9.980154
  H      2.555484   -1.028475  -10.807407
  H      5.159058   -1.269933   -9.547572
  H      4.795339   -1.273333  -11.214875
  H      4.641081    0.196038  -10.414987

 Multiplicity           Mult            ....    1
 Number of Electrons    NEL             ....   18
 Basis Dimension        Dim             ....  172

ORBITAL ENERGIES
----------------

  NO   OCC          E(Eh)            E(eV)
   0   2.0000     -19.234292      -523.3917
   1   2.0000     -10.313220      -280.6370
   2   2.0000      -1.133424       -30.8420
   3   2.0000      -0.799985       -21.7687
   4   2.0000      -0.613430       -16.6923
   5   2.0000      -0.549749       -14.9594
   6   2.0000      -0.519139       -14.1265
   7   2.0000      -0.427406       -11.6303
   8   2.0000      -0.376794       -10.2531
   9   0.0000       0.084369         2.2958
  10   0.0000       0.132214         3.5977
  11   0.0000       0.145971         3.9721
  12   0.0000       0.172172         4.6850
  13   0.0000       0.204255         5.5581

MULLIKEN ATOMIC CHARGES
-----------------------
   0 C :   -0.001077
   1 O :    0.002774
   2 H :   -0.012806
   3 H :   -0.002334
   4 H :   -0.001644
   5 H :   -0.000236
   6 C :   -0.180909
   7 O :   -0.475444
   8 H :    0.323900
   9 H :    0.123546
  10 H :    0.102016
  11 H :    0.122213
Sum of atomic charges:   -0.0000000

LOEWDIN ATOMIC CHARGES
----------------------
   0 C :   -0.007175
   1 O :   -0.002352
   2 H :   -0.021754
   3 H :   -0.001534
   4 H :   -0.002248
   5 H :   -0.000073
   6 C :   -0.382928
   7 O :   -0.061730
   8 H :    0.177415
   9 H :    0.113013
  10 H :    0.103291
  11 H :    0.086075

  Mayer bond orders larger than 0.1
B(  6-C ,  7-O ) :   0.9800 B(  6-C ,  9-H ) :   0.9708 B(  6-C , 10-H ) :   0.9799
B(  6-C , 11-H ) :   0.9793 B(  7-O ,  8-H ) :   0.8917

Dispersion correction           -0.000261819
FINAL SINGLE POINT ENERGY      -115.727760737383

DIPOLE MOMENT
-------------
                                X             Y             Z
Electronic contribution:     -1.84427      -0.10596       0.63735
Nuclear contribution   :      2.10052       0.11393      -1.30217
                        -----------------------------------------
Total Dipole Moment    :      0.25625       0.00797      -0.66482
                        -----------------------------------------
Magnitude (a.u.)       :      0.71254
Magnitude (Debye)      :      1.81113

Rotational constants in cm-1:     4.514521     0.809539     0.781567
Rotational constants in MHz : 135341.930790 24269.361558 23430.779573

                             ****ORCA TERMINATED NORMALLY****
TOTAL RUN TIME: 0 days 0 hours 1 minutes 10 seconds 304 msec
