                         Program Version 4.1.2  - RELEASE  -
|  1> #Run DFT-D3 single point of the dimer
|  2> ! wB97X-D3 def2-TZVP TIGHTSCF CHELPG PMODEL PAL8
|  3>
|  4> %base "7-141_DFT_AB"
|  5>
|  6> %scf
|  7> MaxIter 1000
|  8> end
|  9>
| 10> * xyz 0 1
| 11>   C                      -0.791871            0.813297             -8.061991
| 12>   O                      0.599258             1.023185             -8.096228
| 13>   H                      0.860506             1.887036             -7.719944
| 14>   H                      -1.410076            1.673867             -8.405220
| 15>   H                      -1.066712            -0.003070            -8.757313
| 16>   H                      -1.275459            0.581455             -7.114919
| 17>   C                      1.680528             -2.030453            -8.055314
| 18>   O                      1.962855             -1.169226            -6.980813
| 19>   H                      1.819339             -0.310168            -7.407458
| 20>   H                      1.397095             -2.988757            -7.596123
| 21>   H                      0.705794             -1.802377            -8.695415
| 22>   H                      2.540788             -2.154674            -8.671350
| 23> *
| 24>
| 25> #Run DFT-D3 single point of the molecule with dimer basis set
| 26> $new_job
| 27> %base "7-141_DFT_A"
| 28> ! wB97X-D3 def2-TZVP TIGHTSCF CHELPG PMODEL
| 29>
| 30> %scf
| 31> MaxIter 1000
| 32> end
| 33>
| 34> * xyz 0 1
| 35>   C                      -0.791871            0.813297             -8.061991
| 36>   O                      0.599258             1.023185             -8.096228
| 37>   H                      0.860506             1.887036             -7.719944
| 38>   H                      -1.410076            1.673867             -8.405220
| 39>   H                      -1.066712            -0.003070            -8.757313
| 40>   H                      -1.275459            0.581455             -7.114919
| 41>   C                    : 1.680528             -2.030453            -8.055314
| 42>   O                    : 1.962855             -1.169226            -6.980813
| 43>   H                    : 1.819339             -0.310168            -7.407458
| 44>   H                    : 1.397095             -2.988757            -7.596123
| 45>   H                    : 0.705794             -1.802377            -8.695415
| 46>   H                    : 2.540788             -2.154674            -8.671350
| 47> *
| 48>
| 49> #Run DFT-D3 single point of the particle with dimer basis set
| 50> $new_job
| 51> %base "7-141_DFT_B"
| 52> ! wB97X-D3 def2-TZVP TIGHTSCF CHELPG PMODEL
| 53>
| 54> %scf
| 55> MaxIter 1000
| 56> end
| 57>
| 58> * xyz 0 1
| 59>   C                    : -0.791871            0.813297             -8.061991
| 60>   O                    : 0.599258             1.023185             -8.096228
| 61>   H                    : 0.860506             1.887036             -7.719944
| 62>   H                    : -1.410076            1.673867             -8.405220
| 63>   H                    : -1.066712            -0.003070            -8.757313
| 64>   H                    : -1.275459            0.581455             -7.114919
| 65>   C                      1.680528             -2.030453            -8.055314
| 66>   O                      1.962855             -1.169226            -6.980813
| 67>   H                      1.819339             -0.310168            -7.407458
| 68>   H                      1.397095             -2.988757            -7.596123
| 69>   H                      0.705794             -1.802377            -8.695415
| 70>   H                      2.540788             -2.154674            -8.671350
| 71> *
| 72>
| 73>                          ****END OF INPUT****
 Total Charge           Charge          ....    0
 Multiplicity           Mult            ....    1
 Number of Electrons    NEL             ....   36
Dispersion correction           -0.002157915
FINAL SINGLE POINT ENERGY      -231.468804189798
Dispersion correction           -0.000281572
FINAL SINGLE POINT ENERGY      -115.733267852259

CARTESIAN COORDINATES (ANGSTROEM)
---------------------------------
  C     -0.791871    0.813297   -8.061991
  O      0.599258    1.023185   -8.096228
  H      0.860506    1.887036   -7.719944
  H     -1.410076    1.673867   -8.405220
  H     -1.066712   -0.003070   -8.757313
  H     -1.275459    0.581455   -7.114919
  C      1.680528   -2.030453   -8.055314
  O      1.962855   -1.169226   -6.980813
  H      1.819339   -0.310168   -7.407458
  H      1.397095   -2.988757   -7.596123
  H      0.705794   -1.802377   -8.695415
  H      2.540788   -2.154674   -8.671350

 Multiplicity           Mult            ....    1
 Number of Electrons    NEL             ....   18
 Basis Dimension        Dim             ....  172

ORBITAL ENERGIES
----------------

  NO   OCC          E(Eh)            E(eV)
   0   2.0000     -19.237327      -523.4743
   1   2.0000     -10.319052      -280.7957
   2   2.0000      -1.145002       -31.1571
   3   2.0000      -0.787452       -21.4277
   4   2.0000      -0.607228       -16.5235
   5   2.0000      -0.552031       -15.0215
   6   2.0000      -0.520106       -14.1528
   7   2.0000      -0.432627       -11.7724
   8   2.0000      -0.378913       -10.3107
   9   0.0000       0.071722         1.9517
  10   0.0000       0.133051         3.6205
  11   0.0000       0.139487         3.7956
  12   0.0000       0.179539         4.8855
  13   0.0000       0.183873         5.0034

MULLIKEN ATOMIC CHARGES
-----------------------
   0 C :   -0.002133
   1 O :   -0.004883
   2 H :   -0.000588
   3 H :   -0.000058
   4 H :   -0.000107
   5 H :   -0.000256
   6 C :   -0.189159
   7 O :   -0.447121
   8 H :    0.315543
   9 H :    0.115604
  10 H :    0.095413
  11 H :    0.117743
Sum of atomic charges:   -0.0000000

LOEWDIN ATOMIC CHARGES
----------------------
   0 C :   -0.008236
   1 O :   -0.021106
   2 H :   -0.001795
   3 H :   -0.000108
   4 H :   -0.002863
   5 H :   -0.000483
   6 C :   -0.406731
   7 O :   -0.056655
   8 H :    0.188044
   9 H :    0.108293
  10 H :    0.112518
  11 H :    0.089122

  Mayer bond orders larger than 0.1
B(  6-C ,  7-O ) :   1.0008 B(  6-C ,  9-H ) :   0.9754 B(  6-C , 10-H ) :   0.9676
B(  6-C , 11-H ) :   0.9763 B(  7-O ,  8-H ) :   0.9066

Dispersion correction           -0.000242601
FINAL SINGLE POINT ENERGY      -115.728069909913

DIPOLE MOMENT
-------------
                                X             Y             Z
Electronic contribution:      0.56211       1.07830       1.50077
Nuclear contribution   :     -0.73930      -0.89768      -2.12762
                        -----------------------------------------
Total Dipole Moment    :     -0.17718       0.18062      -0.62685
                        -----------------------------------------
Magnitude (a.u.)       :      0.67599
Magnitude (Debye)      :      1.71823

Rotational constants in cm-1:     4.099299     0.837684     0.812030
Rotational constants in MHz : 122893.897480 25113.148462 24344.059683

                             ****ORCA TERMINATED NORMALLY****
TOTAL RUN TIME: 0 days 0 hours 1 minutes 8 seconds 201 msec
