                         Program Version 4.1.2  - RELEASE  -
|  1> #Run DFT-D3 single point of the dimer
|  2> ! wB97X-D3 def2-TZVP TIGHTSCF CHELPG PMODEL PAL8
|  3>
|  4> %base "3-198_DFT_AB"
|  5>
|  6> %scf
|  7> MaxIter 1000
|  8> end
|  9>
| 10> * xyz 0 1
| 11>   C                      1.126425             -7.979691            8.688435
| 12>   O                      0.167515             -7.011438            8.689688
| 13>   H                      -0.711181            -7.413790            8.442444
| 14>   H                      1.685178             -7.866956            9.647331
| 15>   H                      0.695395             -8.997913            8.613979
| 16>   H                      1.773083             -7.918611            7.867989
| 17>   C                      -2.337670            -11.185197           7.249614
| 18>   O                      -1.000617            -10.717847           7.363358
| 19>   H                      -0.325757            -11.363005           7.607050
| 20>   H                      -2.390018            -12.137646           6.768897
| 21>   H                      -2.777101            -11.323087           8.235019
| 22>   H                      -2.969135            -10.471276           6.641373
| 23> *
| 24>
| 25> #Run DFT-D3 single point of the molecule with dimer basis set
| 26> $new_job
| 27> %base "3-198_DFT_A"
| 28> ! wB97X-D3 def2-TZVP TIGHTSCF CHELPG PMODEL
| 29>
| 30> %scf
| 31> MaxIter 1000
| 32> end
| 33>
| 34> * xyz 0 1
| 35>   C                      1.126425             -7.979691            8.688435
| 36>   O                      0.167515             -7.011438            8.689688
| 37>   H                      -0.711181            -7.413790            8.442444
| 38>   H                      1.685178             -7.866956            9.647331
| 39>   H                      0.695395             -8.997913            8.613979
| 40>   H                      1.773083             -7.918611            7.867989
| 41>   C                    : -2.337670            -11.185197           7.249614
| 42>   O                    : -1.000617            -10.717847           7.363358
| 43>   H                    : -0.325757            -11.363005           7.607050
| 44>   H                    : -2.390018            -12.137646           6.768897
| 45>   H                    : -2.777101            -11.323087           8.235019
| 46>   H                    : -2.969135            -10.471276           6.641373
| 47> *
| 48>
| 49> #Run DFT-D3 single point of the particle with dimer basis set
| 50> $new_job
| 51> %base "3-198_DFT_B"
| 52> ! wB97X-D3 def2-TZVP TIGHTSCF CHELPG PMODEL
| 53>
| 54> %scf
| 55> MaxIter 1000
| 56> end
| 57>
| 58> * xyz 0 1
| 59>   C                    : 1.126425             -7.979691            8.688435
| 60>   O                    : 0.167515             -7.011438            8.689688
| 61>   H                    : -0.711181            -7.413790            8.442444
| 62>   H                    : 1.685178             -7.866956            9.647331
| 63>   H                    : 0.695395             -8.997913            8.613979
| 64>   H                    : 1.773083             -7.918611            7.867989
| 65>   C                      -2.337670            -11.185197           7.249614
| 66>   O                      -1.000617            -10.717847           7.363358
| 67>   H                      -0.325757            -11.363005           7.607050
| 68>   H                      -2.390018            -12.137646           6.768897
| 69>   H                      -2.777101            -11.323087           8.235019
| 70>   H                      -2.969135            -10.471276           6.641373
| 71> *
| 72>
| 73>                          ****END OF INPUT****
 Total Charge           Charge          ....    0
 Multiplicity           Mult            ....    1
 Number of Electrons    NEL             ....   36
Dispersion correction           -0.001361393
FINAL SINGLE POINT ENERGY      -231.465497943052
Dispersion correction           -0.000227882
FINAL SINGLE POINT ENERGY      -115.729503415429

CARTESIAN COORDINATES (ANGSTROEM)
---------------------------------
  C      1.126425   -7.979691    8.688435
  O      0.167515   -7.011438    8.689688
  H     -0.711181   -7.413790    8.442444
  H      1.685178   -7.866956    9.647331
  H      0.695395   -8.997913    8.613979
  H      1.773083   -7.918611    7.867989
  C     -2.337670  -11.185197    7.249614
  O     -1.000617  -10.717847    7.363358
  H     -0.325757  -11.363005    7.607050
  H     -2.390018  -12.137646    6.768897
  H     -2.777101  -11.323087    8.235019
  H     -2.969135  -10.471276    6.641373

 Multiplicity           Mult            ....    1
 Number of Electrons    NEL             ....   18
 Basis Dimension        Dim             ....  172

ORBITAL ENERGIES
----------------

  NO   OCC          E(Eh)            E(eV)
   0   2.0000     -19.226564      -523.1814
   1   2.0000     -10.315720      -280.7050
   2   2.0000      -1.126838       -30.6628
   3   2.0000      -0.799111       -21.7449
   4   2.0000      -0.613363       -16.6905
   5   2.0000      -0.539591       -14.6830
   6   2.0000      -0.525742       -14.3062
   7   2.0000      -0.422919       -11.5082
   8   2.0000      -0.372105       -10.1255
   9   0.0000       0.097205         2.6451
  10   0.0000       0.124863         3.3977
  11   0.0000       0.148684         4.0459
  12   0.0000       0.177135         4.8201
  13   0.0000       0.201061         5.4711

MULLIKEN ATOMIC CHARGES
-----------------------
   0 C :    0.007346
   1 O :   -0.000237
   2 H :   -0.001646
   3 H :   -0.000218
   4 H :   -0.014023
   5 H :   -0.000613
   6 C :   -0.146740
   7 O :   -0.492029
   8 H :    0.321156
   9 H :    0.106330
  10 H :    0.101963
  11 H :    0.118709
Sum of atomic charges:    0.0000000

LOEWDIN ATOMIC CHARGES
----------------------
   0 C :   -0.003464
   1 O :   -0.000048
   2 H :   -0.001043
   3 H :   -0.000021
   4 H :   -0.008380
   5 H :   -0.000095
   6 C :   -0.374670
   7 O :   -0.081593
   8 H :    0.169348
   9 H :    0.089848
  10 H :    0.093502
  11 H :    0.116616

  Mayer bond orders larger than 0.1
B(  6-C ,  7-O ) :   0.9868 B(  6-C ,  9-H ) :   0.9752 B(  6-C , 10-H ) :   0.9773
B(  6-C , 11-H ) :   0.9709 B(  7-O ,  8-H ) :   0.8879

Dispersion correction           -0.000263785
FINAL SINGLE POINT ENERGY      -115.733033166018

DIPOLE MOMENT
-------------
                                X             Y             Z
Electronic contribution:      1.64071       0.66609       0.09889
Nuclear contribution   :     -1.76703      -1.32652      -0.00419
                        -----------------------------------------
Total Dipole Moment    :     -0.12632      -0.66043       0.09470
                        -----------------------------------------
Magnitude (a.u.)       :      0.67904
Magnitude (Debye)      :      1.72599

Rotational constants in cm-1:     4.419645     0.812055     0.783502
Rotational constants in MHz : 132497.611707 24344.804831 23488.806053

                             ****ORCA TERMINATED NORMALLY****
TOTAL RUN TIME: 0 days 0 hours 6 minutes 11 seconds 263 msec
