                         Program Version 4.1.2  - RELEASE  -
|  1> #Run DFT-D3 single point of the dimer
|  2> ! wB97X-D3 def2-TZVP TIGHTSCF CHELPG PMODEL PAL8
|  3>
|  4> %base "3-36_DFT_AB"
|  5>
|  6> %scf
|  7> MaxIter 1000
|  8> end
|  9>
| 10> * xyz 0 1
| 11>   C                      -4.983724            -1.861540            -7.037725
| 12>   O                      -5.308556            -0.500746            -6.993364
| 13>   H                      -5.230599            -0.272961            -7.890385
| 14>   H                      -4.141318            -2.148880            -7.659056
| 15>   H                      -4.764248            -2.337265            -6.067641
| 16>   H                      -5.873911            -2.396272            -7.501663
| 17>   C                      -0.791894            0.153209             -7.293953
| 18>   O                      -0.429146            0.665434             -6.098540
| 19>   H                      -0.963668            0.273240             -5.400980
| 20>   H                      -1.837251            0.451589             -7.599444
| 21>   H                      -0.115426            0.306201             -8.126156
| 22>   H                      -0.855482            -0.922665            -7.269317
| 23> *
| 24>
| 25> #Run DFT-D3 single point of the molecule with dimer basis set
| 26> $new_job
| 27> %base "3-36_DFT_A"
| 28> ! wB97X-D3 def2-TZVP TIGHTSCF CHELPG PMODEL
| 29>
| 30> %scf
| 31> MaxIter 1000
| 32> end
| 33>
| 34> * xyz 0 1
| 35>   C                      -4.983724            -1.861540            -7.037725
| 36>   O                      -5.308556            -0.500746            -6.993364
| 37>   H                      -5.230599            -0.272961            -7.890385
| 38>   H                      -4.141318            -2.148880            -7.659056
| 39>   H                      -4.764248            -2.337265            -6.067641
| 40>   H                      -5.873911            -2.396272            -7.501663
| 41>   C                    : -0.791894            0.153209             -7.293953
| 42>   O                    : -0.429146            0.665434             -6.098540
| 43>   H                    : -0.963668            0.273240             -5.400980
| 44>   H                    : -1.837251            0.451589             -7.599444
| 45>   H                    : -0.115426            0.306201             -8.126156
| 46>   H                    : -0.855482            -0.922665            -7.269317
| 47> *
| 48>
| 49> #Run DFT-D3 single point of the particle with dimer basis set
| 50> $new_job
| 51> %base "3-36_DFT_B"
| 52> ! wB97X-D3 def2-TZVP TIGHTSCF CHELPG PMODEL
| 53>
| 54> %scf
| 55> MaxIter 1000
| 56> end
| 57>
| 58> * xyz 0 1
| 59>   C                    : -4.983724            -1.861540            -7.037725
| 60>   O                    : -5.308556            -0.500746            -6.993364
| 61>   H                    : -5.230599            -0.272961            -7.890385
| 62>   H                    : -4.141318            -2.148880            -7.659056
| 63>   H                    : -4.764248            -2.337265            -6.067641
| 64>   H                    : -5.873911            -2.396272            -7.501663
| 65>   C                      -0.791894            0.153209             -7.293953
| 66>   O                      -0.429146            0.665434             -6.098540
| 67>   H                      -0.963668            0.273240             -5.400980
| 68>   H                      -1.837251            0.451589             -7.599444
| 69>   H                      -0.115426            0.306201             -8.126156
| 70>   H                      -0.855482            -0.922665            -7.269317
| 71> *
| 72>
| 73>                          ****END OF INPUT****
 Total Charge           Charge          ....    0
 Multiplicity           Mult            ....    1
 Number of Electrons    NEL             ....   36
Dispersion correction           -0.001085486
FINAL SINGLE POINT ENERGY      -231.460812478777
Dispersion correction           -0.000226256
FINAL SINGLE POINT ENERGY      -115.729800765288

CARTESIAN COORDINATES (ANGSTROEM)
---------------------------------
  C     -4.983724   -1.861540   -7.037725
  O     -5.308556   -0.500746   -6.993364
  H     -5.230599   -0.272961   -7.890385
  H     -4.141318   -2.148880   -7.659056
  H     -4.764248   -2.337265   -6.067641
  H     -5.873911   -2.396272   -7.501663
  C     -0.791894    0.153209   -7.293953
  O     -0.429146    0.665434   -6.098540
  H     -0.963668    0.273240   -5.400980
  H     -1.837251    0.451589   -7.599444
  H     -0.115426    0.306201   -8.126156
  H     -0.855482   -0.922665   -7.269317

 Multiplicity           Mult            ....    1
 Number of Electrons    NEL             ....   18
 Basis Dimension        Dim             ....  172

ORBITAL ENERGIES
----------------

  NO   OCC          E(Eh)            E(eV)
   0   2.0000     -19.232679      -523.3478
   1   2.0000     -10.308812      -280.5170
   2   2.0000      -1.157691       -31.5024
   3   2.0000      -0.795512       -21.6470
   4   2.0000      -0.627984       -17.0883
   5   2.0000      -0.547342       -14.8939
   6   2.0000      -0.536620       -14.6022
   7   2.0000      -0.426719       -11.6116
   8   2.0000      -0.368278       -10.0213
   9   0.0000       0.076893         2.0924
  10   0.0000       0.118000         3.2109
  11   0.0000       0.149011         4.0548
  12   0.0000       0.159169         4.3312
  13   0.0000       0.190366         5.1801

MULLIKEN ATOMIC CHARGES
-----------------------
   0 C :    0.000818
   1 O :   -0.000023
   2 H :   -0.000249
   3 H :   -0.000975
   4 H :   -0.000069
   5 H :   -0.000018
   6 C :   -0.159451
   7 O :   -0.458768
   8 H :    0.322608
   9 H :    0.081699
  10 H :    0.119487
  11 H :    0.094941
Sum of atomic charges:   -0.0000000

LOEWDIN ATOMIC CHARGES
----------------------
   0 C :   -0.000472
   1 O :   -0.000157
   2 H :   -0.000352
   3 H :   -0.000387
   4 H :   -0.000013
   5 H :   -0.000002
   6 C :   -0.442217
   7 O :   -0.026391
   8 H :    0.179736
   9 H :    0.095293
  10 H :    0.106290
  11 H :    0.088671

  Mayer bond orders larger than 0.1
B(  6-C ,  7-O ) :   1.0127 B(  6-C ,  9-H ) :   0.9790 B(  6-C , 10-H ) :   0.9678
B(  6-C , 11-H ) :   0.9839 B(  7-O ,  8-H ) :   0.8911

Dispersion correction           -0.000224110
FINAL SINGLE POINT ENERGY      -115.730075599960

DIPOLE MOMENT
-------------
                                X             Y             Z
Electronic contribution:      0.73086       0.90173       1.61978
Nuclear contribution   :     -1.17230      -1.36949      -1.59182
                        -----------------------------------------
Total Dipole Moment    :     -0.44144      -0.46776       0.02796
                        -----------------------------------------
Magnitude (a.u.)       :      0.64378
Magnitude (Debye)      :      1.63636

Rotational constants in cm-1:     4.458004     0.880615     0.847968
Rotational constants in MHz : 133647.591927 26400.187874 25421.453858

                             ****ORCA TERMINATED NORMALLY****
TOTAL RUN TIME: 0 days 0 hours 6 minutes 21 seconds 143 msec
