                         Program Version 4.1.2  - RELEASE  -
|  1> #Run DFT-D3 single point of the dimer
|  2> ! wB97X-D3 def2-TZVP TIGHTSCF CHELPG PMODEL PAL8
|  3>
|  4> %base "16-54_DFT_AB"
|  5>
|  6> %scf
|  7> MaxIter 1000
|  8> end
|  9>
| 10> * xyz 0 1
| 11>   C                      3.918612             -5.045741            2.896027
| 12>   O                      4.275113             -3.748419            2.773380
| 13>   H                      5.177996             -3.619790            2.820687
| 14>   H                      3.911424             -5.560728            1.980114
| 15>   H                      4.669848             -5.508734            3.468600
| 16>   H                      2.869578             -5.280809            3.312576
| 17>   C                      6.922900             -5.556759            0.074989
| 18>   O                      8.298759             -5.505430            0.194279
| 19>   H                      8.562982             -6.410591            0.330391
| 20>   H                      6.585637             -5.093060            -0.834594
| 21>   H                      6.477739             -6.565026            0.095750
| 22>   H                      6.474502             -4.883424            0.848829
| 23> *
| 24>
| 25> #Run DFT-D3 single point of the molecule with dimer basis set
| 26> $new_job
| 27> %base "16-54_DFT_A"
| 28> ! wB97X-D3 def2-TZVP TIGHTSCF CHELPG PMODEL
| 29>
| 30> %scf
| 31> MaxIter 1000
| 32> end
| 33>
| 34> * xyz 0 1
| 35>   C                      3.918612             -5.045741            2.896027
| 36>   O                      4.275113             -3.748419            2.773380
| 37>   H                      5.177996             -3.619790            2.820687
| 38>   H                      3.911424             -5.560728            1.980114
| 39>   H                      4.669848             -5.508734            3.468600
| 40>   H                      2.869578             -5.280809            3.312576
| 41>   C                    : 6.922900             -5.556759            0.074989
| 42>   O                    : 8.298759             -5.505430            0.194279
| 43>   H                    : 8.562982             -6.410591            0.330391
| 44>   H                    : 6.585637             -5.093060            -0.834594
| 45>   H                    : 6.477739             -6.565026            0.095750
| 46>   H                    : 6.474502             -4.883424            0.848829
| 47> *
| 48>
| 49> #Run DFT-D3 single point of the particle with dimer basis set
| 50> $new_job
| 51> %base "16-54_DFT_B"
| 52> ! wB97X-D3 def2-TZVP TIGHTSCF CHELPG PMODEL
| 53>
| 54> %scf
| 55> MaxIter 1000
| 56> end
| 57>
| 58> * xyz 0 1
| 59>   C                    : 3.918612             -5.045741            2.896027
| 60>   O                    : 4.275113             -3.748419            2.773380
| 61>   H                    : 5.177996             -3.619790            2.820687
| 62>   H                    : 3.911424             -5.560728            1.980114
| 63>   H                    : 4.669848             -5.508734            3.468600
| 64>   H                    : 2.869578             -5.280809            3.312576
| 65>   C                      6.922900             -5.556759            0.074989
| 66>   O                      8.298759             -5.505430            0.194279
| 67>   H                      8.562982             -6.410591            0.330391
| 68>   H                      6.585637             -5.093060            -0.834594
| 69>   H                      6.477739             -6.565026            0.095750
| 70>   H                      6.474502             -4.883424            0.848829
| 71> *
| 72>
| 73>                          ****END OF INPUT****
 Total Charge           Charge          ....    0
 Multiplicity           Mult            ....    1
 Number of Electrons    NEL             ....   36
Dispersion correction           -0.001485779
FINAL SINGLE POINT ENERGY      -231.455464394572
Dispersion correction           -0.000218031
FINAL SINGLE POINT ENERGY      -115.722318987227

CARTESIAN COORDINATES (ANGSTROEM)
---------------------------------
  C      3.918612   -5.045741    2.896027
  O      4.275113   -3.748419    2.773380
  H      5.177996   -3.619790    2.820687
  H      3.911424   -5.560728    1.980114
  H      4.669848   -5.508734    3.468600
  H      2.869578   -5.280809    3.312576
  C      6.922900   -5.556759    0.074989
  O      8.298759   -5.505430    0.194279
  H      8.562982   -6.410591    0.330391
  H      6.585637   -5.093060   -0.834594
  H      6.477739   -6.565026    0.095750
  H      6.474502   -4.883424    0.848829

 Multiplicity           Mult            ....    1
 Number of Electrons    NEL             ....   18
 Basis Dimension        Dim             ....  172

ORBITAL ENERGIES
----------------

  NO   OCC          E(Eh)            E(eV)
   0   2.0000     -19.231671      -523.3204
   1   2.0000     -10.310886      -280.5735
   2   2.0000      -1.151188       -31.3254
   3   2.0000      -0.793305       -21.5869
   4   2.0000      -0.620366       -16.8810
   5   2.0000      -0.537044       -14.6137
   6   2.0000      -0.533697       -14.5226
   7   2.0000      -0.441295       -12.0082
   8   2.0000      -0.367892       -10.0108
   9   0.0000       0.085818         2.3352
  10   0.0000       0.115811         3.1514
  11   0.0000       0.157028         4.2730
  12   0.0000       0.157842         4.2951
  13   0.0000       0.193332         5.2608

MULLIKEN ATOMIC CHARGES
-----------------------
   0 C :   -0.002233
   1 O :    0.000543
   2 H :    0.000318
   3 H :   -0.000889
   4 H :    0.000396
   5 H :   -0.000105
   6 C :   -0.175924
   7 O :   -0.451588
   8 H :    0.317085
   9 H :    0.102666
  10 H :    0.103224
  11 H :    0.106507
Sum of atomic charges:   -0.0000000

LOEWDIN ATOMIC CHARGES
----------------------
   0 C :   -0.003636
   1 O :   -0.000599
   2 H :   -0.002205
   3 H :   -0.001381
   4 H :   -0.000309
   5 H :   -0.000038
   6 C :   -0.416436
   7 O :   -0.046586
   8 H :    0.170497
   9 H :    0.094513
  10 H :    0.098804
  11 H :    0.107375

  Mayer bond orders larger than 0.1
B(  6-C ,  7-O ) :   1.0231 B(  6-C ,  9-H ) :   0.9744 B(  6-C , 10-H ) :   0.9821
B(  6-C , 11-H ) :   0.9798 B(  7-O ,  8-H ) :   0.9019

Dispersion correction           -0.000237837
FINAL SINGLE POINT ENERGY      -115.732006223579

DIPOLE MOMENT
-------------
                                X             Y             Z
Electronic contribution:      1.90591       0.07826       0.12976
Nuclear contribution   :     -2.23241      -0.69010      -0.10754
                        -----------------------------------------
Total Dipole Moment    :     -0.32651      -0.61184       0.02222
                        -----------------------------------------
Magnitude (a.u.)       :      0.69387
Magnitude (Debye)      :      1.76367

Rotational constants in cm-1:     4.302691     0.867681     0.824541
Rotational constants in MHz : 128991.430423 26012.413004 24719.119620

                             ****ORCA TERMINATED NORMALLY****
TOTAL RUN TIME: 0 days 0 hours 1 minutes 6 seconds 720 msec
