                         Program Version 4.1.2  - RELEASE  -
|  1> #Run DFT-D3 single point of the dimer
|  2> ! wB97X-D3 def2-TZVP TIGHTSCF CHELPG PMODEL PAL8
|  3>
|  4> %base "1-1_DFT_AB"
|  5>
|  6> %scf
|  7> MaxIter 1000
|  8> end
|  9>
| 10> * xyz 0 1
| 11>   C                      -7.729322            4.427341             8.202547
| 12>   O                      -7.019809            3.335802             7.681465
| 13>   H                      -7.560810            2.547871             7.585349
| 14>   H                      -8.077797            4.298807             9.202275
| 15>   H                      -7.121937            5.329664             8.121222
| 16>   H                      -8.610645            4.817844             7.611276
| 17>   C                      -5.980613            7.120034             8.240921
| 18>   O                      -6.503045            7.926275             9.288026
| 19>   H                      -5.881209            8.004546             9.989049
| 20>   H                      -6.668404            6.970982             7.350147
| 21>   H                      -5.030610            7.453998             7.889338
| 22>   H                      -5.813076            6.068493             8.513422
| 23> *
| 24>
| 25> #Run DFT-D3 single point of the molecule with dimer basis set
| 26> $new_job
| 27> %base "1-1_DFT_A"
| 28> ! wB97X-D3 def2-TZVP TIGHTSCF CHELPG PMODEL
| 29>
| 30> %scf
| 31> MaxIter 1000
| 32> end
| 33>
| 34> * xyz 0 1
| 35>   C                      -7.729322            4.427341             8.202547
| 36>   O                      -7.019809            3.335802             7.681465
| 37>   H                      -7.560810            2.547871             7.585349
| 38>   H                      -8.077797            4.298807             9.202275
| 39>   H                      -7.121937            5.329664             8.121222
| 40>   H                      -8.610645            4.817844             7.611276
| 41>   C                    : -5.980613            7.120034             8.240921
| 42>   O                    : -6.503045            7.926275             9.288026
| 43>   H                    : -5.881209            8.004546             9.989049
| 44>   H                    : -6.668404            6.970982             7.350147
| 45>   H                    : -5.030610            7.453998             7.889338
| 46>   H                    : -5.813076            6.068493             8.513422
| 47> *
| 48>
| 49> #Run DFT-D3 single point of the particle with dimer basis set
| 50> $new_job
| 51> %base "1-1_DFT_B"
| 52> ! wB97X-D3 def2-TZVP TIGHTSCF CHELPG PMODEL
| 53>
| 54> %scf
| 55> MaxIter 1000
| 56> end
| 57>
| 58> * xyz 0 1
| 59>   C                    : -7.729322            4.427341             8.202547
| 60>   O                    : -7.019809            3.335802             7.681465
| 61>   H                    : -7.560810            2.547871             7.585349
| 62>   H                    : -8.077797            4.298807             9.202275
| 63>   H                    : -7.121937            5.329664             8.121222
| 64>   H                    : -8.610645            4.817844             7.611276
| 65>   C                      -5.980613            7.120034             8.240921
| 66>   O                      -6.503045            7.926275             9.288026
| 67>   H                      -5.881209            8.004546             9.989049
| 68>   H                      -6.668404            6.970982             7.350147
| 69>   H                      -5.030610            7.453998             7.889338
| 70>   H                      -5.813076            6.068493             8.513422
| 71> *
| 72>
| 73>                          ****END OF INPUT****
 Total Charge           Charge          ....    0
 Multiplicity           Mult            ....    1
 Number of Electrons    NEL             ....   36
Dispersion correction           -0.001922144
FINAL SINGLE POINT ENERGY      -231.453039499281
Dispersion correction           -0.000274682
FINAL SINGLE POINT ENERGY      -115.732024201848

CARTESIAN COORDINATES (ANGSTROEM)
---------------------------------
  C     -7.729322    4.427341    8.202547
  O     -7.019809    3.335802    7.681465
  H     -7.560810    2.547871    7.585349
  H     -8.077797    4.298807    9.202275
  H     -7.121937    5.329664    8.121222
  H     -8.610645    4.817844    7.611276
  C     -5.980613    7.120034    8.240921
  O     -6.503045    7.926275    9.288026
  H     -5.881209    8.004546    9.989049
  H     -6.668404    6.970982    7.350147
  H     -5.030610    7.453998    7.889338
  H     -5.813076    6.068493    8.513422

 Multiplicity           Mult            ....    1
 Number of Electrons    NEL             ....   18
 Basis Dimension        Dim             ....  172

ORBITAL ENERGIES
----------------

  NO   OCC          E(Eh)            E(eV)
   0   2.0000     -19.231706      -523.3213
   1   2.0000     -10.316947      -280.7384
   2   2.0000      -1.138010       -30.9668
   3   2.0000      -0.800122       -21.7724
   4   2.0000      -0.617832       -16.8121
   5   2.0000      -0.541382       -14.7317
   6   2.0000      -0.521593       -14.1933
   7   2.0000      -0.431123       -11.7314
   8   2.0000      -0.375404       -10.2153
   9   0.0000       0.089667         2.4400
  10   0.0000       0.122184         3.3248
  11   0.0000       0.154154         4.1947
  12   0.0000       0.169514         4.6127
  13   0.0000       0.186884         5.0854

MULLIKEN ATOMIC CHARGES
-----------------------
   0 C :    0.019688
   1 O :    0.000193
   2 H :    0.000087
   3 H :   -0.001782
   4 H :   -0.026973
   5 H :   -0.000908
   6 C :   -0.140118
   7 O :   -0.472258
   8 H :    0.314102
   9 H :    0.113246
  10 H :    0.099519
  11 H :    0.095205
Sum of atomic charges:   -0.0000000

LOEWDIN ATOMIC CHARGES
----------------------
   0 C :   -0.018548
   1 O :   -0.000301
   2 H :   -0.000020
   3 H :   -0.000349
   4 H :   -0.041754
   5 H :   -0.000533
   6 C :   -0.358731
   7 O :   -0.065693
   8 H :    0.156840
   9 H :    0.127452
  10 H :    0.087100
  11 H :    0.114536

  Mayer bond orders larger than 0.1
B(  6-C ,  7-O ) :   1.0142 B(  6-C ,  9-H ) :   0.9691 B(  6-C , 10-H ) :   0.9680
B(  6-C , 11-H ) :   0.9708 B(  7-O ,  8-H ) :   0.8989

Dispersion correction           -0.000265396
FINAL SINGLE POINT ENERGY      -115.731301357380

DIPOLE MOMENT
-------------
                                X             Y             Z
Electronic contribution:     -0.78497       1.21062       1.35314
Nuclear contribution   :      1.40878      -1.49009      -1.31637
                        -----------------------------------------
Total Dipole Moment    :      0.62381      -0.27947       0.03677
                        -----------------------------------------
Magnitude (a.u.)       :      0.68454
Magnitude (Debye)      :      1.73995

Rotational constants in cm-1:     4.517753     0.808193     0.777623
Rotational constants in MHz : 135438.825187 24229.026054 23312.548466

                             ****ORCA TERMINATED NORMALLY****
TOTAL RUN TIME: 0 days 0 hours 4 minutes 45 seconds 844 msec
