                         Program Version 4.1.2  - RELEASE  -
|  1> #Run DFT-D3 single point of the dimer
|  2> ! wB97X-D3 def2-TZVP TIGHTSCF CHELPG PMODEL PAL8
|  3>
|  4> %base "8-135_DFT_AB"
|  5>
|  6> %scf
|  7> MaxIter 1000
|  8> end
|  9>
| 10> * xyz 0 1
| 11>   C                      -3.245610            4.766604             5.925738
| 12>   O                      -2.105204            5.526825             5.753957
| 13>   H                      -2.061038            5.470847             4.812791
| 14>   H                      -3.398093            4.514218             6.964937
| 15>   H                      -4.115643            5.335577             5.674308
| 16>   H                      -3.145554            3.834048             5.296263
| 17>   C                      1.341650             7.196521             8.415356
| 18>   O                      0.204756             7.613715             7.664162
| 19>   H                      0.002411             8.498018             7.983204
| 20>   H                      1.804227             8.086006             8.812302
| 21>   H                      1.086356             6.529568             9.241411
| 22>   H                      2.062149             6.746690             7.821810
| 23> *
| 24>
| 25> #Run DFT-D3 single point of the molecule with dimer basis set
| 26> $new_job
| 27> %base "8-135_DFT_A"
| 28> ! wB97X-D3 def2-TZVP TIGHTSCF CHELPG PMODEL
| 29>
| 30> %scf
| 31> MaxIter 1000
| 32> end
| 33>
| 34> * xyz 0 1
| 35>   C                      -3.245610            4.766604             5.925738
| 36>   O                      -2.105204            5.526825             5.753957
| 37>   H                      -2.061038            5.470847             4.812791
| 38>   H                      -3.398093            4.514218             6.964937
| 39>   H                      -4.115643            5.335577             5.674308
| 40>   H                      -3.145554            3.834048             5.296263
| 41>   C                    : 1.341650             7.196521             8.415356
| 42>   O                    : 0.204756             7.613715             7.664162
| 43>   H                    : 0.002411             8.498018             7.983204
| 44>   H                    : 1.804227             8.086006             8.812302
| 45>   H                    : 1.086356             6.529568             9.241411
| 46>   H                    : 2.062149             6.746690             7.821810
| 47> *
| 48>
| 49> #Run DFT-D3 single point of the particle with dimer basis set
| 50> $new_job
| 51> %base "8-135_DFT_B"
| 52> ! wB97X-D3 def2-TZVP TIGHTSCF CHELPG PMODEL
| 53>
| 54> %scf
| 55> MaxIter 1000
| 56> end
| 57>
| 58> * xyz 0 1
| 59>   C                    : -3.245610            4.766604             5.925738
| 60>   O                    : -2.105204            5.526825             5.753957
| 61>   H                    : -2.061038            5.470847             4.812791
| 62>   H                    : -3.398093            4.514218             6.964937
| 63>   H                    : -4.115643            5.335577             5.674308
| 64>   H                    : -3.145554            3.834048             5.296263
| 65>   C                      1.341650             7.196521             8.415356
| 66>   O                      0.204756             7.613715             7.664162
| 67>   H                      0.002411             8.498018             7.983204
| 68>   H                      1.804227             8.086006             8.812302
| 69>   H                      1.086356             6.529568             9.241411
| 70>   H                      2.062149             6.746690             7.821810
| 71> *
| 72>
| 73>                          ****END OF INPUT****
 Total Charge           Charge          ....    0
 Multiplicity           Mult            ....    1
 Number of Electrons    NEL             ....   36
Dispersion correction           -0.000765600
FINAL SINGLE POINT ENERGY      -231.459238166555
Dispersion correction           -0.000191737
FINAL SINGLE POINT ENERGY      -115.729307979978

CARTESIAN COORDINATES (ANGSTROEM)
---------------------------------
  C     -3.245610    4.766604    5.925738
  O     -2.105204    5.526825    5.753957
  H     -2.061038    5.470847    4.812791
  H     -3.398093    4.514218    6.964937
  H     -4.115643    5.335577    5.674308
  H     -3.145554    3.834048    5.296263
  C      1.341650    7.196521    8.415356
  O      0.204756    7.613715    7.664162
  H      0.002411    8.498018    7.983204
  H      1.804227    8.086006    8.812302
  H      1.086356    6.529568    9.241411
  H      2.062149    6.746690    7.821810

 Multiplicity           Mult            ....    1
 Number of Electrons    NEL             ....   18
 Basis Dimension        Dim             ....  172

ORBITAL ENERGIES
----------------

  NO   OCC          E(Eh)            E(eV)
   0   2.0000     -19.229256      -523.2547
   1   2.0000     -10.305920      -280.4383
   2   2.0000      -1.133649       -30.8482
   3   2.0000      -0.800819       -21.7914
   4   2.0000      -0.608907       -16.5692
   5   2.0000      -0.545374       -14.8404
   6   2.0000      -0.533066       -14.5055
   7   2.0000      -0.433928       -11.8078
   8   2.0000      -0.375819       -10.2266
   9   0.0000       0.096702         2.6314
  10   0.0000       0.112742         3.0679
  11   0.0000       0.156919         4.2700
  12   0.0000       0.179877         4.8947
  13   0.0000       0.196454         5.3458

MULLIKEN ATOMIC CHARGES
-----------------------
   0 C :   -0.000633
   1 O :   -0.000799
   2 H :   -0.000112
   3 H :    0.000022
   4 H :    0.000035
   5 H :    0.000004
   6 C :   -0.162517
   7 O :   -0.473268
   8 H :    0.315433
   9 H :    0.097579
  10 H :    0.104049
  11 H :    0.120207
Sum of atomic charges:    0.0000000

LOEWDIN ATOMIC CHARGES
----------------------
   0 C :   -0.000245
   1 O :   -0.001247
   2 H :   -0.000144
   3 H :   -0.000019
   4 H :   -0.000002
   5 H :   -0.000005
   6 C :   -0.365680
   7 O :   -0.086997
   8 H :    0.170712
   9 H :    0.095698
  10 H :    0.097657
  11 H :    0.090272

  Mayer bond orders larger than 0.1
B(  6-C ,  7-O ) :   1.0057 B(  6-C ,  9-H ) :   0.9935 B(  6-C , 10-H ) :   0.9730
B(  6-C , 11-H ) :   0.9759 B(  7-O ,  8-H ) :   0.9026

Dispersion correction           -0.000231715
FINAL SINGLE POINT ENERGY      -115.732346963742

DIPOLE MOMENT
-------------
                                X             Y             Z
Electronic contribution:     -1.42354       0.31200      -1.06349
Nuclear contribution   :      1.78461       0.10183       1.56373
                        -----------------------------------------
Total Dipole Moment    :      0.36107       0.41384       0.50023
                        -----------------------------------------
Magnitude (a.u.)       :      0.74288
Magnitude (Debye)      :      1.88825

Rotational constants in cm-1:     4.430282     0.827703     0.800745
Rotational constants in MHz : 132816.499467 24813.909764 24005.727003

                             ****ORCA TERMINATED NORMALLY****
TOTAL RUN TIME: 0 days 0 hours 0 minutes 42 seconds 506 msec
