                         Program Version 4.1.2  - RELEASE  -
|  1> #Run DFT-D3 single point of the dimer
|  2> ! wB97X-D3 def2-TZVP TIGHTSCF CHELPG PMODEL PAL8
|  3>
|  4> %base "10-182_DFT_AB"
|  5>
|  6> %scf
|  7> MaxIter 1000
|  8> end
|  9>
| 10> * xyz 0 1
| 11>   C                      2.328037             10.892731            6.185407
| 12>   O                      2.678269             9.693648             5.646828
| 13>   H                      1.846243             9.308163             5.241861
| 14>   H                      1.585576             11.379641            5.666090
| 15>   H                      1.858622             10.737902            7.176985
| 16>   H                      3.200346             11.592831            6.302166
| 17>   C                      3.639988             6.357065             6.076319
| 18>   O                      4.405180             7.512862             5.781901
| 19>   H                      3.861962             8.228284             5.423984
| 20>   H                      2.636027             6.467495             5.668467
| 21>   H                      3.983143             5.472368             5.565540
| 22>   H                      3.713153             6.233174             7.130214
| 23> *
| 24>
| 25> #Run DFT-D3 single point of the molecule with dimer basis set
| 26> $new_job
| 27> %base "10-182_DFT_A"
| 28> ! wB97X-D3 def2-TZVP TIGHTSCF CHELPG PMODEL
| 29>
| 30> %scf
| 31> MaxIter 1000
| 32> end
| 33>
| 34> * xyz 0 1
| 35>   C                      2.328037             10.892731            6.185407
| 36>   O                      2.678269             9.693648             5.646828
| 37>   H                      1.846243             9.308163             5.241861
| 38>   H                      1.585576             11.379641            5.666090
| 39>   H                      1.858622             10.737902            7.176985
| 40>   H                      3.200346             11.592831            6.302166
| 41>   C                    : 3.639988             6.357065             6.076319
| 42>   O                    : 4.405180             7.512862             5.781901
| 43>   H                    : 3.861962             8.228284             5.423984
| 44>   H                    : 2.636027             6.467495             5.668467
| 45>   H                    : 3.983143             5.472368             5.565540
| 46>   H                    : 3.713153             6.233174             7.130214
| 47> *
| 48>
| 49> #Run DFT-D3 single point of the particle with dimer basis set
| 50> $new_job
| 51> %base "10-182_DFT_B"
| 52> ! wB97X-D3 def2-TZVP TIGHTSCF CHELPG PMODEL
| 53>
| 54> %scf
| 55> MaxIter 1000
| 56> end
| 57>
| 58> * xyz 0 1
| 59>   C                    : 2.328037             10.892731            6.185407
| 60>   O                    : 2.678269             9.693648             5.646828
| 61>   H                    : 1.846243             9.308163             5.241861
| 62>   H                    : 1.585576             11.379641            5.666090
| 63>   H                    : 1.858622             10.737902            7.176985
| 64>   H                    : 3.200346             11.592831            6.302166
| 65>   C                      3.639988             6.357065             6.076319
| 66>   O                      4.405180             7.512862             5.781901
| 67>   H                      3.861962             8.228284             5.423984
| 68>   H                      2.636027             6.467495             5.668467
| 69>   H                      3.983143             5.472368             5.565540
| 70>   H                      3.713153             6.233174             7.130214
| 71> *
| 72>
| 73>                          ****END OF INPUT****
 Total Charge           Charge          ....    0
 Multiplicity           Mult            ....    1
 Number of Electrons    NEL             ....   36
Dispersion correction           -0.001606431
FINAL SINGLE POINT ENERGY      -231.463806503461
Dispersion correction           -0.000215377
FINAL SINGLE POINT ENERGY      -115.727845938366

CARTESIAN COORDINATES (ANGSTROEM)
---------------------------------
  C      2.328037   10.892731    6.185407
  O      2.678269    9.693648    5.646828
  H      1.846243    9.308163    5.241861
  H      1.585576   11.379641    5.666090
  H      1.858622   10.737902    7.176985
  H      3.200346   11.592831    6.302166
  C      3.639988    6.357065    6.076319
  O      4.405180    7.512862    5.781901
  H      3.861962    8.228284    5.423984
  H      2.636027    6.467495    5.668467
  H      3.983143    5.472368    5.565540
  H      3.713153    6.233174    7.130214

 Multiplicity           Mult            ....    1
 Number of Electrons    NEL             ....   18
 Basis Dimension        Dim             ....  172

ORBITAL ENERGIES
----------------

  NO   OCC          E(Eh)            E(eV)
   0   2.0000     -19.226086      -523.1684
   1   2.0000     -10.307892      -280.4920
   2   2.0000      -1.129906       -30.7463
   3   2.0000      -0.799713       -21.7613
   4   2.0000      -0.611140       -16.6300
   5   2.0000      -0.547921       -14.9097
   6   2.0000      -0.528371       -14.3777
   7   2.0000      -0.425651       -11.5826
   8   2.0000      -0.372306       -10.1310
   9   0.0000       0.071865         1.9555
  10   0.0000       0.126148         3.4327
  11   0.0000       0.154911         4.2153
  12   0.0000       0.174211         4.7405
  13   0.0000       0.194414         5.2903

MULLIKEN ATOMIC CHARGES
-----------------------
   0 C :   -0.003909
   1 O :   -0.006618
   2 H :   -0.000637
   3 H :    0.000002
   4 H :    0.000187
   5 H :    0.000226
   6 C :   -0.147331
   7 O :   -0.486662
   8 H :    0.319727
   9 H :    0.101892
  10 H :    0.107581
  11 H :    0.115543
Sum of atomic charges:    0.0000000

LOEWDIN ATOMIC CHARGES
----------------------
   0 C :   -0.002477
   1 O :   -0.024780
   2 H :   -0.002472
   3 H :   -0.000081
   4 H :   -0.000084
   5 H :   -0.000077
   6 C :   -0.369868
   7 O :   -0.074381
   8 H :    0.180694
   9 H :    0.098541
  10 H :    0.097955
  11 H :    0.097031

  Mayer bond orders larger than 0.1
B(  6-C ,  7-O ) :   0.9892 B(  6-C ,  9-H ) :   0.9859 B(  6-C , 10-H ) :   0.9729
B(  6-C , 11-H ) :   0.9799 B(  7-O ,  8-H ) :   0.9000

Dispersion correction           -0.000241313
FINAL SINGLE POINT ENERGY      -115.732036832302

DIPOLE MOMENT
-------------
                                X             Y             Z
Electronic contribution:      1.05326       1.33137      -0.25260
Nuclear contribution   :     -1.72785      -1.35957       0.12567
                        -----------------------------------------
Total Dipole Moment    :     -0.67459      -0.02820      -0.12693
                        -----------------------------------------
Magnitude (a.u.)       :      0.68701
Magnitude (Debye)      :      1.74624

Rotational constants in cm-1:     4.398591     0.831847     0.802334
Rotational constants in MHz : 131866.439760 24938.152966 24053.360927

                             ****ORCA TERMINATED NORMALLY****
TOTAL RUN TIME: 0 days 0 hours 1 minutes 8 seconds 40 msec
