                         Program Version 4.1.2  - RELEASE  -
|  1> #Run DFT-D3 single point of the dimer
|  2> ! wB97X-D3 def2-TZVP TIGHTSCF CHELPG PMODEL PAL8
|  3>
|  4> %base "9-96_DFT_AB"
|  5>
|  6> %scf
|  7> MaxIter 1000
|  8> end
|  9>
| 10> * xyz 0 1
| 11>   C                      -2.747217            -1.439285            7.215734
| 12>   O                      -3.661565            -2.257749            7.941439
| 13>   H                      -4.087411            -2.914877            7.304557
| 14>   H                      -1.744539            -1.863552            7.165893
| 15>   H                      -3.187766            -1.140830            6.244377
| 16>   H                      -2.642980            -0.476722            7.720025
| 17>   C                      -3.651352            -4.869490            6.049386
| 18>   O                      -3.686176            -3.708315            5.319492
| 19>   H                      -2.830199            -3.313455            5.220469
| 20>   H                      -3.150989            -5.673708            5.578949
| 21>   H                      -2.942356            -4.783845            6.895048
| 22>   H                      -4.594688            -5.242096            6.418377
| 23> *
| 24>
| 25> #Run DFT-D3 single point of the molecule with dimer basis set
| 26> $new_job
| 27> %base "9-96_DFT_A"
| 28> ! wB97X-D3 def2-TZVP TIGHTSCF CHELPG PMODEL
| 29>
| 30> %scf
| 31> MaxIter 1000
| 32> end
| 33>
| 34> * xyz 0 1
| 35>   C                      -2.747217            -1.439285            7.215734
| 36>   O                      -3.661565            -2.257749            7.941439
| 37>   H                      -4.087411            -2.914877            7.304557
| 38>   H                      -1.744539            -1.863552            7.165893
| 39>   H                      -3.187766            -1.140830            6.244377
| 40>   H                      -2.642980            -0.476722            7.720025
| 41>   C                    : -3.651352            -4.869490            6.049386
| 42>   O                    : -3.686176            -3.708315            5.319492
| 43>   H                    : -2.830199            -3.313455            5.220469
| 44>   H                    : -3.150989            -5.673708            5.578949
| 45>   H                    : -2.942356            -4.783845            6.895048
| 46>   H                    : -4.594688            -5.242096            6.418377
| 47> *
| 48>
| 49> #Run DFT-D3 single point of the particle with dimer basis set
| 50> $new_job
| 51> %base "9-96_DFT_B"
| 52> ! wB97X-D3 def2-TZVP TIGHTSCF CHELPG PMODEL
| 53>
| 54> %scf
| 55> MaxIter 1000
| 56> end
| 57>
| 58> * xyz 0 1
| 59>   C                    : -2.747217            -1.439285            7.215734
| 60>   O                    : -3.661565            -2.257749            7.941439
| 61>   H                    : -4.087411            -2.914877            7.304557
| 62>   H                    : -1.744539            -1.863552            7.165893
| 63>   H                    : -3.187766            -1.140830            6.244377
| 64>   H                    : -2.642980            -0.476722            7.720025
| 65>   C                      -3.651352            -4.869490            6.049386
| 66>   O                      -3.686176            -3.708315            5.319492
| 67>   H                      -2.830199            -3.313455            5.220469
| 68>   H                      -3.150989            -5.673708            5.578949
| 69>   H                      -2.942356            -4.783845            6.895048
| 70>   H                      -4.594688            -5.242096            6.418377
| 71> *
| 72>
| 73>                          ****END OF INPUT****
 Total Charge           Charge          ....    0
 Multiplicity           Mult            ....    1
 Number of Electrons    NEL             ....   36
Dispersion correction           -0.002391408
FINAL SINGLE POINT ENERGY      -231.466154353730
Dispersion correction           -0.000258130
FINAL SINGLE POINT ENERGY      -115.733061739408

CARTESIAN COORDINATES (ANGSTROEM)
---------------------------------
  C     -2.747217   -1.439285    7.215734
  O     -3.661565   -2.257749    7.941439
  H     -4.087411   -2.914877    7.304557
  H     -1.744539   -1.863552    7.165893
  H     -3.187766   -1.140830    6.244377
  H     -2.642980   -0.476722    7.720025
  C     -3.651352   -4.869490    6.049386
  O     -3.686176   -3.708315    5.319492
  H     -2.830199   -3.313455    5.220469
  H     -3.150989   -5.673708    5.578949
  H     -2.942356   -4.783845    6.895048
  H     -4.594688   -5.242096    6.418377

 Multiplicity           Mult            ....    1
 Number of Electrons    NEL             ....   18
 Basis Dimension        Dim             ....  172

ORBITAL ENERGIES
----------------

  NO   OCC          E(Eh)            E(eV)
   0   2.0000     -19.231428      -523.3138
   1   2.0000     -10.306900      -280.4650
   2   2.0000      -1.150970       -31.3195
   3   2.0000      -0.803677       -21.8692
   4   2.0000      -0.631454       -17.1827
   5   2.0000      -0.544155       -14.8072
   6   2.0000      -0.533476       -14.5166
   7   2.0000      -0.432792       -11.7769
   8   2.0000      -0.367266        -9.9938
   9   0.0000       0.083129         2.2621
  10   0.0000       0.139470         3.7952
  11   0.0000       0.148171         4.0319
  12   0.0000       0.182791         4.9740
  13   0.0000       0.190893         5.1945

MULLIKEN ATOMIC CHARGES
-----------------------
   0 C :   -0.016035
   1 O :    0.002235
   2 H :    0.003236
   3 H :    0.001053
   4 H :   -0.002217
   5 H :   -0.001452
   6 C :   -0.162845
   7 O :   -0.462731
   8 H :    0.322193
   9 H :    0.106354
  10 H :    0.090968
  11 H :    0.119242
Sum of atomic charges:    0.0000000

LOEWDIN ATOMIC CHARGES
----------------------
   0 C :   -0.016518
   1 O :   -0.004484
   2 H :   -0.022252
   3 H :   -0.001074
   4 H :   -0.004790
   5 H :   -0.000256
   6 C :   -0.406678
   7 O :   -0.008806
   8 H :    0.169954
   9 H :    0.087478
  10 H :    0.099956
  11 H :    0.107470

  Mayer bond orders larger than 0.1
B(  6-C ,  7-O ) :   0.9954 B(  6-C ,  9-H ) :   0.9769 B(  6-C , 10-H ) :   0.9856
B(  6-C , 11-H ) :   0.9756 B(  7-O ,  8-H ) :   0.8925

Dispersion correction           -0.000230307
FINAL SINGLE POINT ENERGY      -115.729005450242

DIPOLE MOMENT
-------------
                                X             Y             Z
Electronic contribution:     -0.37540       1.57123      -1.08823
Nuclear contribution   :      0.95610      -1.78616       1.29283
                        -----------------------------------------
Total Dipole Moment    :      0.58070      -0.21494       0.20460
                        -----------------------------------------
Magnitude (a.u.)       :      0.65213
Magnitude (Debye)      :      1.65758

Rotational constants in cm-1:     4.631107     0.866170     0.821184
Rotational constants in MHz : 138837.088140 25967.119329 24618.464857

                             ****ORCA TERMINATED NORMALLY****
TOTAL RUN TIME: 0 days 0 hours 0 minutes 43 seconds 2 msec
