                         Program Version 4.1.2  - RELEASE  -
|  1> #Run DFT-D3 single point of the dimer
|  2> ! wB97X-D3 def2-TZVP TIGHTSCF CHELPG PMODEL PAL8
|  3>
|  4> %base "17-201_DFT_AB"
|  5>
|  6> %scf
|  7> MaxIter 1000
|  8> end
|  9>
| 10> * xyz 0 1
| 11>   C                      -10.133976           -5.212285            -7.569743
| 12>   O                      -9.046556            -6.136931            -7.724401
| 13>   H                      -8.638359            -6.054136            -8.550942
| 14>   H                      -10.725536           -5.130315            -8.491277
| 15>   H                      -10.826191           -5.405642            -6.781274
| 16>   H                      -9.712326            -4.207788            -7.405187
| 17>   C                      -8.628860            -6.268213            -11.215775
| 18>   O                      -8.038109            -6.896502            -10.113532
| 19>   H                      -8.121895            -7.825682            -10.282428
| 20>   H                      -8.713778            -5.102354            -11.150804
| 21>   H                      -8.057333            -6.450183            -12.154257
| 22>   H                      -9.567372            -6.657788            -11.309092
| 23> *
| 24>
| 25> #Run DFT-D3 single point of the molecule with dimer basis set
| 26> $new_job
| 27> %base "17-201_DFT_A"
| 28> ! wB97X-D3 def2-TZVP TIGHTSCF CHELPG PMODEL
| 29>
| 30> %scf
| 31> MaxIter 1000
| 32> end
| 33>
| 34> * xyz 0 1
| 35>   C                      -10.133976           -5.212285            -7.569743
| 36>   O                      -9.046556            -6.136931            -7.724401
| 37>   H                      -8.638359            -6.054136            -8.550942
| 38>   H                      -10.725536           -5.130315            -8.491277
| 39>   H                      -10.826191           -5.405642            -6.781274
| 40>   H                      -9.712326            -4.207788            -7.405187
| 41>   C                    : -8.628860            -6.268213            -11.215775
| 42>   O                    : -8.038109            -6.896502            -10.113532
| 43>   H                    : -8.121895            -7.825682            -10.282428
| 44>   H                    : -8.713778            -5.102354            -11.150804
| 45>   H                    : -8.057333            -6.450183            -12.154257
| 46>   H                    : -9.567372            -6.657788            -11.309092
| 47> *
| 48>
| 49> #Run DFT-D3 single point of the particle with dimer basis set
| 50> $new_job
| 51> %base "17-201_DFT_B"
| 52> ! wB97X-D3 def2-TZVP TIGHTSCF CHELPG PMODEL
| 53>
| 54> %scf
| 55> MaxIter 1000
| 56> end
| 57>
| 58> * xyz 0 1
| 59>   C                    : -10.133976           -5.212285            -7.569743
| 60>   O                    : -9.046556            -6.136931            -7.724401
| 61>   H                    : -8.638359            -6.054136            -8.550942
| 62>   H                    : -10.725536           -5.130315            -8.491277
| 63>   H                    : -10.826191           -5.405642            -6.781274
| 64>   H                    : -9.712326            -4.207788            -7.405187
| 65>   C                      -8.628860            -6.268213            -11.215775
| 66>   O                      -8.038109            -6.896502            -10.113532
| 67>   H                      -8.121895            -7.825682            -10.282428
| 68>   H                      -8.713778            -5.102354            -11.150804
| 69>   H                      -8.057333            -6.450183            -12.154257
| 70>   H                      -9.567372            -6.657788            -11.309092
| 71> *
| 72>
| 73>                          ****END OF INPUT****
 Total Charge           Charge          ....    0
 Multiplicity           Mult            ....    1
 Number of Electrons    NEL             ....   36
Dispersion correction           -0.001886774
FINAL SINGLE POINT ENERGY      -231.463837246254
Dispersion correction           -0.000252386
FINAL SINGLE POINT ENERGY      -115.732174955848

CARTESIAN COORDINATES (ANGSTROEM)
---------------------------------
  C    -10.133976   -5.212285   -7.569743
  O     -9.046556   -6.136931   -7.724401
  H     -8.638359   -6.054136   -8.550942
  H    -10.725536   -5.130315   -8.491277
  H    -10.826191   -5.405642   -6.781274
  H     -9.712326   -4.207788   -7.405187
  C     -8.628860   -6.268213  -11.215775
  O     -8.038109   -6.896502  -10.113532
  H     -8.121895   -7.825682  -10.282428
  H     -8.713778   -5.102354  -11.150804
  H     -8.057333   -6.450183  -12.154257
  H     -9.567372   -6.657788  -11.309092

 Multiplicity           Mult            ....    1
 Number of Electrons    NEL             ....   18
 Basis Dimension        Dim             ....  172

ORBITAL ENERGIES
----------------

  NO   OCC          E(Eh)            E(eV)
   0   2.0000     -19.230308      -523.2833
   1   2.0000     -10.314195      -280.6635
   2   2.0000      -1.146528       -31.1986
   3   2.0000      -0.793613       -21.5953
   4   2.0000      -0.616111       -16.7652
   5   2.0000      -0.552264       -15.0279
   6   2.0000      -0.525164       -14.2904
   7   2.0000      -0.430671       -11.7192
   8   2.0000      -0.373945       -10.1756
   9   0.0000       0.094617         2.5747
  10   0.0000       0.124456         3.3866
  11   0.0000       0.149511         4.0684
  12   0.0000       0.187072         5.0905
  13   0.0000       0.200013         5.4426

MULLIKEN ATOMIC CHARGES
-----------------------
   0 C :   -0.001870
   1 O :   -0.000193
   2 H :   -0.007731
   3 H :    0.000492
   4 H :    0.000037
   5 H :   -0.000075
   6 C :   -0.171535
   7 O :   -0.465219
   8 H :    0.313448
   9 H :    0.116849
  10 H :    0.102002
  11 H :    0.113794
Sum of atomic charges:   -0.0000000

LOEWDIN ATOMIC CHARGES
----------------------
   0 C :   -0.001935
   1 O :   -0.012228
   2 H :   -0.046706
   3 H :   -0.000297
   4 H :   -0.000024
   5 H :   -0.000046
   6 C :   -0.393240
   7 O :   -0.012562
   8 H :    0.165944
   9 H :    0.123651
  10 H :    0.098907
  11 H :    0.078536

  Mayer bond orders larger than 0.1
B(  6-C ,  7-O ) :   0.9719 B(  6-C ,  9-H ) :   0.9726 B(  6-C , 10-H ) :   0.9695
B(  6-C , 11-H ) :   0.9865 B(  7-O ,  8-H ) :   0.8985

Dispersion correction           -0.000224093
FINAL SINGLE POINT ENERGY      -115.726863447184

DIPOLE MOMENT
-------------
                                X             Y             Z
Electronic contribution:      0.75250      -0.74056       1.54240
Nuclear contribution   :     -1.05743       0.38316      -2.08464
                        -----------------------------------------
Total Dipole Moment    :     -0.30493      -0.35739      -0.54224
                        -----------------------------------------
Magnitude (a.u.)       :      0.71745
Magnitude (Debye)      :      1.82360

Rotational constants in cm-1:     4.318628     0.845236     0.810798
Rotational constants in MHz : 129469.199795 25339.549586 24307.118788

                             ****ORCA TERMINATED NORMALLY****
TOTAL RUN TIME: 0 days 0 hours 1 minutes 7 seconds 116 msec
