                         Program Version 4.1.2  - RELEASE  -
|  1> #Run DFT-D3 single point of the dimer
|  2> ! wB97X-D3 def2-TZVP TIGHTSCF CHELPG PMODEL PAL8
|  3>
|  4> %base "22-159_DFT_AB"
|  5>
|  6> %scf
|  7> MaxIter 1000
|  8> end
|  9>
| 10> * xyz 0 1
| 11>   C                      -8.834874            3.164755             -6.942499
| 12>   O                      -8.510381            4.027767             -5.913860
| 13>   H                      -7.614563            3.811434             -5.733662
| 14>   H                      -9.347348            2.242143             -6.621761
| 15>   H                      -9.521020            3.604805             -7.657690
| 16>   H                      -7.931253            2.856065             -7.511476
| 17>   C                      -10.563604           5.681070             -3.447789
| 18>   O                      -9.809328            6.199999             -4.474646
| 19>   H                      -9.208245            5.512544             -4.805590
| 20>   H                      -11.439028           6.363267             -3.300783
| 21>   H                      -10.919224           4.688907             -3.654699
| 22>   H                      -9.913095            5.656583             -2.566495
| 23> *
| 24>
| 25> #Run DFT-D3 single point of the molecule with dimer basis set
| 26> $new_job
| 27> %base "22-159_DFT_A"
| 28> ! wB97X-D3 def2-TZVP TIGHTSCF CHELPG PMODEL
| 29>
| 30> %scf
| 31> MaxIter 1000
| 32> end
| 33>
| 34> * xyz 0 1
| 35>   C                      -8.834874            3.164755             -6.942499
| 36>   O                      -8.510381            4.027767             -5.913860
| 37>   H                      -7.614563            3.811434             -5.733662
| 38>   H                      -9.347348            2.242143             -6.621761
| 39>   H                      -9.521020            3.604805             -7.657690
| 40>   H                      -7.931253            2.856065             -7.511476
| 41>   C                    : -10.563604           5.681070             -3.447789
| 42>   O                    : -9.809328            6.199999             -4.474646
| 43>   H                    : -9.208245            5.512544             -4.805590
| 44>   H                    : -11.439028           6.363267             -3.300783
| 45>   H                    : -10.919224           4.688907             -3.654699
| 46>   H                    : -9.913095            5.656583             -2.566495
| 47> *
| 48>
| 49> #Run DFT-D3 single point of the particle with dimer basis set
| 50> $new_job
| 51> %base "22-159_DFT_B"
| 52> ! wB97X-D3 def2-TZVP TIGHTSCF CHELPG PMODEL
| 53>
| 54> %scf
| 55> MaxIter 1000
| 56> end
| 57>
| 58> * xyz 0 1
| 59>   C                    : -8.834874            3.164755             -6.942499
| 60>   O                    : -8.510381            4.027767             -5.913860
| 61>   H                    : -7.614563            3.811434             -5.733662
| 62>   H                    : -9.347348            2.242143             -6.621761
| 63>   H                    : -9.521020            3.604805             -7.657690
| 64>   H                    : -7.931253            2.856065             -7.511476
| 65>   C                      -10.563604           5.681070             -3.447789
| 66>   O                      -9.809328            6.199999             -4.474646
| 67>   H                      -9.208245            5.512544             -4.805590
| 68>   H                      -11.439028           6.363267             -3.300783
| 69>   H                      -10.919224           4.688907             -3.654699
| 70>   H                      -9.913095            5.656583             -2.566495
| 71> *
| 72>
| 73>                          ****END OF INPUT****
 Total Charge           Charge          ....    0
 Multiplicity           Mult            ....    1
 Number of Electrons    NEL             ....   36
Dispersion correction           -0.001514855
FINAL SINGLE POINT ENERGY      -231.474615010416
Dispersion correction           -0.000229602
FINAL SINGLE POINT ENERGY      -115.733489134439

CARTESIAN COORDINATES (ANGSTROEM)
---------------------------------
  C     -8.834874    3.164755   -6.942499
  O     -8.510381    4.027767   -5.913860
  H     -7.614563    3.811434   -5.733662
  H     -9.347348    2.242143   -6.621761
  H     -9.521020    3.604805   -7.657690
  H     -7.931253    2.856065   -7.511476
  C    -10.563604    5.681070   -3.447789
  O     -9.809328    6.199999   -4.474646
  H     -9.208245    5.512544   -4.805590
  H    -11.439028    6.363267   -3.300783
  H    -10.919224    4.688907   -3.654699
  H     -9.913095    5.656583   -2.566495

 Multiplicity           Mult            ....    1
 Number of Electrons    NEL             ....   18
 Basis Dimension        Dim             ....  172

ORBITAL ENERGIES
----------------

  NO   OCC          E(Eh)            E(eV)
   0   2.0000     -19.227768      -523.2142
   1   2.0000     -10.309809      -280.5442
   2   2.0000      -1.145404       -31.1680
   3   2.0000      -0.790629       -21.5141
   4   2.0000      -0.617358       -16.7992
   5   2.0000      -0.549933       -14.9644
   6   2.0000      -0.527112       -14.3434
   7   2.0000      -0.429934       -11.6991
   8   2.0000      -0.368637       -10.0311
   9   0.0000       0.069881         1.9016
  10   0.0000       0.128752         3.5035
  11   0.0000       0.151691         4.1277
  12   0.0000       0.174006         4.7349
  13   0.0000       0.188329         5.1247

MULLIKEN ATOMIC CHARGES
-----------------------
   0 C :   -0.002370
   1 O :   -0.003781
   2 H :   -0.000479
   3 H :    0.000065
   4 H :    0.000015
   5 H :    0.000020
   6 C :   -0.139197
   7 O :   -0.468796
   8 H :    0.313979
   9 H :    0.111678
  10 H :    0.094856
  11 H :    0.094010
Sum of atomic charges:   -0.0000000

LOEWDIN ATOMIC CHARGES
----------------------
   0 C :   -0.002029
   1 O :   -0.019157
   2 H :   -0.001562
   3 H :   -0.000037
   4 H :   -0.000177
   5 H :   -0.000047
   6 C :   -0.410353
   7 O :   -0.048462
   8 H :    0.185316
   9 H :    0.114155
  10 H :    0.088054
  11 H :    0.094300

  Mayer bond orders larger than 0.1
B(  6-C ,  7-O ) :   0.9902 B(  6-C ,  9-H ) :   0.9711 B(  6-C , 10-H ) :   0.9752
B(  6-C , 11-H ) :   0.9880 B(  7-O ,  8-H ) :   0.9018

Dispersion correction           -0.000213129
FINAL SINGLE POINT ENERGY      -115.734150361840

DIPOLE MOMENT
-------------
                                X             Y             Z
Electronic contribution:      0.85912       0.74321      -1.31354
Nuclear contribution   :     -0.77267      -1.38078       1.47682
                        -----------------------------------------
Total Dipole Moment    :      0.08645      -0.63758       0.16328
                        -----------------------------------------
Magnitude (a.u.)       :      0.66381
Magnitude (Debye)      :      1.68727

Rotational constants in cm-1:     4.188782     0.877937     0.842297
Rotational constants in MHz : 125576.528212 26319.875961 25251.419445

                             ****ORCA TERMINATED NORMALLY****
TOTAL RUN TIME: 0 days 0 hours 1 minutes 8 seconds 706 msec
