                         Program Version 4.1.2  - RELEASE  -
|  1> #Run DFT-D3 single point of the dimer
|  2> ! wB97X-D3 def2-TZVP TIGHTSCF CHELPG PMODEL PAL8
|  3>
|  4> %base "20-55_DFT_AB"
|  5>
|  6> %scf
|  7> MaxIter 1000
|  8> end
|  9>
| 10> * xyz 0 1
| 11>   C                      6.774995             -8.324252            -6.953877
| 12>   O                      7.881105             -8.521997            -6.079112
| 13>   H                      7.517149             -8.829247            -5.213137
| 14>   H                      6.347906             -9.271718            -7.258913
| 15>   H                      6.000089             -7.780573            -6.407686
| 16>   H                      7.153695             -7.866640            -7.863631
| 17>   C                      9.492134             -4.067995            -5.637031
| 18>   O                      10.793203            -3.694952            -5.312607
| 19>   H                      10.904339            -3.547734            -4.365775
| 20>   H                      9.148676             -3.573289            -6.555278
| 21>   H                      9.361102             -5.168756            -5.751145
| 22>   H                      8.743176             -3.656252            -4.911386
| 23> *
| 24>
| 25> #Run DFT-D3 single point of the molecule with dimer basis set
| 26> $new_job
| 27> %base "20-55_DFT_A"
| 28> ! wB97X-D3 def2-TZVP TIGHTSCF CHELPG PMODEL
| 29>
| 30> %scf
| 31> MaxIter 1000
| 32> end
| 33>
| 34> * xyz 0 1
| 35>   C                      6.774995             -8.324252            -6.953877
| 36>   O                      7.881105             -8.521997            -6.079112
| 37>   H                      7.517149             -8.829247            -5.213137
| 38>   H                      6.347906             -9.271718            -7.258913
| 39>   H                      6.000089             -7.780573            -6.407686
| 40>   H                      7.153695             -7.866640            -7.863631
| 41>   C                    : 9.492134             -4.067995            -5.637031
| 42>   O                    : 10.793203            -3.694952            -5.312607
| 43>   H                    : 10.904339            -3.547734            -4.365775
| 44>   H                    : 9.148676             -3.573289            -6.555278
| 45>   H                    : 9.361102             -5.168756            -5.751145
| 46>   H                    : 8.743176             -3.656252            -4.911386
| 47> *
| 48>
| 49> #Run DFT-D3 single point of the particle with dimer basis set
| 50> $new_job
| 51> %base "20-55_DFT_B"
| 52> ! wB97X-D3 def2-TZVP TIGHTSCF CHELPG PMODEL
| 53>
| 54> %scf
| 55> MaxIter 1000
| 56> end
| 57>
| 58> * xyz 0 1
| 59>   C                    : 6.774995             -8.324252            -6.953877
| 60>   O                    : 7.881105             -8.521997            -6.079112
| 61>   H                    : 7.517149             -8.829247            -5.213137
| 62>   H                    : 6.347906             -9.271718            -7.258913
| 63>   H                    : 6.000089             -7.780573            -6.407686
| 64>   H                    : 7.153695             -7.866640            -7.863631
| 65>   C                      9.492134             -4.067995            -5.637031
| 66>   O                      10.793203            -3.694952            -5.312607
| 67>   H                      10.904339            -3.547734            -4.365775
| 68>   H                      9.148676             -3.573289            -6.555278
| 69>   H                      9.361102             -5.168756            -5.751145
| 70>   H                      8.743176             -3.656252            -4.911386
| 71> *
| 72>
| 73>                          ****END OF INPUT****
 Total Charge           Charge          ....    0
 Multiplicity           Mult            ....    1
 Number of Electrons    NEL             ....   36
Dispersion correction           -0.000805967
FINAL SINGLE POINT ENERGY      -231.468442269437
Dispersion correction           -0.000226969
FINAL SINGLE POINT ENERGY      -115.734400998168

CARTESIAN COORDINATES (ANGSTROEM)
---------------------------------
  C      6.774995   -8.324252   -6.953877
  O      7.881105   -8.521997   -6.079112
  H      7.517149   -8.829247   -5.213137
  H      6.347906   -9.271718   -7.258913
  H      6.000089   -7.780573   -6.407686
  H      7.153695   -7.866640   -7.863631
  C      9.492134   -4.067995   -5.637031
  O     10.793203   -3.694952   -5.312607
  H     10.904339   -3.547734   -4.365775
  H      9.148676   -3.573289   -6.555278
  H      9.361102   -5.168756   -5.751145
  H      8.743176   -3.656252   -4.911386

 Multiplicity           Mult            ....    1
 Number of Electrons    NEL             ....   18
 Basis Dimension        Dim             ....  172

ORBITAL ENERGIES
----------------

  NO   OCC          E(Eh)            E(eV)
   0   2.0000     -19.231082      -523.3044
   1   2.0000     -10.316357      -280.7224
   2   2.0000      -1.140440       -31.0330
   3   2.0000      -0.793288       -21.5865
   4   2.0000      -0.614969       -16.7341
   5   2.0000      -0.544606       -14.8195
   6   2.0000      -0.527023       -14.3410
   7   2.0000      -0.420292       -11.4367
   8   2.0000      -0.375157       -10.2085
   9   0.0000       0.082605         2.2478
  10   0.0000       0.114514         3.1161
  11   0.0000       0.148029         4.0281
  12   0.0000       0.164705         4.4819
  13   0.0000       0.186568         5.0768

MULLIKEN ATOMIC CHARGES
-----------------------
   0 C :   -0.000112
   1 O :    0.000006
   2 H :   -0.000023
   3 H :   -0.000006
   4 H :   -0.000010
   5 H :   -0.000032
   6 C :   -0.159430
   7 O :   -0.474626
   8 H :    0.322167
   9 H :    0.110411
  10 H :    0.102979
  11 H :    0.098677
Sum of atomic charges:   -0.0000000

LOEWDIN ATOMIC CHARGES
----------------------
   0 C :   -0.000268
   1 O :   -0.000183
   2 H :   -0.000041
   3 H :   -0.000007
   4 H :   -0.000015
   5 H :   -0.000037
   6 C :   -0.411939
   7 O :   -0.063959
   8 H :    0.173845
   9 H :    0.104385
  10 H :    0.098369
  11 H :    0.099850

  Mayer bond orders larger than 0.1
B(  6-C ,  7-O ) :   1.0110 B(  6-C ,  9-H ) :   0.9716 B(  6-C , 10-H ) :   0.9711
B(  6-C , 11-H ) :   0.9827 B(  7-O ,  8-H ) :   0.8929

Dispersion correction           -0.000260033
FINAL SINGLE POINT ENERGY      -115.733571827247

DIPOLE MOMENT
-------------
                                X             Y             Z
Electronic contribution:      1.83638       0.41769       0.31167
Nuclear contribution   :     -2.27356      -0.42907       0.18510
                        -----------------------------------------
Total Dipole Moment    :     -0.43718      -0.01138       0.49677
                        -----------------------------------------
Magnitude (a.u.)       :      0.66185
Magnitude (Debye)      :      1.68228

Rotational constants in cm-1:     4.301951     0.832680     0.813281
Rotational constants in MHz : 128969.243874 24963.124885 24381.544322

                             ****ORCA TERMINATED NORMALLY****
TOTAL RUN TIME: 0 days 0 hours 1 minutes 7 seconds 47 msec
