                         Program Version 4.1.2  - RELEASE  -
|  1> #Run DFT-D3 single point of the dimer
|  2> ! wB97X-D3 def2-TZVP TIGHTSCF CHELPG PMODEL PAL8
|  3>
|  4> %base "14-158_DFT_AB"
|  5>
|  6> %scf
|  7> MaxIter 1000
|  8> end
|  9>
| 10> * xyz 0 1
| 11>   C                      -10.200047           -8.003880            4.423014
| 12>   O                      -10.018331           -8.626923            3.200137
| 13>   H                      -9.399112            -9.341126            3.372419
| 14>   H                      -10.975053           -7.267297            4.423832
| 15>   H                      -10.380605           -8.723386            5.259850
| 16>   H                      -9.334502            -7.461525            4.777027
| 17>   C                      -7.932546            -7.391973            -0.163759
| 18>   O                      -8.936681            -6.734774            0.617501
| 19>   H                      -9.195801            -7.331336            1.328695
| 20>   H                      -8.331154            -8.055659            -0.887967
| 21>   H                      -7.294283            -6.669738            -0.732825
| 22>   H                      -7.390942            -8.063597            0.463274
| 23> *
| 24>
| 25> #Run DFT-D3 single point of the molecule with dimer basis set
| 26> $new_job
| 27> %base "14-158_DFT_A"
| 28> ! wB97X-D3 def2-TZVP TIGHTSCF CHELPG PMODEL
| 29>
| 30> %scf
| 31> MaxIter 1000
| 32> end
| 33>
| 34> * xyz 0 1
| 35>   C                      -10.200047           -8.003880            4.423014
| 36>   O                      -10.018331           -8.626923            3.200137
| 37>   H                      -9.399112            -9.341126            3.372419
| 38>   H                      -10.975053           -7.267297            4.423832
| 39>   H                      -10.380605           -8.723386            5.259850
| 40>   H                      -9.334502            -7.461525            4.777027
| 41>   C                    : -7.932546            -7.391973            -0.163759
| 42>   O                    : -8.936681            -6.734774            0.617501
| 43>   H                    : -9.195801            -7.331336            1.328695
| 44>   H                    : -8.331154            -8.055659            -0.887967
| 45>   H                    : -7.294283            -6.669738            -0.732825
| 46>   H                    : -7.390942            -8.063597            0.463274
| 47> *
| 48>
| 49> #Run DFT-D3 single point of the particle with dimer basis set
| 50> $new_job
| 51> %base "14-158_DFT_B"
| 52> ! wB97X-D3 def2-TZVP TIGHTSCF CHELPG PMODEL
| 53>
| 54> %scf
| 55> MaxIter 1000
| 56> end
| 57>
| 58> * xyz 0 1
| 59>   C                    : -10.200047           -8.003880            4.423014
| 60>   O                    : -10.018331           -8.626923            3.200137
| 61>   H                    : -9.399112            -9.341126            3.372419
| 62>   H                    : -10.975053           -7.267297            4.423832
| 63>   H                    : -10.380605           -8.723386            5.259850
| 64>   H                    : -9.334502            -7.461525            4.777027
| 65>   C                      -7.932546            -7.391973            -0.163759
| 66>   O                      -8.936681            -6.734774            0.617501
| 67>   H                      -9.195801            -7.331336            1.328695
| 68>   H                      -8.331154            -8.055659            -0.887967
| 69>   H                      -7.294283            -6.669738            -0.732825
| 70>   H                      -7.390942            -8.063597            0.463274
| 71> *
| 72>
| 73>                          ****END OF INPUT****
 Total Charge           Charge          ....    0
 Multiplicity           Mult            ....    1
 Number of Electrons    NEL             ....   36
Dispersion correction           -0.001373537
FINAL SINGLE POINT ENERGY      -231.470915173821
Dispersion correction           -0.000227737
FINAL SINGLE POINT ENERGY      -115.733796340058

CARTESIAN COORDINATES (ANGSTROEM)
---------------------------------
  C    -10.200047   -8.003880    4.423014
  O    -10.018331   -8.626923    3.200137
  H     -9.399112   -9.341126    3.372419
  H    -10.975053   -7.267297    4.423832
  H    -10.380605   -8.723386    5.259850
  H     -9.334502   -7.461525    4.777027
  C     -7.932546   -7.391973   -0.163759
  O     -8.936681   -6.734774    0.617501
  H     -9.195801   -7.331336    1.328695
  H     -8.331154   -8.055659   -0.887967
  H     -7.294283   -6.669738   -0.732825
  H     -7.390942   -8.063597    0.463274

 Multiplicity           Mult            ....    1
 Number of Electrons    NEL             ....   18
 Basis Dimension        Dim             ....  172

ORBITAL ENERGIES
----------------

  NO   OCC          E(Eh)            E(eV)
   0   2.0000     -19.229881      -523.2717
   1   2.0000     -10.311364      -280.5865
   2   2.0000      -1.129895       -30.7460
   3   2.0000      -0.799706       -21.7611
   4   2.0000      -0.612882       -16.6774
   5   2.0000      -0.536775       -14.6064
   6   2.0000      -0.526314       -14.3217
   7   2.0000      -0.438520       -11.9327
   8   2.0000      -0.371469       -10.1082
   9   0.0000       0.069079         1.8797
  10   0.0000       0.124414         3.3855
  11   0.0000       0.151332         4.1179
  12   0.0000       0.168982         4.5982
  13   0.0000       0.196262         5.3406

MULLIKEN ATOMIC CHARGES
-----------------------
   0 C :   -0.000689
   1 O :   -0.000559
   2 H :   -0.000187
   3 H :    0.000068
   4 H :   -0.000005
   5 H :   -0.000097
   6 C :   -0.162561
   7 O :   -0.476027
   8 H :    0.311609
   9 H :    0.105669
  10 H :    0.119341
  11 H :    0.103438
Sum of atomic charges:   -0.0000000

LOEWDIN ATOMIC CHARGES
----------------------
   0 C :   -0.001376
   1 O :   -0.005332
   2 H :   -0.000598
   3 H :   -0.000041
   4 H :   -0.000028
   5 H :   -0.000121
   6 C :   -0.367789
   7 O :   -0.089076
   8 H :    0.171415
   9 H :    0.087804
  10 H :    0.113893
  11 H :    0.091248

  Mayer bond orders larger than 0.1
B(  6-C ,  7-O ) :   0.9943 B(  6-C ,  9-H ) :   0.9721 B(  6-C , 10-H ) :   0.9738
B(  6-C , 11-H ) :   0.9878 B(  7-O ,  8-H ) :   0.9064

Dispersion correction           -0.000241466
FINAL SINGLE POINT ENERGY      -115.731406207300

DIPOLE MOMENT
-------------
                                X             Y             Z
Electronic contribution:     -1.23252       1.00568       0.91013
Nuclear contribution   :      1.47902      -1.67939      -0.78091
                        -----------------------------------------
Total Dipole Moment    :      0.24649      -0.67370       0.12922
                        -----------------------------------------
Magnitude (a.u.)       :      0.72892
Magnitude (Debye)      :      1.85278

Rotational constants in cm-1:     4.407208     0.821064     0.777746
Rotational constants in MHz : 132124.773484 24614.864635 23316.232808

                             ****ORCA TERMINATED NORMALLY****
TOTAL RUN TIME: 0 days 0 hours 1 minutes 9 seconds 804 msec
