                         Program Version 4.1.2  - RELEASE  -
|  1> #Run DFT-D3 single point of the dimer
|  2> ! wB97X-D3 def2-TZVP TIGHTSCF CHELPG PMODEL PAL8
|  3>
|  4> %base "2-136_DFT_AB"
|  5>
|  6> %scf
|  7> MaxIter 1000
|  8> end
|  9>
| 10> * xyz 0 1
| 11>   C                      4.533409             0.137027             -4.796207
| 12>   O                      4.436586             -1.244241            -4.528768
| 13>   H                      5.310152             -1.569002            -4.367743
| 14>   H                      5.533253             0.291524             -5.098196
| 15>   H                      3.883806             0.507045             -5.598548
| 16>   H                      4.424128             0.778533             -3.962578
| 17>   C                      3.094691             -3.899319            -2.253301
| 18>   O                      4.012810             -2.855084            -2.489724
| 19>   H                      4.894132             -3.180706            -2.366375
| 20>   H                      3.274963             -4.743832            -2.885866
| 21>   H                      3.157851             -4.307120            -1.295152
| 22>   H                      2.029597             -3.619283            -2.348870
| 23> *
| 24>
| 25> #Run DFT-D3 single point of the molecule with dimer basis set
| 26> $new_job
| 27> %base "2-136_DFT_A"
| 28> ! wB97X-D3 def2-TZVP TIGHTSCF CHELPG PMODEL
| 29>
| 30> %scf
| 31> MaxIter 1000
| 32> end
| 33>
| 34> * xyz 0 1
| 35>   C                      4.533409             0.137027             -4.796207
| 36>   O                      4.436586             -1.244241            -4.528768
| 37>   H                      5.310152             -1.569002            -4.367743
| 38>   H                      5.533253             0.291524             -5.098196
| 39>   H                      3.883806             0.507045             -5.598548
| 40>   H                      4.424128             0.778533             -3.962578
| 41>   C                    : 3.094691             -3.899319            -2.253301
| 42>   O                    : 4.012810             -2.855084            -2.489724
| 43>   H                    : 4.894132             -3.180706            -2.366375
| 44>   H                    : 3.274963             -4.743832            -2.885866
| 45>   H                    : 3.157851             -4.307120            -1.295152
| 46>   H                    : 2.029597             -3.619283            -2.348870
| 47> *
| 48>
| 49> #Run DFT-D3 single point of the particle with dimer basis set
| 50> $new_job
| 51> %base "2-136_DFT_B"
| 52> ! wB97X-D3 def2-TZVP TIGHTSCF CHELPG PMODEL
| 53>
| 54> %scf
| 55> MaxIter 1000
| 56> end
| 57>
| 58> * xyz 0 1
| 59>   C                    : 4.533409             0.137027             -4.796207
| 60>   O                    : 4.436586             -1.244241            -4.528768
| 61>   H                    : 5.310152             -1.569002            -4.367743
| 62>   H                    : 5.533253             0.291524             -5.098196
| 63>   H                    : 3.883806             0.507045             -5.598548
| 64>   H                    : 4.424128             0.778533             -3.962578
| 65>   C                      3.094691             -3.899319            -2.253301
| 66>   O                      4.012810             -2.855084            -2.489724
| 67>   H                      4.894132             -3.180706            -2.366375
| 68>   H                      3.274963             -4.743832            -2.885866
| 69>   H                      3.157851             -4.307120            -1.295152
| 70>   H                      2.029597             -3.619283            -2.348870
| 71> *
| 72>
| 73>                          ****END OF INPUT****
 Total Charge           Charge          ....    0
 Multiplicity           Mult            ....    1
 Number of Electrons    NEL             ....   36
Dispersion correction           -0.001452459
FINAL SINGLE POINT ENERGY      -231.453450877564
Dispersion correction           -0.000231859
FINAL SINGLE POINT ENERGY      -115.730251420895

CARTESIAN COORDINATES (ANGSTROEM)
---------------------------------
  C      4.533409    0.137027   -4.796207
  O      4.436586   -1.244241   -4.528768
  H      5.310152   -1.569002   -4.367743
  H      5.533253    0.291524   -5.098196
  H      3.883806    0.507045   -5.598548
  H      4.424128    0.778533   -3.962578
  C      3.094691   -3.899319   -2.253301
  O      4.012810   -2.855084   -2.489724
  H      4.894132   -3.180706   -2.366375
  H      3.274963   -4.743832   -2.885866
  H      3.157851   -4.307120   -1.295152
  H      2.029597   -3.619283   -2.348870

 Multiplicity           Mult            ....    1
 Number of Electrons    NEL             ....   18
 Basis Dimension        Dim             ....  172

ORBITAL ENERGIES
----------------

  NO   OCC          E(Eh)            E(eV)
   0   2.0000     -19.230633      -523.2921
   1   2.0000     -10.306111      -280.4435
   2   2.0000      -1.139530       -31.0082
   3   2.0000      -0.804451       -21.8902
   4   2.0000      -0.619403       -16.8548
   5   2.0000      -0.542090       -14.7510
   6   2.0000      -0.529954       -14.4208
   7   2.0000      -0.434926       -11.8349
   8   2.0000      -0.374298       -10.1852
   9   0.0000       0.097686         2.6582
  10   0.0000       0.122594         3.3360
  11   0.0000       0.152039         4.1372
  12   0.0000       0.194922         5.3041
  13   0.0000       0.200694         5.4612

MULLIKEN ATOMIC CHARGES
-----------------------
   0 C :   -0.002852
   1 O :    0.005495
   2 H :   -0.008140
   3 H :    0.000151
   4 H :    0.000026
   5 H :    0.000228
   6 C :   -0.164535
   7 O :   -0.473698
   8 H :    0.315156
   9 H :    0.102737
  10 H :    0.105176
  11 H :    0.120256
Sum of atomic charges:   -0.0000000

LOEWDIN ATOMIC CHARGES
----------------------
   0 C :   -0.002531
   1 O :   -0.021398
   2 H :   -0.008311
   3 H :   -0.000047
   4 H :   -0.000055
   5 H :   -0.000184
   6 C :   -0.382350
   7 O :   -0.038973
   8 H :    0.163786
   9 H :    0.091018
  10 H :    0.085195
  11 H :    0.113849

  Mayer bond orders larger than 0.1
B(  6-C ,  7-O ) :   0.9931 B(  6-C ,  9-H ) :   0.9809 B(  6-C , 10-H ) :   0.9757
B(  6-C , 11-H ) :   0.9741 B(  7-O ,  8-H ) :   0.8974

Dispersion correction           -0.000236969
FINAL SINGLE POINT ENERGY      -115.732160497588

DIPOLE MOMENT
-------------
                                X             Y             Z
Electronic contribution:      1.10248       1.50249      -0.33305
Nuclear contribution   :     -0.91211      -2.15685       0.53710
                        -----------------------------------------
Total Dipole Moment    :      0.19037      -0.65436       0.20406
                        -----------------------------------------
Magnitude (a.u.)       :      0.71138
Magnitude (Debye)      :      1.80819

Rotational constants in cm-1:     4.622570     0.830446     0.795100
Rotational constants in MHz : 138581.148839 24896.135331 23836.500491

                             ****ORCA TERMINATED NORMALLY****
TOTAL RUN TIME: 0 days 0 hours 6 minutes 16 seconds 299 msec
