                         Program Version 4.1.2  - RELEASE  -
|  1> #Run DFT-D3 single point of the dimer
|  2> ! wB97X-D3 def2-TZVP TIGHTSCF CHELPG PMODEL PAL8
|  3>
|  4> %base "21-5_DFT_AB"
|  5>
|  6> %scf
|  7> MaxIter 1000
|  8> end
|  9>
| 10> * xyz 0 1
| 11>   C                      -6.197209            -10.043977           -7.076087
| 12>   O                      -7.192169            -9.113181            -7.459103
| 13>   H                      -7.983588            -9.380507            -7.088494
| 14>   H                      -6.571320            -11.022002           -7.330227
| 15>   H                      -5.260879            -9.809619            -7.601295
| 16>   H                      -5.787484            -10.013825           -6.086584
| 17>   C                      -2.195462            -8.218944            -9.283942
| 18>   O                      -2.877718            -7.014818            -9.520438
| 19>   H                      -3.322852            -6.704210            -8.760176
| 20>   H                      -1.544764            -8.254360            -8.421028
| 21>   H                      -2.894660            -9.007557            -9.234336
| 22>   H                      -1.604312            -8.382997            -10.215186
| 23> *
| 24>
| 25> #Run DFT-D3 single point of the molecule with dimer basis set
| 26> $new_job
| 27> %base "21-5_DFT_A"
| 28> ! wB97X-D3 def2-TZVP TIGHTSCF CHELPG PMODEL
| 29>
| 30> %scf
| 31> MaxIter 1000
| 32> end
| 33>
| 34> * xyz 0 1
| 35>   C                      -6.197209            -10.043977           -7.076087
| 36>   O                      -7.192169            -9.113181            -7.459103
| 37>   H                      -7.983588            -9.380507            -7.088494
| 38>   H                      -6.571320            -11.022002           -7.330227
| 39>   H                      -5.260879            -9.809619            -7.601295
| 40>   H                      -5.787484            -10.013825           -6.086584
| 41>   C                    : -2.195462            -8.218944            -9.283942
| 42>   O                    : -2.877718            -7.014818            -9.520438
| 43>   H                    : -3.322852            -6.704210            -8.760176
| 44>   H                    : -1.544764            -8.254360            -8.421028
| 45>   H                    : -2.894660            -9.007557            -9.234336
| 46>   H                    : -1.604312            -8.382997            -10.215186
| 47> *
| 48>
| 49> #Run DFT-D3 single point of the particle with dimer basis set
| 50> $new_job
| 51> %base "21-5_DFT_B"
| 52> ! wB97X-D3 def2-TZVP TIGHTSCF CHELPG PMODEL
| 53>
| 54> %scf
| 55> MaxIter 1000
| 56> end
| 57>
| 58> * xyz 0 1
| 59>   C                    : -6.197209            -10.043977           -7.076087
| 60>   O                    : -7.192169            -9.113181            -7.459103
| 61>   H                    : -7.983588            -9.380507            -7.088494
| 62>   H                    : -6.571320            -11.022002           -7.330227
| 63>   H                    : -5.260879            -9.809619            -7.601295
| 64>   H                    : -5.787484            -10.013825           -6.086584
| 65>   C                      -2.195462            -8.218944            -9.283942
| 66>   O                      -2.877718            -7.014818            -9.520438
| 67>   H                      -3.322852            -6.704210            -8.760176
| 68>   H                      -1.544764            -8.254360            -8.421028
| 69>   H                      -2.894660            -9.007557            -9.234336
| 70>   H                      -1.604312            -8.382997            -10.215186
| 71> *
| 72>
| 73>                          ****END OF INPUT****
 Total Charge           Charge          ....    0
 Multiplicity           Mult            ....    1
 Number of Electrons    NEL             ....   36
Dispersion correction           -0.000939157
FINAL SINGLE POINT ENERGY      -231.462875500288
Dispersion correction           -0.000241853
FINAL SINGLE POINT ENERGY      -115.728634909774

CARTESIAN COORDINATES (ANGSTROEM)
---------------------------------
  C     -6.197209  -10.043977   -7.076087
  O     -7.192169   -9.113181   -7.459103
  H     -7.983588   -9.380507   -7.088494
  H     -6.571320  -11.022002   -7.330227
  H     -5.260879   -9.809619   -7.601295
  H     -5.787484  -10.013825   -6.086584
  C     -2.195462   -8.218944   -9.283942
  O     -2.877718   -7.014818   -9.520438
  H     -3.322852   -6.704210   -8.760176
  H     -1.544764   -8.254360   -8.421028
  H     -2.894660   -9.007557   -9.234336
  H     -1.604312   -8.382997  -10.215186

 Multiplicity           Mult            ....    1
 Number of Electrons    NEL             ....   18
 Basis Dimension        Dim             ....  172

ORBITAL ENERGIES
----------------

  NO   OCC          E(Eh)            E(eV)
   0   2.0000     -19.224754      -523.1321
   1   2.0000     -10.308471      -280.5078
   2   2.0000      -1.140770       -31.0419
   3   2.0000      -0.801568       -21.8118
   4   2.0000      -0.618373       -16.8268
   5   2.0000      -0.547377       -14.8949
   6   2.0000      -0.522802       -14.2262
   7   2.0000      -0.430228       -11.7071
   8   2.0000      -0.374122       -10.1804
   9   0.0000       0.081882         2.2281
  10   0.0000       0.120062         3.2671
  11   0.0000       0.152841         4.1590
  12   0.0000       0.169855         4.6220
  13   0.0000       0.189996         5.1700

MULLIKEN ATOMIC CHARGES
-----------------------
   0 C :   -0.000867
   1 O :   -0.000005
   2 H :   -0.000001
   3 H :    0.000046
   4 H :    0.001585
   5 H :    0.000020
   6 C :   -0.147367
   7 O :   -0.481305
   8 H :    0.308859
   9 H :    0.101307
  10 H :    0.098704
  11 H :    0.119025
Sum of atomic charges:   -0.0000000

LOEWDIN ATOMIC CHARGES
----------------------
   0 C :   -0.000219
   1 O :   -0.000006
   2 H :   -0.000000
   3 H :   -0.000002
   4 H :   -0.000717
   5 H :   -0.000003
   6 C :   -0.383338
   7 O :   -0.058704
   8 H :    0.148575
   9 H :    0.091553
  10 H :    0.085548
  11 H :    0.117314

  Mayer bond orders larger than 0.1
B(  6-C ,  7-O ) :   0.9980 B(  6-C ,  9-H ) :   0.9717 B(  6-C , 10-H ) :   0.9795
B(  6-C , 11-H ) :   0.9776 B(  7-O ,  8-H ) :   0.9037

Dispersion correction           -0.000239866
FINAL SINGLE POINT ENERGY      -115.733807749036

DIPOLE MOMENT
-------------
                                X             Y             Z
Electronic contribution:     -0.81770       1.52972      -0.26021
Nuclear contribution   :      0.79406      -1.81567       0.85535
                        -----------------------------------------
Total Dipole Moment    :     -0.02365      -0.28596       0.59514
                        -----------------------------------------
Magnitude (a.u.)       :      0.66070
Magnitude (Debye)      :      1.67936

Rotational constants in cm-1:     4.436632     0.843845     0.812009
Rotational constants in MHz : 133006.882922 25297.833858 24343.406004

                             ****ORCA TERMINATED NORMALLY****
TOTAL RUN TIME: 0 days 0 hours 1 minutes 4 seconds 492 msec
