                         Program Version 4.1.2  - RELEASE  -
|  1> #Run DFT-D3 single point of the dimer
|  2> ! wB97X-D3 def2-TZVP TIGHTSCF CHELPG PMODEL PAL8
|  3>
|  4> %base "21-203_DFT_AB"
|  5>
|  6> %scf
|  7> MaxIter 1000
|  8> end
|  9>
| 10> * xyz 0 1
| 11>   C                      5.503874             -0.101515            6.481402
| 12>   O                      6.172806             0.688882             7.456847
| 13>   H                      5.609284             0.745372             8.252751
| 14>   H                      4.746322             -0.767464            6.930784
| 15>   H                      4.929882             0.593671             5.839851
| 16>   H                      6.153253             -0.658589            5.756880
| 17>   C                      7.693847             2.021874             4.901489
| 18>   O                      8.088999             2.476631             6.192510
| 19>   H                      7.435209             2.028397             6.809232
| 20>   H                      8.057244             1.003342             4.678228
| 21>   H                      6.558168             1.949143             4.821419
| 22>   H                      8.038033             2.698826             4.059510
| 23> *
| 24>
| 25> #Run DFT-D3 single point of the molecule with dimer basis set
| 26> $new_job
| 27> %base "21-203_DFT_A"
| 28> ! wB97X-D3 def2-TZVP TIGHTSCF CHELPG PMODEL
| 29>
| 30> %scf
| 31> MaxIter 1000
| 32> end
| 33>
| 34> * xyz 0 1
| 35>   C                      5.503874             -0.101515            6.481402
| 36>   O                      6.172806             0.688882             7.456847
| 37>   H                      5.609284             0.745372             8.252751
| 38>   H                      4.746322             -0.767464            6.930784
| 39>   H                      4.929882             0.593671             5.839851
| 40>   H                      6.153253             -0.658589            5.756880
| 41>   C                    : 7.693847             2.021874             4.901489
| 42>   O                    : 8.088999             2.476631             6.192510
| 43>   H                    : 7.435209             2.028397             6.809232
| 44>   H                    : 8.057244             1.003342             4.678228
| 45>   H                    : 6.558168             1.949143             4.821419
| 46>   H                    : 8.038033             2.698826             4.059510
| 47> *
| 48>
| 49> #Run DFT-D3 single point of the particle with dimer basis set
| 50> $new_job
| 51> %base "21-203_DFT_B"
| 52> ! wB97X-D3 def2-TZVP TIGHTSCF CHELPG PMODEL
| 53>
| 54> %scf
| 55> MaxIter 1000
| 56> end
| 57>
| 58> * xyz 0 1
| 59>   C                    : 5.503874             -0.101515            6.481402
| 60>   O                    : 6.172806             0.688882             7.456847
| 61>   H                    : 5.609284             0.745372             8.252751
| 62>   H                    : 4.746322             -0.767464            6.930784
| 63>   H                    : 4.929882             0.593671             5.839851
| 64>   H                    : 6.153253             -0.658589            5.756880
| 65>   C                      7.693847             2.021874             4.901489
| 66>   O                      8.088999             2.476631             6.192510
| 67>   H                      7.435209             2.028397             6.809232
| 68>   H                      8.057244             1.003342             4.678228
| 69>   H                      6.558168             1.949143             4.821419
| 70>   H                      8.038033             2.698826             4.059510
| 71> *
| 72>
| 73>                          ****END OF INPUT****
 Total Charge           Charge          ....    0
 Multiplicity           Mult            ....    1
 Number of Electrons    NEL             ....   36
Dispersion correction           -0.002367114
FINAL SINGLE POINT ENERGY      -231.471989348906
Dispersion correction           -0.000256072
FINAL SINGLE POINT ENERGY      -115.731996908840

CARTESIAN COORDINATES (ANGSTROEM)
---------------------------------
  C      5.503874   -0.101515    6.481402
  O      6.172806    0.688882    7.456847
  H      5.609284    0.745372    8.252751
  H      4.746322   -0.767464    6.930784
  H      4.929882    0.593671    5.839851
  H      6.153253   -0.658589    5.756880
  C      7.693847    2.021874    4.901489
  O      8.088999    2.476631    6.192510
  H      7.435209    2.028397    6.809232
  H      8.057244    1.003342    4.678228
  H      6.558168    1.949143    4.821419
  H      8.038033    2.698826    4.059510

 Multiplicity           Mult            ....    1
 Number of Electrons    NEL             ....   18
 Basis Dimension        Dim             ....  172

ORBITAL ENERGIES
----------------

  NO   OCC          E(Eh)            E(eV)
   0   2.0000     -19.239228      -523.5260
   1   2.0000     -10.324449      -280.9425
   2   2.0000      -1.129928       -30.7469
   3   2.0000      -0.784010       -21.3340
   4   2.0000      -0.603925       -16.4336
   5   2.0000      -0.533967       -14.5300
   6   2.0000      -0.524137       -14.2625
   7   2.0000      -0.435418       -11.8483
   8   2.0000      -0.373654       -10.1676
   9   0.0000       0.066973         1.8224
  10   0.0000       0.128070         3.4849
  11   0.0000       0.142433         3.8758
  12   0.0000       0.170612         4.6426
  13   0.0000       0.182431         4.9642

MULLIKEN ATOMIC CHARGES
-----------------------
   0 C :    0.000539
   1 O :   -0.004980
   2 H :   -0.000465
   3 H :    0.000037
   4 H :   -0.000848
   5 H :   -0.000785
   6 C :   -0.186415
   7 O :   -0.460465
   8 H :    0.322063
   9 H :    0.101989
  10 H :    0.102511
  11 H :    0.126819
Sum of atomic charges:    0.0000000

LOEWDIN ATOMIC CHARGES
----------------------
   0 C :   -0.012991
   1 O :   -0.020336
   2 H :   -0.001062
   3 H :   -0.000086
   4 H :   -0.004184
   5 H :   -0.002047
   6 C :   -0.392061
   7 O :   -0.091706
   8 H :    0.207605
   9 H :    0.095872
  10 H :    0.107174
  11 H :    0.113820

  Mayer bond orders larger than 0.1
B(  6-C ,  7-O ) :   1.0025 B(  6-C ,  9-H ) :   0.9711 B(  6-C , 10-H ) :   0.9820
B(  6-C , 11-H ) :   0.9677 B(  7-O ,  8-H ) :   0.8976

Dispersion correction           -0.000257018
FINAL SINGLE POINT ENERGY      -115.731181093454

DIPOLE MOMENT
-------------
                                X             Y             Z
Electronic contribution:      0.75372       0.74069       1.66343
Nuclear contribution   :     -1.30039      -1.18299      -1.78459
                        -----------------------------------------
Total Dipole Moment    :     -0.54667      -0.44230      -0.12116
                        -----------------------------------------
Magnitude (a.u.)       :      0.71355
Magnitude (Debye)      :      1.81370

Rotational constants in cm-1:     4.055047     0.814540     0.777889
Rotational constants in MHz : 121567.254229 24419.307075 23320.535007

                             ****ORCA TERMINATED NORMALLY****
TOTAL RUN TIME: 0 days 0 hours 1 minutes 5 seconds 80 msec
