                         Program Version 4.1.2  - RELEASE  -
|  1> #Run DFT-D3 single point of the dimer
|  2> ! wB97X-D3 def2-TZVP TIGHTSCF CHELPG PMODEL PAL8
|  3>
|  4> %base "9-51_DFT_AB"
|  5>
|  6> %scf
|  7> MaxIter 1000
|  8> end
|  9>
| 10> * xyz 0 1
| 11>   C                      -2.321207            -5.271564            -0.117392
| 12>   O                      -1.699948            -4.236620            -0.812064
| 13>   H                      -1.067507            -3.804357            -0.260356
| 14>   H                      -3.067091            -5.682834            -0.736439
| 15>   H                      -1.643910            -6.077927            0.202816
| 16>   H                      -2.851049            -4.806668            0.717258
| 17>   C                      -0.411850            -2.100247            -4.063294
| 18>   O                      -1.012722            -2.373101            -5.308068
| 19>   H                      -0.394791            -2.178237            -6.031232
| 20>   H                      0.676770             -2.216128            -4.156537
| 21>   H                      -0.601774            -1.071963            -3.796479
| 22>   H                      -0.723615            -2.888617            -3.255990
| 23> *
| 24>
| 25> #Run DFT-D3 single point of the molecule with dimer basis set
| 26> $new_job
| 27> %base "9-51_DFT_A"
| 28> ! wB97X-D3 def2-TZVP TIGHTSCF CHELPG PMODEL
| 29>
| 30> %scf
| 31> MaxIter 1000
| 32> end
| 33>
| 34> * xyz 0 1
| 35>   C                      -2.321207            -5.271564            -0.117392
| 36>   O                      -1.699948            -4.236620            -0.812064
| 37>   H                      -1.067507            -3.804357            -0.260356
| 38>   H                      -3.067091            -5.682834            -0.736439
| 39>   H                      -1.643910            -6.077927            0.202816
| 40>   H                      -2.851049            -4.806668            0.717258
| 41>   C                    : -0.411850            -2.100247            -4.063294
| 42>   O                    : -1.012722            -2.373101            -5.308068
| 43>   H                    : -0.394791            -2.178237            -6.031232
| 44>   H                    : 0.676770             -2.216128            -4.156537
| 45>   H                    : -0.601774            -1.071963            -3.796479
| 46>   H                    : -0.723615            -2.888617            -3.255990
| 47> *
| 48>
| 49> #Run DFT-D3 single point of the particle with dimer basis set
| 50> $new_job
| 51> %base "9-51_DFT_B"
| 52> ! wB97X-D3 def2-TZVP TIGHTSCF CHELPG PMODEL
| 53>
| 54> %scf
| 55> MaxIter 1000
| 56> end
| 57>
| 58> * xyz 0 1
| 59>   C                    : -2.321207            -5.271564            -0.117392
| 60>   O                    : -1.699948            -4.236620            -0.812064
| 61>   H                    : -1.067507            -3.804357            -0.260356
| 62>   H                    : -3.067091            -5.682834            -0.736439
| 63>   H                    : -1.643910            -6.077927            0.202816
| 64>   H                    : -2.851049            -4.806668            0.717258
| 65>   C                      -0.411850            -2.100247            -4.063294
| 66>   O                      -1.012722            -2.373101            -5.308068
| 67>   H                      -0.394791            -2.178237            -6.031232
| 68>   H                      0.676770             -2.216128            -4.156537
| 69>   H                      -0.601774            -1.071963            -3.796479
| 70>   H                      -0.723615            -2.888617            -3.255990
| 71> *
| 72>
| 73>                          ****END OF INPUT****
 Total Charge           Charge          ....    0
 Multiplicity           Mult            ....    1
 Number of Electrons    NEL             ....   36
Dispersion correction           -0.000964062
FINAL SINGLE POINT ENERGY      -231.466014853173
Dispersion correction           -0.000224301
FINAL SINGLE POINT ENERGY      -115.734658541686

CARTESIAN COORDINATES (ANGSTROEM)
---------------------------------
  C     -2.321207   -5.271564   -0.117392
  O     -1.699948   -4.236620   -0.812064
  H     -1.067507   -3.804357   -0.260356
  H     -3.067091   -5.682834   -0.736439
  H     -1.643910   -6.077927    0.202816
  H     -2.851049   -4.806668    0.717258
  C     -0.411850   -2.100247   -4.063294
  O     -1.012722   -2.373101   -5.308068
  H     -0.394791   -2.178237   -6.031232
  H      0.676770   -2.216128   -4.156537
  H     -0.601774   -1.071963   -3.796479
  H     -0.723615   -2.888617   -3.255990

 Multiplicity           Mult            ....    1
 Number of Electrons    NEL             ....   18
 Basis Dimension        Dim             ....  172

ORBITAL ENERGIES
----------------

  NO   OCC          E(Eh)            E(eV)
   0   2.0000     -19.228204      -523.2260
   1   2.0000     -10.319655      -280.8121
   2   2.0000      -1.133842       -30.8534
   3   2.0000      -0.789141       -21.4736
   4   2.0000      -0.610670       -16.6172
   5   2.0000      -0.547098       -14.8873
   6   2.0000      -0.519145       -14.1266
   7   2.0000      -0.423410       -11.5216
   8   2.0000      -0.373065       -10.1516
   9   0.0000       0.085853         2.3362
  10   0.0000       0.112380         3.0580
  11   0.0000       0.141765         3.8576
  12   0.0000       0.179608         4.8874
  13   0.0000       0.184287         5.0147

MULLIKEN ATOMIC CHARGES
-----------------------
   0 C :    0.000063
   1 O :    0.000165
   2 H :   -0.000222
   3 H :    0.000000
   4 H :   -0.000007
   5 H :   -0.000008
   6 C :   -0.166483
   7 O :   -0.479130
   8 H :    0.318225
   9 H :    0.104216
  10 H :    0.107228
  11 H :    0.115951
Sum of atomic charges:    0.0000000

LOEWDIN ATOMIC CHARGES
----------------------
   0 C :   -0.000146
   1 O :   -0.001643
   2 H :   -0.000591
   3 H :   -0.000008
   4 H :   -0.000003
   5 H :   -0.000005
   6 C :   -0.395643
   7 O :   -0.085031
   8 H :    0.174975
   9 H :    0.094871
  10 H :    0.092229
  11 H :    0.120996

  Mayer bond orders larger than 0.1
B(  6-C ,  7-O ) :   1.0000 B(  6-C ,  9-H ) :   0.9862 B(  6-C , 10-H ) :   0.9728
B(  6-C , 11-H ) :   0.9665 B(  7-O ,  8-H ) :   0.8951

Dispersion correction           -0.000244508
FINAL SINGLE POINT ENERGY      -115.730593801240

DIPOLE MOMENT
-------------
                                X             Y             Z
Electronic contribution:     -0.94870      -0.31525      -1.50560
Nuclear contribution   :      1.61651       0.54699       1.51416
                        -----------------------------------------
Total Dipole Moment    :      0.66781       0.23174       0.00856
                        -----------------------------------------
Magnitude (a.u.)       :      0.70693
Magnitude (Debye)      :      1.79687

Rotational constants in cm-1:     4.130804     0.830684     0.803186
Rotational constants in MHz : 123838.390020 24903.281903 24078.916404

                             ****ORCA TERMINATED NORMALLY****
TOTAL RUN TIME: 0 days 0 hours 0 minutes 43 seconds 524 msec
