                         Program Version 4.1.2  - RELEASE  -
|  1> #Run DFT-D3 single point of the dimer
|  2> ! wB97X-D3 def2-TZVP TIGHTSCF CHELPG PMODEL PAL8
|  3>
|  4> %base "15-0_DFT_AB"
|  5>
|  6> %scf
|  7> MaxIter 1000
|  8> end
|  9>
| 10> * xyz 0 1
| 11>   C                      -6.481891            -7.877271            7.250222
| 12>   O                      -6.198547            -6.565036            6.837370
| 13>   H                      -6.806889            -6.005382            7.336781
| 14>   H                      -7.552956            -8.073217            7.112625
| 15>   H                      -5.784904            -8.580147            6.772301
| 16>   H                      -6.373916            -7.930089            8.316778
| 17>   C                      -10.695807           -6.649651            4.959832
| 18>   O                      -11.428309           -5.754532            5.794819
| 19>   H                      -12.313601           -5.589736            5.453743
| 20>   H                      -11.365032           -7.374430            4.521126
| 21>   H                      -10.312134           -6.161509            4.072612
| 22>   H                      -9.801205            -7.105240            5.391306
| 23> *
| 24>
| 25> #Run DFT-D3 single point of the molecule with dimer basis set
| 26> $new_job
| 27> %base "15-0_DFT_A"
| 28> ! wB97X-D3 def2-TZVP TIGHTSCF CHELPG PMODEL
| 29>
| 30> %scf
| 31> MaxIter 1000
| 32> end
| 33>
| 34> * xyz 0 1
| 35>   C                      -6.481891            -7.877271            7.250222
| 36>   O                      -6.198547            -6.565036            6.837370
| 37>   H                      -6.806889            -6.005382            7.336781
| 38>   H                      -7.552956            -8.073217            7.112625
| 39>   H                      -5.784904            -8.580147            6.772301
| 40>   H                      -6.373916            -7.930089            8.316778
| 41>   C                    : -10.695807           -6.649651            4.959832
| 42>   O                    : -11.428309           -5.754532            5.794819
| 43>   H                    : -12.313601           -5.589736            5.453743
| 44>   H                    : -11.365032           -7.374430            4.521126
| 45>   H                    : -10.312134           -6.161509            4.072612
| 46>   H                    : -9.801205            -7.105240            5.391306
| 47> *
| 48>
| 49> #Run DFT-D3 single point of the particle with dimer basis set
| 50> $new_job
| 51> %base "15-0_DFT_B"
| 52> ! wB97X-D3 def2-TZVP TIGHTSCF CHELPG PMODEL
| 53>
| 54> %scf
| 55> MaxIter 1000
| 56> end
| 57>
| 58> * xyz 0 1
| 59>   C                    : -6.481891            -7.877271            7.250222
| 60>   O                    : -6.198547            -6.565036            6.837370
| 61>   H                    : -6.806889            -6.005382            7.336781
| 62>   H                    : -7.552956            -8.073217            7.112625
| 63>   H                    : -5.784904            -8.580147            6.772301
| 64>   H                    : -6.373916            -7.930089            8.316778
| 65>   C                      -10.695807           -6.649651            4.959832
| 66>   O                      -11.428309           -5.754532            5.794819
| 67>   H                      -12.313601           -5.589736            5.453743
| 68>   H                      -11.365032           -7.374430            4.521126
| 69>   H                      -10.312134           -6.161509            4.072612
| 70>   H                      -9.801205            -7.105240            5.391306
| 71> *
| 72>
| 73>                          ****END OF INPUT****
 Total Charge           Charge          ....    0
 Multiplicity           Mult            ....    1
 Number of Electrons    NEL             ....   36
Dispersion correction           -0.000918825
FINAL SINGLE POINT ENERGY      -231.464985390031
Dispersion correction           -0.000206335
FINAL SINGLE POINT ENERGY      -115.733163067481

CARTESIAN COORDINATES (ANGSTROEM)
---------------------------------
  C     -6.481891   -7.877271    7.250222
  O     -6.198547   -6.565036    6.837370
  H     -6.806889   -6.005382    7.336781
  H     -7.552956   -8.073217    7.112625
  H     -5.784904   -8.580147    6.772301
  H     -6.373916   -7.930089    8.316778
  C    -10.695807   -6.649651    4.959832
  O    -11.428309   -5.754532    5.794819
  H    -12.313601   -5.589736    5.453743
  H    -11.365032   -7.374430    4.521126
  H    -10.312134   -6.161509    4.072612
  H     -9.801205   -7.105240    5.391306

 Multiplicity           Mult            ....    1
 Number of Electrons    NEL             ....   18
 Basis Dimension        Dim             ....  172

ORBITAL ENERGIES
----------------

  NO   OCC          E(Eh)            E(eV)
   0   2.0000     -19.229672      -523.2660
   1   2.0000     -10.311866      -280.6001
   2   2.0000      -1.129339       -30.7309
   3   2.0000      -0.801085       -21.7986
   4   2.0000      -0.613236       -16.6870
   5   2.0000      -0.539796       -14.6886
   6   2.0000      -0.526073       -14.3152
   7   2.0000      -0.432731       -11.7752
   8   2.0000      -0.369645       -10.0585
   9   0.0000       0.087457         2.3798
  10   0.0000       0.115280         3.1369
  11   0.0000       0.150509         4.0955
  12   0.0000       0.168581         4.5873
  13   0.0000       0.187179         5.0934

MULLIKEN ATOMIC CHARGES
-----------------------
   0 C :   -0.000372
   1 O :    0.000009
   2 H :    0.000024
   3 H :    0.000404
   4 H :    0.000012
   5 H :    0.000008
   6 C :   -0.167630
   7 O :   -0.482737
   8 H :    0.319082
   9 H :    0.105896
  10 H :    0.099155
  11 H :    0.126150
Sum of atomic charges:   -0.0000000

LOEWDIN ATOMIC CHARGES
----------------------
   0 C :   -0.000392
   1 O :   -0.000015
   2 H :   -0.000035
   3 H :   -0.000782
   4 H :   -0.000001
   5 H :   -0.000002
   6 C :   -0.375795
   7 O :   -0.088664
   8 H :    0.170239
   9 H :    0.094058
  10 H :    0.092268
  11 H :    0.109120

  Mayer bond orders larger than 0.1
B(  6-C ,  7-O ) :   1.0027 B(  6-C ,  9-H ) :   0.9862 B(  6-C , 10-H ) :   0.9756
B(  6-C , 11-H ) :   0.9703 B(  7-O ,  8-H ) :   0.8939

Dispersion correction           -0.000253515
FINAL SINGLE POINT ENERGY      -115.730752815941

DIPOLE MOMENT
-------------
                                X             Y             Z
Electronic contribution:     -0.80937       1.10393       1.30057
Nuclear contribution   :      0.54030      -1.36925      -1.88670
                        -----------------------------------------
Total Dipole Moment    :     -0.26907      -0.26532      -0.58613
                        -----------------------------------------
Magnitude (a.u.)       :      0.69738
Magnitude (Debye)      :      1.77261

Rotational constants in cm-1:     4.520076     0.813320     0.775413
Rotational constants in MHz : 135508.456836 24382.720728 23246.285477

                             ****ORCA TERMINATED NORMALLY****
TOTAL RUN TIME: 0 days 0 hours 0 minutes 51 seconds 837 msec
