                         Program Version 4.1.2  - RELEASE  -
|  1> #Run DFT-D3 single point of the dimer
|  2> ! wB97X-D3 def2-TZVP TIGHTSCF CHELPG PMODEL PAL8
|  3>
|  4> %base "8-70_DFT_AB"
|  5>
|  6> %scf
|  7> MaxIter 1000
|  8> end
|  9>
| 10> * xyz 0 1
| 11>   C                      3.247449             0.489047             6.955197
| 12>   O                      3.339960             1.502602             5.982111
| 13>   H                      2.459960             1.640455             5.585835
| 14>   H                      2.534463             0.868375             7.717436
| 15>   H                      2.934831             -0.454493            6.529917
| 16>   H                      4.259433             0.461948             7.314150
| 17>   C                      3.249225             3.038504             10.023126
| 18>   O                      1.995367             2.482952             9.742321
| 19>   H                      2.069505             1.547390             10.004658
| 20>   H                      3.385172             3.935449             9.501430
| 21>   H                      3.374864             3.187775             11.147714
| 22>   H                      4.066608             2.405667             9.708746
| 23> *
| 24>
| 25> #Run DFT-D3 single point of the molecule with dimer basis set
| 26> $new_job
| 27> %base "8-70_DFT_A"
| 28> ! wB97X-D3 def2-TZVP TIGHTSCF CHELPG PMODEL
| 29>
| 30> %scf
| 31> MaxIter 1000
| 32> end
| 33>
| 34> * xyz 0 1
| 35>   C                      3.247449             0.489047             6.955197
| 36>   O                      3.339960             1.502602             5.982111
| 37>   H                      2.459960             1.640455             5.585835
| 38>   H                      2.534463             0.868375             7.717436
| 39>   H                      2.934831             -0.454493            6.529917
| 40>   H                      4.259433             0.461948             7.314150
| 41>   C                    : 3.249225             3.038504             10.023126
| 42>   O                    : 1.995367             2.482952             9.742321
| 43>   H                    : 2.069505             1.547390             10.004658
| 44>   H                    : 3.385172             3.935449             9.501430
| 45>   H                    : 3.374864             3.187775             11.147714
| 46>   H                    : 4.066608             2.405667             9.708746
| 47> *
| 48>
| 49> #Run DFT-D3 single point of the particle with dimer basis set
| 50> $new_job
| 51> %base "8-70_DFT_B"
| 52> ! wB97X-D3 def2-TZVP TIGHTSCF CHELPG PMODEL
| 53>
| 54> %scf
| 55> MaxIter 1000
| 56> end
| 57>
| 58> * xyz 0 1
| 59>   C                    : 3.247449             0.489047             6.955197
| 60>   O                    : 3.339960             1.502602             5.982111
| 61>   H                    : 2.459960             1.640455             5.585835
| 62>   H                    : 2.534463             0.868375             7.717436
| 63>   H                    : 2.934831             -0.454493            6.529917
| 64>   H                    : 4.259433             0.461948             7.314150
| 65>   C                      3.249225             3.038504             10.023126
| 66>   O                      1.995367             2.482952             9.742321
| 67>   H                      2.069505             1.547390             10.004658
| 68>   H                      3.385172             3.935449             9.501430
| 69>   H                      3.374864             3.187775             11.147714
| 70>   H                      4.066608             2.405667             9.708746
| 71> *
| 72>
| 73>                          ****END OF INPUT****
 Total Charge           Charge          ....    0
 Multiplicity           Mult            ....    1
 Number of Electrons    NEL             ....   36
Dispersion correction           -0.001740602
FINAL SINGLE POINT ENERGY      -231.468907710687
Dispersion correction           -0.000215506
FINAL SINGLE POINT ENERGY      -115.733583886629

CARTESIAN COORDINATES (ANGSTROEM)
---------------------------------
  C      3.247449    0.489047    6.955197
  O      3.339960    1.502602    5.982111
  H      2.459960    1.640455    5.585835
  H      2.534463    0.868375    7.717436
  H      2.934831   -0.454493    6.529917
  H      4.259433    0.461948    7.314150
  C      3.249225    3.038504   10.023126
  O      1.995367    2.482952    9.742321
  H      2.069505    1.547390   10.004658
  H      3.385172    3.935449    9.501430
  H      3.374864    3.187775   11.147714
  H      4.066608    2.405667    9.708746

 Multiplicity           Mult            ....    1
 Number of Electrons    NEL             ....   18
 Basis Dimension        Dim             ....  172

ORBITAL ENERGIES
----------------

  NO   OCC          E(Eh)            E(eV)
   0   2.0000     -19.234131      -523.3873
   1   2.0000     -10.310003      -280.5494
   2   2.0000      -1.141173       -31.0529
   3   2.0000      -0.795078       -21.6352
   4   2.0000      -0.613549       -16.6955
   5   2.0000      -0.543778       -14.7969
   6   2.0000      -0.529366       -14.4048
   7   2.0000      -0.439108       -11.9487
   8   2.0000      -0.372375       -10.1328
   9   0.0000       0.084553         2.3008
  10   0.0000       0.125433         3.4132
  11   0.0000       0.151338         4.1181
  12   0.0000       0.166934         4.5425
  13   0.0000       0.193173         5.2565

MULLIKEN ATOMIC CHARGES
-----------------------
   0 C :    0.010909
   1 O :   -0.000551
   2 H :   -0.000316
   3 H :   -0.021651
   4 H :   -0.000419
   5 H :   -0.000561
   6 C :   -0.172640
   7 O :   -0.459647
   8 H :    0.319706
   9 H :    0.120582
  10 H :    0.098399
  11 H :    0.106189
Sum of atomic charges:    0.0000000

LOEWDIN ATOMIC CHARGES
----------------------
   0 C :   -0.003905
   1 O :   -0.000038
   2 H :   -0.000075
   3 H :   -0.010965
   4 H :   -0.000030
   5 H :   -0.000508
   6 C :   -0.396151
   7 O :   -0.061961
   8 H :    0.182028
   9 H :    0.096869
  10 H :    0.102606
  11 H :    0.092130

  Mayer bond orders larger than 0.1
B(  6-C ,  7-O ) :   0.9996 B(  6-C ,  9-H ) :   0.9759 B(  6-C , 10-H ) :   0.9765
B(  6-C , 11-H ) :   0.9787 B(  7-O ,  8-H ) :   0.8957

Dispersion correction           -0.000227060
FINAL SINGLE POINT ENERGY      -115.733765967322

DIPOLE MOMENT
-------------
                                X             Y             Z
Electronic contribution:     -1.71937      -0.51401      -0.50472
Nuclear contribution   :      2.25758       0.15349       0.74543
                        -----------------------------------------
Total Dipole Moment    :      0.53821      -0.36052       0.24071
                        -----------------------------------------
Magnitude (a.u.)       :      0.69108
Magnitude (Debye)      :      1.75658

Rotational constants in cm-1:     4.276939     0.845224     0.818332
Rotational constants in MHz : 128219.405312 25339.187787 24532.989481

                             ****ORCA TERMINATED NORMALLY****
TOTAL RUN TIME: 0 days 0 hours 0 minutes 47 seconds 104 msec
