                         Program Version 4.1.2  - RELEASE  -
|  1> #Run DFT-D3 single point of the dimer
|  2> ! wB97X-D3 def2-TZVP TIGHTSCF CHELPG PMODEL PAL8
|  3>
|  4> %base "3-182_DFT_AB"
|  5>
|  6> %scf
|  7> MaxIter 1000
|  8> end
|  9>
| 10> * xyz 0 1
| 11>   C                      2.406520             9.917815             5.748108
| 12>   O                      3.557760             10.698385            5.931662
| 13>   H                      3.277306             11.573894            6.108458
| 14>   H                      2.720529             9.138909             5.119411
| 15>   H                      1.989477             9.508668             6.700628
| 16>   H                      1.706266             10.532903            5.307693
| 17>   C                      5.047431             11.493174            9.649811
| 18>   O                      4.819667             10.563582            8.597940
| 19>   H                      3.923183             10.205155            8.649925
| 20>   H                      5.873638             12.126344            9.378140
| 21>   H                      4.129296             12.240879            9.732500
| 22>   H                      5.280151             11.083046            10.628110
| 23> *
| 24>
| 25> #Run DFT-D3 single point of the molecule with dimer basis set
| 26> $new_job
| 27> %base "3-182_DFT_A"
| 28> ! wB97X-D3 def2-TZVP TIGHTSCF CHELPG PMODEL
| 29>
| 30> %scf
| 31> MaxIter 1000
| 32> end
| 33>
| 34> * xyz 0 1
| 35>   C                      2.406520             9.917815             5.748108
| 36>   O                      3.557760             10.698385            5.931662
| 37>   H                      3.277306             11.573894            6.108458
| 38>   H                      2.720529             9.138909             5.119411
| 39>   H                      1.989477             9.508668             6.700628
| 40>   H                      1.706266             10.532903            5.307693
| 41>   C                    : 5.047431             11.493174            9.649811
| 42>   O                    : 4.819667             10.563582            8.597940
| 43>   H                    : 3.923183             10.205155            8.649925
| 44>   H                    : 5.873638             12.126344            9.378140
| 45>   H                    : 4.129296             12.240879            9.732500
| 46>   H                    : 5.280151             11.083046            10.628110
| 47> *
| 48>
| 49> #Run DFT-D3 single point of the particle with dimer basis set
| 50> $new_job
| 51> %base "3-182_DFT_B"
| 52> ! wB97X-D3 def2-TZVP TIGHTSCF CHELPG PMODEL
| 53>
| 54> %scf
| 55> MaxIter 1000
| 56> end
| 57>
| 58> * xyz 0 1
| 59>   C                    : 2.406520             9.917815             5.748108
| 60>   O                    : 3.557760             10.698385            5.931662
| 61>   H                    : 3.277306             11.573894            6.108458
| 62>   H                    : 2.720529             9.138909             5.119411
| 63>   H                    : 1.989477             9.508668             6.700628
| 64>   H                    : 1.706266             10.532903            5.307693
| 65>   C                      5.047431             11.493174            9.649811
| 66>   O                      4.819667             10.563582            8.597940
| 67>   H                      3.923183             10.205155            8.649925
| 68>   H                      5.873638             12.126344            9.378140
| 69>   H                      4.129296             12.240879            9.732500
| 70>   H                      5.280151             11.083046            10.628110
| 71> *
| 72>
| 73>                          ****END OF INPUT****
 Total Charge           Charge          ....    0
 Multiplicity           Mult            ....    1
 Number of Electrons    NEL             ....   36
Dispersion correction           -0.001636819
FINAL SINGLE POINT ENERGY      -231.459167618598
Dispersion correction           -0.000212231
FINAL SINGLE POINT ENERGY      -115.730455358754

CARTESIAN COORDINATES (ANGSTROEM)
---------------------------------
  C      2.406520    9.917815    5.748108
  O      3.557760   10.698385    5.931662
  H      3.277306   11.573894    6.108458
  H      2.720529    9.138909    5.119411
  H      1.989477    9.508668    6.700628
  H      1.706266   10.532903    5.307693
  C      5.047431   11.493174    9.649811
  O      4.819667   10.563582    8.597940
  H      3.923183   10.205155    8.649925
  H      5.873638   12.126344    9.378140
  H      4.129296   12.240879    9.732500
  H      5.280151   11.083046   10.628110

 Multiplicity           Mult            ....    1
 Number of Electrons    NEL             ....   18
 Basis Dimension        Dim             ....  172

ORBITAL ENERGIES
----------------

  NO   OCC          E(Eh)            E(eV)
   0   2.0000     -19.233691      -523.3754
   1   2.0000     -10.321700      -280.8677
   2   2.0000      -1.132637       -30.8206
   3   2.0000      -0.794468       -21.6186
   4   2.0000      -0.607155       -16.5215
   5   2.0000      -0.538623       -14.6567
   6   2.0000      -0.527413       -14.3516
   7   2.0000      -0.427181       -11.6242
   8   2.0000      -0.376569       -10.2470
   9   0.0000       0.080868         2.2005
  10   0.0000       0.127489         3.4692
  11   0.0000       0.149437         4.0664
  12   0.0000       0.173460         4.7201
  13   0.0000       0.192817         5.2468

MULLIKEN ATOMIC CHARGES
-----------------------
   0 C :   -0.002337
   1 O :   -0.001470
   2 H :   -0.002573
   3 H :    0.000112
   4 H :   -0.000221
   5 H :    0.000217
   6 C :   -0.169537
   7 O :   -0.473270
   8 H :    0.321321
   9 H :    0.126019
  10 H :    0.094563
  11 H :    0.107177
Sum of atomic charges:   -0.0000000

LOEWDIN ATOMIC CHARGES
----------------------
   0 C :   -0.002570
   1 O :   -0.008555
   2 H :   -0.003352
   3 H :   -0.000049
   4 H :   -0.000709
   5 H :   -0.000024
   6 C :   -0.387106
   7 O :   -0.074798
   8 H :    0.173312
   9 H :    0.103644
  10 H :    0.108479
  11 H :    0.091728

  Mayer bond orders larger than 0.1
B(  6-C ,  7-O ) :   1.0032 B(  6-C ,  9-H ) :   0.9754 B(  6-C , 10-H ) :   0.9809
B(  6-C , 11-H ) :   0.9639 B(  7-O ,  8-H ) :   0.8936

Dispersion correction           -0.000273082
FINAL SINGLE POINT ENERGY      -115.731659394540

DIPOLE MOMENT
-------------
                                X             Y             Z
Electronic contribution:     -0.05991      -1.33291      -1.33995
Nuclear contribution   :     -0.38100       1.47491       1.79059
                        -----------------------------------------
Total Dipole Moment    :     -0.44091       0.14200       0.45063
                        -----------------------------------------
Magnitude (a.u.)       :      0.64625
Magnitude (Debye)      :      1.64264

Rotational constants in cm-1:     4.215811     0.809402     0.785032
Rotational constants in MHz : 126386.833544 24265.252612 23534.666039

                             ****ORCA TERMINATED NORMALLY****
TOTAL RUN TIME: 0 days 0 hours 5 minutes 55 seconds 411 msec
