                         Program Version 4.1.2  - RELEASE  -
|  1> #Run DFT-D3 single point of the dimer
|  2> ! wB97X-D3 def2-TZVP TIGHTSCF CHELPG PMODEL PAL8
|  3>
|  4> %base "19-2_DFT_AB"
|  5>
|  6> %scf
|  7> MaxIter 1000
|  8> end
|  9>
| 10> * xyz 0 1
| 11>   C                      4.218830             -7.367409            10.092198
| 12>   O                      4.342444             -8.557732            10.803951
| 13>   H                      4.070487             -8.609899            11.692965
| 14>   H                      3.801504             -7.551489            9.084576
| 15>   H                      3.484433             -6.691170            10.435203
| 16>   H                      5.199852             -6.817999            10.009492
| 17>   C                      5.268727             -3.063159            7.449425
| 18>   O                      6.666113             -3.106608            7.276511
| 19>   H                      6.971623             -4.013655            7.312842
| 20>   H                      4.745337             -3.110422            6.493935
| 21>   H                      4.932925             -3.893901            8.091872
| 22>   H                      5.027289             -2.137624            7.948754
| 23> *
| 24>
| 25> #Run DFT-D3 single point of the molecule with dimer basis set
| 26> $new_job
| 27> %base "19-2_DFT_A"
| 28> ! wB97X-D3 def2-TZVP TIGHTSCF CHELPG PMODEL
| 29>
| 30> %scf
| 31> MaxIter 1000
| 32> end
| 33>
| 34> * xyz 0 1
| 35>   C                      4.218830             -7.367409            10.092198
| 36>   O                      4.342444             -8.557732            10.803951
| 37>   H                      4.070487             -8.609899            11.692965
| 38>   H                      3.801504             -7.551489            9.084576
| 39>   H                      3.484433             -6.691170            10.435203
| 40>   H                      5.199852             -6.817999            10.009492
| 41>   C                    : 5.268727             -3.063159            7.449425
| 42>   O                    : 6.666113             -3.106608            7.276511
| 43>   H                    : 6.971623             -4.013655            7.312842
| 44>   H                    : 4.745337             -3.110422            6.493935
| 45>   H                    : 4.932925             -3.893901            8.091872
| 46>   H                    : 5.027289             -2.137624            7.948754
| 47> *
| 48>
| 49> #Run DFT-D3 single point of the particle with dimer basis set
| 50> $new_job
| 51> %base "19-2_DFT_B"
| 52> ! wB97X-D3 def2-TZVP TIGHTSCF CHELPG PMODEL
| 53>
| 54> %scf
| 55> MaxIter 1000
| 56> end
| 57>
| 58> * xyz 0 1
| 59>   C                    : 4.218830             -7.367409            10.092198
| 60>   O                    : 4.342444             -8.557732            10.803951
| 61>   H                    : 4.070487             -8.609899            11.692965
| 62>   H                    : 3.801504             -7.551489            9.084576
| 63>   H                    : 3.484433             -6.691170            10.435203
| 64>   H                    : 5.199852             -6.817999            10.009492
| 65>   C                      5.268727             -3.063159            7.449425
| 66>   O                      6.666113             -3.106608            7.276511
| 67>   H                      6.971623             -4.013655            7.312842
| 68>   H                      4.745337             -3.110422            6.493935
| 69>   H                      4.932925             -3.893901            8.091872
| 70>   H                      5.027289             -2.137624            7.948754
| 71> *
| 72>
| 73>                          ****END OF INPUT****
 Total Charge           Charge          ....    0
 Multiplicity           Mult            ....    1
 Number of Electrons    NEL             ....   36
Dispersion correction           -0.000826210
FINAL SINGLE POINT ENERGY      -231.464994769870
Dispersion correction           -0.000273839
FINAL SINGLE POINT ENERGY      -115.728189346494

CARTESIAN COORDINATES (ANGSTROEM)
---------------------------------
  C      4.218830   -7.367409   10.092198
  O      4.342444   -8.557732   10.803951
  H      4.070487   -8.609899   11.692965
  H      3.801504   -7.551489    9.084576
  H      3.484433   -6.691170   10.435203
  H      5.199852   -6.817999   10.009492
  C      5.268727   -3.063159    7.449425
  O      6.666113   -3.106608    7.276511
  H      6.971623   -4.013655    7.312842
  H      4.745337   -3.110422    6.493935
  H      4.932925   -3.893901    8.091872
  H      5.027289   -2.137624    7.948754

 Multiplicity           Mult            ....    1
 Number of Electrons    NEL             ....   18
 Basis Dimension        Dim             ....  172

ORBITAL ENERGIES
----------------

  NO   OCC          E(Eh)            E(eV)
   0   2.0000     -19.226654      -523.1839
   1   2.0000     -10.310911      -280.5741
   2   2.0000      -1.135790       -30.9064
   3   2.0000      -0.795935       -21.6585
   4   2.0000      -0.611182       -16.6311
   5   2.0000      -0.543774       -14.7968
   6   2.0000      -0.528580       -14.3834
   7   2.0000      -0.430319       -11.7096
   8   2.0000      -0.372556       -10.1378
   9   0.0000       0.075823         2.0632
  10   0.0000       0.114293         3.1101
  11   0.0000       0.148184         4.0323
  12   0.0000       0.166834         4.5398
  13   0.0000       0.191380         5.2077

MULLIKEN ATOMIC CHARGES
-----------------------
   0 C :   -0.000085
   1 O :    0.000000
   2 H :    0.000000
   3 H :   -0.000069
   4 H :   -0.000092
   5 H :    0.000145
   6 C :   -0.160370
   7 O :   -0.477582
   8 H :    0.315021
   9 H :    0.102183
  10 H :    0.102300
  11 H :    0.118550
Sum of atomic charges:    0.0000000

LOEWDIN ATOMIC CHARGES
----------------------
   0 C :   -0.000380
   1 O :   -0.000002
   2 H :   -0.000001
   3 H :   -0.000043
   4 H :   -0.000056
   5 H :   -0.000133
   6 C :   -0.384686
   7 O :   -0.076151
   8 H :    0.166085
   9 H :    0.094267
  10 H :    0.097549
  11 H :    0.103552

  Mayer bond orders larger than 0.1
B(  6-C ,  7-O ) :   1.0017 B(  6-C ,  9-H ) :   0.9725 B(  6-C , 10-H ) :   0.9839
B(  6-C , 11-H ) :   0.9754 B(  7-O ,  8-H ) :   0.9002

Dispersion correction           -0.000239065
FINAL SINGLE POINT ENERGY      -115.736515719534

DIPOLE MOMENT
-------------
                                X             Y             Z
Electronic contribution:      1.75560       0.08935      -0.25394
Nuclear contribution   :     -2.11439      -0.65903       0.36346
                        -----------------------------------------
Total Dipole Moment    :     -0.35879      -0.56968       0.10952
                        -----------------------------------------
Magnitude (a.u.)       :      0.68210
Magnitude (Debye)      :      1.73376

Rotational constants in cm-1:     4.300155     0.837928     0.809530
Rotational constants in MHz : 128915.398174 25120.446694 24269.093735

                             ****ORCA TERMINATED NORMALLY****
TOTAL RUN TIME: 0 days 0 hours 0 minutes 45 seconds 662 msec
