                         Program Version 4.1.2  - RELEASE  -
|  1> #Run DFT-D3 single point of the dimer
|  2> ! wB97X-D3 def2-TZVP TIGHTSCF CHELPG PMODEL PAL8
|  3>
|  4> %base "13-79_DFT_AB"
|  5>
|  6> %scf
|  7> MaxIter 1000
|  8> end
|  9>
| 10> * xyz 0 1
| 11>   C                      -2.473489            2.754382             -3.587635
| 12>   O                      -2.443331            4.137999             -3.468418
| 13>   H                      -2.406738            4.647574             -4.288539
| 14>   H                      -1.822514            2.438176             -4.417710
| 15>   H                      -2.095098            2.370439             -2.644488
| 16>   H                      -3.458589            2.327411             -3.868728
| 17>   C                      -4.012360            -0.632223            -6.223825
| 18>   O                      -2.965257            -0.703320            -7.190753
| 19>   H                      -2.852629            0.189757             -7.475184
| 20>   H                      -4.895015            -0.107006            -6.552738
| 21>   H                      -4.281098            -1.627161            -5.907874
| 22>   H                      -3.664603            -0.197199            -5.263075
| 23> *
| 24>
| 25> #Run DFT-D3 single point of the molecule with dimer basis set
| 26> $new_job
| 27> %base "13-79_DFT_A"
| 28> ! wB97X-D3 def2-TZVP TIGHTSCF CHELPG PMODEL
| 29>
| 30> %scf
| 31> MaxIter 1000
| 32> end
| 33>
| 34> * xyz 0 1
| 35>   C                      -2.473489            2.754382             -3.587635
| 36>   O                      -2.443331            4.137999             -3.468418
| 37>   H                      -2.406738            4.647574             -4.288539
| 38>   H                      -1.822514            2.438176             -4.417710
| 39>   H                      -2.095098            2.370439             -2.644488
| 40>   H                      -3.458589            2.327411             -3.868728
| 41>   C                    : -4.012360            -0.632223            -6.223825
| 42>   O                    : -2.965257            -0.703320            -7.190753
| 43>   H                    : -2.852629            0.189757             -7.475184
| 44>   H                    : -4.895015            -0.107006            -6.552738
| 45>   H                    : -4.281098            -1.627161            -5.907874
| 46>   H                    : -3.664603            -0.197199            -5.263075
| 47> *
| 48>
| 49> #Run DFT-D3 single point of the particle with dimer basis set
| 50> $new_job
| 51> %base "13-79_DFT_B"
| 52> ! wB97X-D3 def2-TZVP TIGHTSCF CHELPG PMODEL
| 53>
| 54> %scf
| 55> MaxIter 1000
| 56> end
| 57>
| 58> * xyz 0 1
| 59>   C                    : -2.473489            2.754382             -3.587635
| 60>   O                    : -2.443331            4.137999             -3.468418
| 61>   H                    : -2.406738            4.647574             -4.288539
| 62>   H                    : -1.822514            2.438176             -4.417710
| 63>   H                    : -2.095098            2.370439             -2.644488
| 64>   H                    : -3.458589            2.327411             -3.868728
| 65>   C                      -4.012360            -0.632223            -6.223825
| 66>   O                      -2.965257            -0.703320            -7.190753
| 67>   H                      -2.852629            0.189757             -7.475184
| 68>   H                      -4.895015            -0.107006            -6.552738
| 69>   H                      -4.281098            -1.627161            -5.907874
| 70>   H                      -3.664603            -0.197199            -5.263075
| 71> *
| 72>
| 73>                          ****END OF INPUT****
 Total Charge           Charge          ....    0
 Multiplicity           Mult            ....    1
 Number of Electrons    NEL             ....   36
Dispersion correction           -0.001101834
FINAL SINGLE POINT ENERGY      -231.468586350754
Dispersion correction           -0.000251151
FINAL SINGLE POINT ENERGY      -115.733419614379

CARTESIAN COORDINATES (ANGSTROEM)
---------------------------------
  C     -2.473489    2.754382   -3.587635
  O     -2.443331    4.137999   -3.468418
  H     -2.406738    4.647574   -4.288539
  H     -1.822514    2.438176   -4.417710
  H     -2.095098    2.370439   -2.644488
  H     -3.458589    2.327411   -3.868728
  C     -4.012360   -0.632223   -6.223825
  O     -2.965257   -0.703320   -7.190753
  H     -2.852629    0.189757   -7.475184
  H     -4.895015   -0.107006   -6.552738
  H     -4.281098   -1.627161   -5.907874
  H     -3.664603   -0.197199   -5.263075

 Multiplicity           Mult            ....    1
 Number of Electrons    NEL             ....   18
 Basis Dimension        Dim             ....  172

ORBITAL ENERGIES
----------------

  NO   OCC          E(Eh)            E(eV)
   0   2.0000     -19.231826      -523.3246
   1   2.0000     -10.312186      -280.6089
   2   2.0000      -1.138625       -30.9836
   3   2.0000      -0.798585       -21.7306
   4   2.0000      -0.610594       -16.6151
   5   2.0000      -0.541968       -14.7477
   6   2.0000      -0.524569       -14.2742
   7   2.0000      -0.441055       -12.0017
   8   2.0000      -0.375809       -10.2263
   9   0.0000       0.079592         2.1658
  10   0.0000       0.121066         3.2944
  11   0.0000       0.147114         4.0032
  12   0.0000       0.166463         4.5297
  13   0.0000       0.193253         5.2587

MULLIKEN ATOMIC CHARGES
-----------------------
   0 C :    0.000303
   1 O :    0.000015
   2 H :   -0.000002
   3 H :    0.000246
   4 H :    0.000025
   5 H :   -0.001134
   6 C :   -0.166688
   7 O :   -0.460401
   8 H :    0.310107
   9 H :    0.107122
  10 H :    0.114050
  11 H :    0.096357
Sum of atomic charges:   -0.0000000

LOEWDIN ATOMIC CHARGES
----------------------
   0 C :   -0.001285
   1 O :   -0.000009
   2 H :   -0.000002
   3 H :   -0.000187
   4 H :   -0.000021
   5 H :   -0.001492
   6 C :   -0.377976
   7 O :   -0.073993
   8 H :    0.159091
   9 H :    0.092718
  10 H :    0.104856
  11 H :    0.098300

  Mayer bond orders larger than 0.1
B(  6-C ,  7-O ) :   1.0075 B(  6-C ,  9-H ) :   0.9748 B(  6-C , 10-H ) :   0.9766
B(  6-C , 11-H ) :   0.9763 B(  7-O ,  8-H ) :   0.9065

Dispersion correction           -0.000243031
FINAL SINGLE POINT ENERGY      -115.734822554748

DIPOLE MOMENT
-------------
                                X             Y             Z
Electronic contribution:      1.31171      -0.20628      -1.35025
Nuclear contribution   :     -1.66241       0.77799       1.55582
                        -----------------------------------------
Total Dipole Moment    :     -0.35069       0.57172       0.20557
                        -----------------------------------------
Magnitude (a.u.)       :      0.70150
Magnitude (Debye)      :      1.78308

Rotational constants in cm-1:     4.382589     0.818581     0.791173
Rotational constants in MHz : 131386.706662 24540.447140 23718.778228

                             ****ORCA TERMINATED NORMALLY****
TOTAL RUN TIME: 0 days 0 hours 1 minutes 3 seconds 492 msec
