                         Program Version 4.1.2  - RELEASE  -
|  1> #Run DFT-D3 single point of the dimer
|  2> ! wB97X-D3 def2-TZVP TIGHTSCF CHELPG PMODEL PAL8
|  3>
|  4> %base "12-141_DFT_AB"
|  5>
|  6> %scf
|  7> MaxIter 1000
|  8> end
|  9>
| 10> * xyz 0 1
| 11>   C                      2.788778             7.113822             10.181854
| 12>   O                      3.801655             6.976364             9.220775
| 13>   H                      4.465584             6.400968             9.529224
| 14>   H                      2.109126             6.241315             10.280435
| 15>   H                      3.263922             7.233564             11.141851
| 16>   H                      2.128043             7.959936             9.959660
| 17>   C                      3.116415             9.494618             6.530826
| 18>   O                      3.287834             9.523754             7.967725
| 19>   H                      3.556932             8.624524             8.245668
| 20>   H                      4.026435             9.717809             6.046713
| 21>   H                      2.839763             8.464632             6.152085
| 22>   H                      2.406417             10.254568            6.109319
| 23> *
| 24>
| 25> #Run DFT-D3 single point of the molecule with dimer basis set
| 26> $new_job
| 27> %base "12-141_DFT_A"
| 28> ! wB97X-D3 def2-TZVP TIGHTSCF CHELPG PMODEL
| 29>
| 30> %scf
| 31> MaxIter 1000
| 32> end
| 33>
| 34> * xyz 0 1
| 35>   C                      2.788778             7.113822             10.181854
| 36>   O                      3.801655             6.976364             9.220775
| 37>   H                      4.465584             6.400968             9.529224
| 38>   H                      2.109126             6.241315             10.280435
| 39>   H                      3.263922             7.233564             11.141851
| 40>   H                      2.128043             7.959936             9.959660
| 41>   C                    : 3.116415             9.494618             6.530826
| 42>   O                    : 3.287834             9.523754             7.967725
| 43>   H                    : 3.556932             8.624524             8.245668
| 44>   H                    : 4.026435             9.717809             6.046713
| 45>   H                    : 2.839763             8.464632             6.152085
| 46>   H                    : 2.406417             10.254568            6.109319
| 47> *
| 48>
| 49> #Run DFT-D3 single point of the particle with dimer basis set
| 50> $new_job
| 51> %base "12-141_DFT_B"
| 52> ! wB97X-D3 def2-TZVP TIGHTSCF CHELPG PMODEL
| 53>
| 54> %scf
| 55> MaxIter 1000
| 56> end
| 57>
| 58> * xyz 0 1
| 59>   C                    : 2.788778             7.113822             10.181854
| 60>   O                    : 3.801655             6.976364             9.220775
| 61>   H                    : 4.465584             6.400968             9.529224
| 62>   H                    : 2.109126             6.241315             10.280435
| 63>   H                    : 3.263922             7.233564             11.141851
| 64>   H                    : 2.128043             7.959936             9.959660
| 65>   C                      3.116415             9.494618             6.530826
| 66>   O                      3.287834             9.523754             7.967725
| 67>   H                      3.556932             8.624524             8.245668
| 68>   H                      4.026435             9.717809             6.046713
| 69>   H                      2.839763             8.464632             6.152085
| 70>   H                      2.406417             10.254568            6.109319
| 71> *
| 72>
| 73>                          ****END OF INPUT****
 Total Charge           Charge          ....    0
 Multiplicity           Mult            ....    1
 Number of Electrons    NEL             ....   36
Dispersion correction           -0.001749618
FINAL SINGLE POINT ENERGY      -231.473946680460
Dispersion correction           -0.000238967
FINAL SINGLE POINT ENERGY      -115.734588311856

CARTESIAN COORDINATES (ANGSTROEM)
---------------------------------
  C      2.788778    7.113822   10.181854
  O      3.801655    6.976364    9.220775
  H      4.465584    6.400968    9.529224
  H      2.109126    6.241315   10.280435
  H      3.263922    7.233564   11.141851
  H      2.128043    7.959936    9.959660
  C      3.116415    9.494618    6.530826
  O      3.287834    9.523754    7.967725
  H      3.556932    8.624524    8.245668
  H      4.026435    9.717809    6.046713
  H      2.839763    8.464632    6.152085
  H      2.406417   10.254568    6.109319

 Multiplicity           Mult            ....    1
 Number of Electrons    NEL             ....   18
 Basis Dimension        Dim             ....  172

ORBITAL ENERGIES
----------------

  NO   OCC          E(Eh)            E(eV)
   0   2.0000     -19.235362      -523.4208
   1   2.0000     -10.319671      -280.8125
   2   2.0000      -1.124703       -30.6047
   3   2.0000      -0.795735       -21.6530
   4   2.0000      -0.603792       -16.4300
   5   2.0000      -0.533433       -14.5155
   6   2.0000      -0.526541       -14.3279
   7   2.0000      -0.436273       -11.8716
   8   2.0000      -0.374523       -10.1913
   9   0.0000       0.073280         1.9941
  10   0.0000       0.130315         3.5461
  11   0.0000       0.151429         4.1206
  12   0.0000       0.165378         4.5002
  13   0.0000       0.191272         5.2048

MULLIKEN ATOMIC CHARGES
-----------------------
   0 C :    0.000122
   1 O :   -0.001934
   2 H :   -0.000243
   3 H :    0.000225
   4 H :   -0.000257
   5 H :   -0.007987
   6 C :   -0.177295
   7 O :   -0.468347
   8 H :    0.317522
   9 H :    0.115005
  10 H :    0.100453
  11 H :    0.122736
Sum of atomic charges:   -0.0000000

LOEWDIN ATOMIC CHARGES
----------------------
   0 C :   -0.010408
   1 O :   -0.019147
   2 H :   -0.000935
   3 H :   -0.000085
   4 H :   -0.000167
   5 H :   -0.006503
   6 C :   -0.368316
   7 O :   -0.090543
   8 H :    0.193144
   9 H :    0.087044
  10 H :    0.102975
  11 H :    0.112942

  Mayer bond orders larger than 0.1
B(  6-C ,  7-O ) :   0.9917 B(  6-C ,  9-H ) :   0.9777 B(  6-C , 10-H ) :   0.9789
B(  6-C , 11-H ) :   0.9711 B(  7-O ,  8-H ) :   0.8979

Dispersion correction           -0.000267483
FINAL SINGLE POINT ENERGY      -115.730505072134

DIPOLE MOMENT
-------------
                                X             Y             Z
Electronic contribution:      0.14370       0.24696       1.88672
Nuclear contribution   :     -0.02167      -0.80595      -2.32894
                        -----------------------------------------
Total Dipole Moment    :      0.12203      -0.55899      -0.44222
                        -----------------------------------------
Magnitude (a.u.)       :      0.72313
Magnitude (Debye)      :      1.83806

Rotational constants in cm-1:     4.302307     0.795827     0.756614
Rotational constants in MHz : 128979.922751 23858.303492 22682.731398

                             ****ORCA TERMINATED NORMALLY****
TOTAL RUN TIME: 0 days 0 hours 1 minutes 16 seconds 381 msec
