                         Program Version 4.1.2  - RELEASE  -
|  1> #Run DFT-D3 single point of the dimer
|  2> ! wB97X-D3 def2-TZVP TIGHTSCF CHELPG PMODEL PAL8
|  3>
|  4> %base "20-188_DFT_AB"
|  5>
|  6> %scf
|  7> MaxIter 1000
|  8> end
|  9>
| 10> * xyz 0 1
| 11>   C                      3.758785             10.546904            -2.137907
| 12>   O                      5.099470             10.796899            -2.136132
| 13>   H                      5.331231             10.154781            -1.497702
| 14>   H                      3.252694             10.653529            -1.203456
| 15>   H                      3.261126             11.286407            -2.828045
| 16>   H                      3.551247             9.573934             -2.549523
| 17>   C                      5.718998             8.214934             1.512964
| 18>   O                      5.060759             8.744820             0.379311
| 19>   H                      4.132313             8.465001             0.389582
| 20>   H                      6.533830             8.895619             1.891840
| 21>   H                      5.039414             8.171224             2.347437
| 22>   H                      6.088976             7.231516             1.309819
| 23> *
| 24>
| 25> #Run DFT-D3 single point of the molecule with dimer basis set
| 26> $new_job
| 27> %base "20-188_DFT_A"
| 28> ! wB97X-D3 def2-TZVP TIGHTSCF CHELPG PMODEL
| 29>
| 30> %scf
| 31> MaxIter 1000
| 32> end
| 33>
| 34> * xyz 0 1
| 35>   C                      3.758785             10.546904            -2.137907
| 36>   O                      5.099470             10.796899            -2.136132
| 37>   H                      5.331231             10.154781            -1.497702
| 38>   H                      3.252694             10.653529            -1.203456
| 39>   H                      3.261126             11.286407            -2.828045
| 40>   H                      3.551247             9.573934             -2.549523
| 41>   C                    : 5.718998             8.214934             1.512964
| 42>   O                    : 5.060759             8.744820             0.379311
| 43>   H                    : 4.132313             8.465001             0.389582
| 44>   H                    : 6.533830             8.895619             1.891840
| 45>   H                    : 5.039414             8.171224             2.347437
| 46>   H                    : 6.088976             7.231516             1.309819
| 47> *
| 48>
| 49> #Run DFT-D3 single point of the particle with dimer basis set
| 50> $new_job
| 51> %base "20-188_DFT_B"
| 52> ! wB97X-D3 def2-TZVP TIGHTSCF CHELPG PMODEL
| 53>
| 54> %scf
| 55> MaxIter 1000
| 56> end
| 57>
| 58> * xyz 0 1
| 59>   C                    : 3.758785             10.546904            -2.137907
| 60>   O                    : 5.099470             10.796899            -2.136132
| 61>   H                    : 5.331231             10.154781            -1.497702
| 62>   H                    : 3.252694             10.653529            -1.203456
| 63>   H                    : 3.261126             11.286407            -2.828045
| 64>   H                    : 3.551247             9.573934             -2.549523
| 65>   C                      5.718998             8.214934             1.512964
| 66>   O                      5.060759             8.744820             0.379311
| 67>   H                      4.132313             8.465001             0.389582
| 68>   H                      6.533830             8.895619             1.891840
| 69>   H                      5.039414             8.171224             2.347437
| 70>   H                      6.088976             7.231516             1.309819
| 71> *
| 72>
| 73>                          ****END OF INPUT****
 Total Charge           Charge          ....    0
 Multiplicity           Mult            ....    1
 Number of Electrons    NEL             ....   36
Dispersion correction           -0.001659662
FINAL SINGLE POINT ENERGY      -231.469212347527
Dispersion correction           -0.000192609
FINAL SINGLE POINT ENERGY      -115.728108481040

CARTESIAN COORDINATES (ANGSTROEM)
---------------------------------
  C      3.758785   10.546904   -2.137907
  O      5.099470   10.796899   -2.136132
  H      5.331231   10.154781   -1.497702
  H      3.252694   10.653529   -1.203456
  H      3.261126   11.286407   -2.828045
  H      3.551247    9.573934   -2.549523
  C      5.718998    8.214934    1.512964
  O      5.060759    8.744820    0.379311
  H      4.132313    8.465001    0.389582
  H      6.533830    8.895619    1.891840
  H      5.039414    8.171224    2.347437
  H      6.088976    7.231516    1.309819

 Multiplicity           Mult            ....    1
 Number of Electrons    NEL             ....   18
 Basis Dimension        Dim             ....  172

ORBITAL ENERGIES
----------------

  NO   OCC          E(Eh)            E(eV)
   0   2.0000     -19.230109      -523.2779
   1   2.0000     -10.312571      -280.6193
   2   2.0000      -1.133592       -30.8466
   3   2.0000      -0.795674       -21.6514
   4   2.0000      -0.610858       -16.6223
   5   2.0000      -0.549416       -14.9504
   6   2.0000      -0.523543       -14.2463
   7   2.0000      -0.427118       -11.6225
   8   2.0000      -0.375449       -10.2165
   9   0.0000       0.093128         2.5341
  10   0.0000       0.126753         3.4491
  11   0.0000       0.154736         4.2106
  12   0.0000       0.183734         4.9996
  13   0.0000       0.203378         5.5342

MULLIKEN ATOMIC CHARGES
-----------------------
   0 C :    0.005238
   1 O :   -0.000002
   2 H :   -0.008482
   3 H :   -0.005501
   4 H :   -0.000245
   5 H :   -0.001352
   6 C :   -0.155389
   7 O :   -0.471733
   8 H :    0.318811
   9 H :    0.115701
  10 H :    0.099919
  11 H :    0.103035
Sum of atomic charges:   -0.0000000

LOEWDIN ATOMIC CHARGES
----------------------
   0 C :   -0.006338
   1 O :   -0.001403
   2 H :   -0.017068
   3 H :   -0.002306
   4 H :   -0.000054
   5 H :   -0.000524
   6 C :   -0.381409
   7 O :   -0.064483
   8 H :    0.176762
   9 H :    0.114097
  10 H :    0.092226
  11 H :    0.090498

  Mayer bond orders larger than 0.1
B(  6-C ,  7-O ) :   0.9973 B(  6-C ,  9-H ) :   0.9728 B(  6-C , 10-H ) :   0.9823
B(  6-C , 11-H ) :   0.9755 B(  7-O ,  8-H ) :   0.8927

Dispersion correction           -0.000240212
FINAL SINGLE POINT ENERGY      -115.734129480899

DIPOLE MOMENT
-------------
                                X             Y             Z
Electronic contribution:     -0.68769       0.67054      -1.52603
Nuclear contribution   :      0.34209      -1.06796       2.02305
                        -----------------------------------------
Total Dipole Moment    :     -0.34560      -0.39742       0.49702
                        -----------------------------------------
Magnitude (a.u.)       :      0.72416
Magnitude (Debye)      :      1.84066

Rotational constants in cm-1:     4.324978     0.826545     0.801694
Rotational constants in MHz : 129659.581031 24779.208286 24034.169495

                             ****ORCA TERMINATED NORMALLY****
TOTAL RUN TIME: 0 days 0 hours 1 minutes 7 seconds 373 msec
