                         Program Version 4.1.2  - RELEASE  -
|  1> #Run DFT-D3 single point of the dimer
|  2> ! wB97X-D3 def2-TZVP TIGHTSCF CHELPG PMODEL PAL8
|  3>
|  4> %base "12-185_DFT_AB"
|  5>
|  6> %scf
|  7> MaxIter 1000
|  8> end
|  9>
| 10> * xyz 0 1
| 11>   C                      1.004850             -7.973251            -4.730451
| 12>   O                      2.010199             -8.111811            -5.665440
| 13>   H                      2.740079             -8.411108            -5.097560
| 14>   H                      -0.051324            -8.105995            -5.161093
| 15>   H                      1.086488             -8.584173            -3.828320
| 16>   H                      1.030126             -6.951584            -4.336741
| 17>   C                      4.774426             -8.100343            -2.462904
| 18>   O                      3.775210             -8.706812            -3.317403
| 19>   H                      3.715647             -9.629430            -3.337274
| 20>   H                      5.720722             -8.688947            -2.542135
| 21>   H                      5.002248             -7.044043            -2.599598
| 22>   H                      4.446611             -8.023833            -1.378385
| 23> *
| 24>
| 25> #Run DFT-D3 single point of the molecule with dimer basis set
| 26> $new_job
| 27> %base "12-185_DFT_A"
| 28> ! wB97X-D3 def2-TZVP TIGHTSCF CHELPG PMODEL
| 29>
| 30> %scf
| 31> MaxIter 1000
| 32> end
| 33>
| 34> * xyz 0 1
| 35>   C                      1.004850             -7.973251            -4.730451
| 36>   O                      2.010199             -8.111811            -5.665440
| 37>   H                      2.740079             -8.411108            -5.097560
| 38>   H                      -0.051324            -8.105995            -5.161093
| 39>   H                      1.086488             -8.584173            -3.828320
| 40>   H                      1.030126             -6.951584            -4.336741
| 41>   C                    : 4.774426             -8.100343            -2.462904
| 42>   O                    : 3.775210             -8.706812            -3.317403
| 43>   H                    : 3.715647             -9.629430            -3.337274
| 44>   H                    : 5.720722             -8.688947            -2.542135
| 45>   H                    : 5.002248             -7.044043            -2.599598
| 46>   H                    : 4.446611             -8.023833            -1.378385
| 47> *
| 48>
| 49> #Run DFT-D3 single point of the particle with dimer basis set
| 50> $new_job
| 51> %base "12-185_DFT_B"
| 52> ! wB97X-D3 def2-TZVP TIGHTSCF CHELPG PMODEL
| 53>
| 54> %scf
| 55> MaxIter 1000
| 56> end
| 57>
| 58> * xyz 0 1
| 59>   C                    : 1.004850             -7.973251            -4.730451
| 60>   O                    : 2.010199             -8.111811            -5.665440
| 61>   H                    : 2.740079             -8.411108            -5.097560
| 62>   H                    : -0.051324            -8.105995            -5.161093
| 63>   H                    : 1.086488             -8.584173            -3.828320
| 64>   H                    : 1.030126             -6.951584            -4.336741
| 65>   C                      4.774426             -8.100343            -2.462904
| 66>   O                      3.775210             -8.706812            -3.317403
| 67>   H                      3.715647             -9.629430            -3.337274
| 68>   H                      5.720722             -8.688947            -2.542135
| 69>   H                      5.002248             -7.044043            -2.599598
| 70>   H                      4.446611             -8.023833            -1.378385
| 71> *
| 72>
| 73>                          ****END OF INPUT****
 Total Charge           Charge          ....    0
 Multiplicity           Mult            ....    1
 Number of Electrons    NEL             ....   36
Dispersion correction           -0.001843483
FINAL SINGLE POINT ENERGY      -231.461910097175
Dispersion correction           -0.000226704
FINAL SINGLE POINT ENERGY      -115.729449877662

CARTESIAN COORDINATES (ANGSTROEM)
---------------------------------
  C      1.004850   -7.973251   -4.730451
  O      2.010199   -8.111811   -5.665440
  H      2.740079   -8.411108   -5.097560
  H     -0.051324   -8.105995   -5.161093
  H      1.086488   -8.584173   -3.828320
  H      1.030126   -6.951584   -4.336741
  C      4.774426   -8.100343   -2.462904
  O      3.775210   -8.706812   -3.317403
  H      3.715647   -9.629430   -3.337274
  H      5.720722   -8.688947   -2.542135
  H      5.002248   -7.044043   -2.599598
  H      4.446611   -8.023833   -1.378385

 Multiplicity           Mult            ....    1
 Number of Electrons    NEL             ....   18
 Basis Dimension        Dim             ....  172

ORBITAL ENERGIES
----------------

  NO   OCC          E(Eh)            E(eV)
   0   2.0000     -19.226869      -523.1897
   1   2.0000     -10.326896      -281.0091
   2   2.0000      -1.128891       -30.7187
   3   2.0000      -0.803618       -21.8675
   4   2.0000      -0.612527       -16.6677
   5   2.0000      -0.544243       -14.8096
   6   2.0000      -0.519901       -14.1472
   7   2.0000      -0.420392       -11.4394
   8   2.0000      -0.374311       -10.1855
   9   0.0000       0.100610         2.7377
  10   0.0000       0.130872         3.5612
  11   0.0000       0.144741         3.9386
  12   0.0000       0.191610         5.2140
  13   0.0000       0.197362         5.3705

MULLIKEN ATOMIC CHARGES
-----------------------
   0 C :    0.015650
   1 O :    0.000013
   2 H :   -0.014781
   3 H :   -0.000395
   4 H :   -0.013741
   5 H :   -0.003218
   6 C :   -0.161081
   7 O :   -0.483185
   8 H :    0.318898
   9 H :    0.109349
  10 H :    0.130590
  11 H :    0.101902
Sum of atomic charges:   -0.0000000

LOEWDIN ATOMIC CHARGES
----------------------
   0 C :   -0.011397
   1 O :   -0.003202
   2 H :   -0.031171
   3 H :   -0.000112
   4 H :   -0.006861
   5 H :   -0.000699
   6 C :   -0.363338
   7 O :   -0.042277
   8 H :    0.144352
   9 H :    0.103303
  10 H :    0.107903
  11 H :    0.103501

  Mayer bond orders larger than 0.1
B(  6-C ,  7-O ) :   0.9884 B(  6-C ,  9-H ) :   0.9775 B(  6-C , 10-H ) :   0.9707
B(  6-C , 11-H ) :   0.9702 B(  7-O ,  8-H ) :   0.8943

Dispersion correction           -0.000296314
FINAL SINGLE POINT ENERGY      -115.724461536396

DIPOLE MOMENT
-------------
                                X             Y             Z
Electronic contribution:     -1.27201      -0.65990      -1.22561
Nuclear contribution   :      1.69075       0.32463       1.59008
                        -----------------------------------------
Total Dipole Moment    :      0.41874      -0.33526       0.36447
                        -----------------------------------------
Magnitude (a.u.)       :      0.64853
Magnitude (Debye)      :      1.64842

Rotational constants in cm-1:     4.516241     0.774103     0.752738
Rotational constants in MHz : 135393.502081 23207.017853 22566.521696

                             ****ORCA TERMINATED NORMALLY****
TOTAL RUN TIME: 0 days 0 hours 1 minutes 2 seconds 993 msec
