                         Program Version 4.1.2  - RELEASE  -
|  1> #Run DFT-D3 single point of the dimer
|  2> ! wB97X-D3 def2-TZVP TIGHTSCF CHELPG PMODEL PAL8
|  3>
|  4> %base "6-191_DFT_AB"
|  5>
|  6> %scf
|  7> MaxIter 1000
|  8> end
|  9>
| 10> * xyz 0 1
| 11>   C                      0.182084             4.325668             -3.033749
| 12>   O                      0.829074             4.609994             -4.208649
| 13>   H                      0.237808             4.171818             -4.852267
| 14>   H                      0.642649             4.858866             -2.199980
| 15>   H                      -0.820564            4.802112             -2.973420
| 16>   H                      0.162059             3.239684             -2.768472
| 17>   C                      1.269044             6.967743             -6.334853
| 18>   O                      1.387408             7.236289             -4.920254
| 19>   H                      1.049466             6.443220             -4.459522
| 20>   H                      0.605911             7.768005             -6.774295
| 21>   H                      2.241812             6.927588             -6.809644
| 22>   H                      0.710745             6.074214             -6.590110
| 23> *
| 24>
| 25> #Run DFT-D3 single point of the molecule with dimer basis set
| 26> $new_job
| 27> %base "6-191_DFT_A"
| 28> ! wB97X-D3 def2-TZVP TIGHTSCF CHELPG PMODEL
| 29>
| 30> %scf
| 31> MaxIter 1000
| 32> end
| 33>
| 34> * xyz 0 1
| 35>   C                      0.182084             4.325668             -3.033749
| 36>   O                      0.829074             4.609994             -4.208649
| 37>   H                      0.237808             4.171818             -4.852267
| 38>   H                      0.642649             4.858866             -2.199980
| 39>   H                      -0.820564            4.802112             -2.973420
| 40>   H                      0.162059             3.239684             -2.768472
| 41>   C                    : 1.269044             6.967743             -6.334853
| 42>   O                    : 1.387408             7.236289             -4.920254
| 43>   H                    : 1.049466             6.443220             -4.459522
| 44>   H                    : 0.605911             7.768005             -6.774295
| 45>   H                    : 2.241812             6.927588             -6.809644
| 46>   H                    : 0.710745             6.074214             -6.590110
| 47> *
| 48>
| 49> #Run DFT-D3 single point of the particle with dimer basis set
| 50> $new_job
| 51> %base "6-191_DFT_B"
| 52> ! wB97X-D3 def2-TZVP TIGHTSCF CHELPG PMODEL
| 53>
| 54> %scf
| 55> MaxIter 1000
| 56> end
| 57>
| 58> * xyz 0 1
| 59>   C                    : 0.182084             4.325668             -3.033749
| 60>   O                    : 0.829074             4.609994             -4.208649
| 61>   H                    : 0.237808             4.171818             -4.852267
| 62>   H                    : 0.642649             4.858866             -2.199980
| 63>   H                    : -0.820564            4.802112             -2.973420
| 64>   H                    : 0.162059             3.239684             -2.768472
| 65>   C                      1.269044             6.967743             -6.334853
| 66>   O                      1.387408             7.236289             -4.920254
| 67>   H                      1.049466             6.443220             -4.459522
| 68>   H                      0.605911             7.768005             -6.774295
| 69>   H                      2.241812             6.927588             -6.809644
| 70>   H                      0.710745             6.074214             -6.590110
| 71> *
| 72>
| 73>                          ****END OF INPUT****
 Total Charge           Charge          ....    0
 Multiplicity           Mult            ....    1
 Number of Electrons    NEL             ....   36
Dispersion correction           -0.001915783
FINAL SINGLE POINT ENERGY      -231.469750261535
Dispersion correction           -0.000222196
FINAL SINGLE POINT ENERGY      -115.731321203941

CARTESIAN COORDINATES (ANGSTROEM)
---------------------------------
  C      0.182084    4.325668   -3.033749
  O      0.829074    4.609994   -4.208649
  H      0.237808    4.171818   -4.852267
  H      0.642649    4.858866   -2.199980
  H     -0.820564    4.802112   -2.973420
  H      0.162059    3.239684   -2.768472
  C      1.269044    6.967743   -6.334853
  O      1.387408    7.236289   -4.920254
  H      1.049466    6.443220   -4.459522
  H      0.605911    7.768005   -6.774295
  H      2.241812    6.927588   -6.809644
  H      0.710745    6.074214   -6.590110

 Multiplicity           Mult            ....    1
 Number of Electrons    NEL             ....   18
 Basis Dimension        Dim             ....  172

ORBITAL ENERGIES
----------------

  NO   OCC          E(Eh)            E(eV)
   0   2.0000     -19.233108      -523.3595
   1   2.0000     -10.316508      -280.7264
   2   2.0000      -1.124938       -30.6111
   3   2.0000      -0.794076       -21.6079
   4   2.0000      -0.606275       -16.4976
   5   2.0000      -0.543395       -14.7865
   6   2.0000      -0.512555       -13.9473
   7   2.0000      -0.436767       -11.8850
   8   2.0000      -0.375572       -10.2198
   9   0.0000       0.067406         1.8342
  10   0.0000       0.132157         3.5962
  11   0.0000       0.150623         4.0987
  12   0.0000       0.168651         4.5892
  13   0.0000       0.187440         5.1005

MULLIKEN ATOMIC CHARGES
-----------------------
   0 C :   -0.001985
   1 O :   -0.008469
   2 H :    0.000218
   3 H :   -0.000068
   4 H :   -0.000315
   5 H :    0.000020
   6 C :   -0.181744
   7 O :   -0.471988
   8 H :    0.319006
   9 H :    0.112931
  10 H :    0.118393
  11 H :    0.114002
Sum of atomic charges:    0.0000000

LOEWDIN ATOMIC CHARGES
----------------------
   0 C :   -0.006317
   1 O :   -0.025409
   2 H :   -0.002701
   3 H :   -0.000504
   4 H :   -0.000447
   5 H :   -0.000126
   6 C :   -0.366536
   7 O :   -0.091959
   8 H :    0.189267
   9 H :    0.109941
  10 H :    0.098751
  11 H :    0.096041

  Mayer bond orders larger than 0.1
B(  6-C ,  7-O ) :   0.9888 B(  6-C ,  9-H ) :   0.9771 B(  6-C , 10-H ) :   0.9729
B(  6-C , 11-H ) :   0.9747 B(  7-O ,  8-H ) :   0.9063

Dispersion correction           -0.000265682
FINAL SINGLE POINT ENERGY      -115.732745320328

DIPOLE MOMENT
-------------
                                X             Y             Z
Electronic contribution:      0.32759       0.41150       1.77456
Nuclear contribution   :     -0.60471      -1.04050      -2.06162
                        -----------------------------------------
Total Dipole Moment    :     -0.27712      -0.62899      -0.28706
                        -----------------------------------------
Magnitude (a.u.)       :      0.74487
Magnitude (Debye)      :      1.89331

Rotational constants in cm-1:     4.233921     0.796335     0.776267
Rotational constants in MHz : 126929.747793 23873.529901 23271.907798

                             ****ORCA TERMINATED NORMALLY****
TOTAL RUN TIME: 0 days 0 hours 1 minutes 9 seconds 551 msec
