                         Program Version 4.1.2  - RELEASE  -
|  1> #Run DFT-D3 single point of the dimer
|  2> ! wB97X-D3 def2-TZVP TIGHTSCF CHELPG PMODEL PAL8
|  3>
|  4> %base "3-117_DFT_AB"
|  5>
|  6> %scf
|  7> MaxIter 1000
|  8> end
|  9>
| 10> * xyz 0 1
| 11>   C                      3.223815             -1.120758            5.515775
| 12>   O                      2.667111             -0.042912            6.132013
| 13>   H                      1.858254             0.090101             5.682670
| 14>   H                      3.470362             -1.950153            6.248320
| 15>   H                      2.540332             -1.571278            4.775863
| 16>   H                      4.135189             -0.855422            5.051932
| 17>   C                      2.386429             2.995195             8.591899
| 18>   O                      1.849610             4.090954             7.926021
| 19>   H                      0.922716             3.954351             7.668493
| 20>   H                      3.472603             3.087747             8.957386
| 21>   H                      1.871403             2.819979             9.530052
| 22>   H                      2.375562             2.106276             7.946624
| 23> *
| 24>
| 25> #Run DFT-D3 single point of the molecule with dimer basis set
| 26> $new_job
| 27> %base "3-117_DFT_A"
| 28> ! wB97X-D3 def2-TZVP TIGHTSCF CHELPG PMODEL
| 29>
| 30> %scf
| 31> MaxIter 1000
| 32> end
| 33>
| 34> * xyz 0 1
| 35>   C                      3.223815             -1.120758            5.515775
| 36>   O                      2.667111             -0.042912            6.132013
| 37>   H                      1.858254             0.090101             5.682670
| 38>   H                      3.470362             -1.950153            6.248320
| 39>   H                      2.540332             -1.571278            4.775863
| 40>   H                      4.135189             -0.855422            5.051932
| 41>   C                    : 2.386429             2.995195             8.591899
| 42>   O                    : 1.849610             4.090954             7.926021
| 43>   H                    : 0.922716             3.954351             7.668493
| 44>   H                    : 3.472603             3.087747             8.957386
| 45>   H                    : 1.871403             2.819979             9.530052
| 46>   H                    : 2.375562             2.106276             7.946624
| 47> *
| 48>
| 49> #Run DFT-D3 single point of the particle with dimer basis set
| 50> $new_job
| 51> %base "3-117_DFT_B"
| 52> ! wB97X-D3 def2-TZVP TIGHTSCF CHELPG PMODEL
| 53>
| 54> %scf
| 55> MaxIter 1000
| 56> end
| 57>
| 58> * xyz 0 1
| 59>   C                    : 3.223815             -1.120758            5.515775
| 60>   O                    : 2.667111             -0.042912            6.132013
| 61>   H                    : 1.858254             0.090101             5.682670
| 62>   H                    : 3.470362             -1.950153            6.248320
| 63>   H                    : 2.540332             -1.571278            4.775863
| 64>   H                    : 4.135189             -0.855422            5.051932
| 65>   C                      2.386429             2.995195             8.591899
| 66>   O                      1.849610             4.090954             7.926021
| 67>   H                      0.922716             3.954351             7.668493
| 68>   H                      3.472603             3.087747             8.957386
| 69>   H                      1.871403             2.819979             9.530052
| 70>   H                      2.375562             2.106276             7.946624
| 71> *
| 72>
| 73>                          ****END OF INPUT****
 Total Charge           Charge          ....    0
 Multiplicity           Mult            ....    1
 Number of Electrons    NEL             ....   36
Dispersion correction           -0.001063148
FINAL SINGLE POINT ENERGY      -231.462061563524
Dispersion correction           -0.000219620
FINAL SINGLE POINT ENERGY      -115.730542121772

CARTESIAN COORDINATES (ANGSTROEM)
---------------------------------
  C      3.223815   -1.120758    5.515775
  O      2.667111   -0.042912    6.132013
  H      1.858254    0.090101    5.682670
  H      3.470362   -1.950153    6.248320
  H      2.540332   -1.571278    4.775863
  H      4.135189   -0.855422    5.051932
  C      2.386429    2.995195    8.591899
  O      1.849610    4.090954    7.926021
  H      0.922716    3.954351    7.668493
  H      3.472603    3.087747    8.957386
  H      1.871403    2.819979    9.530052
  H      2.375562    2.106276    7.946624

 Multiplicity           Mult            ....    1
 Number of Electrons    NEL             ....   18
 Basis Dimension        Dim             ....  172

ORBITAL ENERGIES
----------------

  NO   OCC          E(Eh)            E(eV)
   0   2.0000     -19.230249      -523.2817
   1   2.0000     -10.316566      -280.7280
   2   2.0000      -1.139096       -30.9964
   3   2.0000      -0.792520       -21.5656
   4   2.0000      -0.613367       -16.6906
   5   2.0000      -0.549228       -14.9452
   6   2.0000      -0.526834       -14.3359
   7   2.0000      -0.416478       -11.3329
   8   2.0000      -0.373278       -10.1574
   9   0.0000       0.083696         2.2775
  10   0.0000       0.116056         3.1581
  11   0.0000       0.145613         3.9623
  12   0.0000       0.168430         4.5832
  13   0.0000       0.189607         5.1595

MULLIKEN ATOMIC CHARGES
-----------------------
   0 C :   -0.000128
   1 O :    0.000257
   2 H :    0.000054
   3 H :   -0.000004
   4 H :    0.000000
   5 H :    0.000007
   6 C :   -0.151815
   7 O :   -0.484570
   8 H :    0.323847
   9 H :    0.113025
  10 H :    0.103050
  11 H :    0.096277
Sum of atomic charges:   -0.0000000

LOEWDIN ATOMIC CHARGES
----------------------
   0 C :   -0.000256
   1 O :   -0.002646
   2 H :   -0.000589
   3 H :   -0.000009
   4 H :   -0.000006
   5 H :   -0.000010
   6 C :   -0.412599
   7 O :   -0.068183
   8 H :    0.179107
   9 H :    0.119222
  10 H :    0.091022
  11 H :    0.094946

  Mayer bond orders larger than 0.1
B(  6-C ,  7-O ) :   0.9933 B(  6-C ,  9-H ) :   0.9663 B(  6-C , 10-H ) :   0.9801
B(  6-C , 11-H ) :   0.9803 B(  7-O ,  8-H ) :   0.8870

Dispersion correction           -0.000251316
FINAL SINGLE POINT ENERGY      -115.730562181732

DIPOLE MOMENT
-------------
                                X             Y             Z
Electronic contribution:     -0.64998       1.54079      -0.91816
Nuclear contribution   :      0.26140      -2.05528       1.02553
                        -----------------------------------------
Total Dipole Moment    :     -0.38858      -0.51448       0.10737
                        -----------------------------------------
Magnitude (a.u.)       :      0.65362
Magnitude (Debye)      :      1.66137

Rotational constants in cm-1:     4.366271     0.832106     0.808997
Rotational constants in MHz : 130897.507086 24945.895788 24253.108085

                             ****ORCA TERMINATED NORMALLY****
TOTAL RUN TIME: 0 days 0 hours 6 minutes 24 seconds 878 msec
