                         Program Version 4.1.2  - RELEASE  -
|  1> #Run DFT-D3 single point of the dimer
|  2> ! wB97X-D3 def2-TZVP TIGHTSCF CHELPG PMODEL PAL8
|  3>
|  4> %base "6-158_DFT_AB"
|  5>
|  6> %scf
|  7> MaxIter 1000
|  8> end
|  9>
| 10> * xyz 0 1
| 11>   C                      7.945944             9.851764             10.615792
| 12>   O                      8.683285             9.784358             9.374255
| 13>   H                      9.648338             10.053236            9.518960
| 14>   H                      8.439825             9.336145             11.433784
| 15>   H                      7.849229             10.917249            10.971234
| 16>   H                      6.910935             9.498779             10.655110
| 17>   C                      7.754791             6.367372             9.485045
| 18>   O                      7.049576             7.425827             8.807849
| 19>   H                      7.715062             8.046957             8.548108
| 20>   H                      8.470335             6.703602             10.245140
| 21>   H                      7.075610             5.722960             9.922584
| 22>   H                      8.330576             5.765274             8.727619
| 23> *
| 24>
| 25> #Run DFT-D3 single point of the molecule with dimer basis set
| 26> $new_job
| 27> %base "6-158_DFT_A"
| 28> ! wB97X-D3 def2-TZVP TIGHTSCF CHELPG PMODEL
| 29>
| 30> %scf
| 31> MaxIter 1000
| 32> end
| 33>
| 34> * xyz 0 1
| 35>   C                      7.945944             9.851764             10.615792
| 36>   O                      8.683285             9.784358             9.374255
| 37>   H                      9.648338             10.053236            9.518960
| 38>   H                      8.439825             9.336145             11.433784
| 39>   H                      7.849229             10.917249            10.971234
| 40>   H                      6.910935             9.498779             10.655110
| 41>   C                    : 7.754791             6.367372             9.485045
| 42>   O                    : 7.049576             7.425827             8.807849
| 43>   H                    : 7.715062             8.046957             8.548108
| 44>   H                    : 8.470335             6.703602             10.245140
| 45>   H                    : 7.075610             5.722960             9.922584
| 46>   H                    : 8.330576             5.765274             8.727619
| 47> *
| 48>
| 49> #Run DFT-D3 single point of the particle with dimer basis set
| 50> $new_job
| 51> %base "6-158_DFT_B"
| 52> ! wB97X-D3 def2-TZVP TIGHTSCF CHELPG PMODEL
| 53>
| 54> %scf
| 55> MaxIter 1000
| 56> end
| 57>
| 58> * xyz 0 1
| 59>   C                    : 7.945944             9.851764             10.615792
| 60>   O                    : 8.683285             9.784358             9.374255
| 61>   H                    : 9.648338             10.053236            9.518960
| 62>   H                    : 8.439825             9.336145             11.433784
| 63>   H                    : 7.849229             10.917249            10.971234
| 64>   H                    : 6.910935             9.498779             10.655110
| 65>   C                      7.754791             6.367372             9.485045
| 66>   O                      7.049576             7.425827             8.807849
| 67>   H                      7.715062             8.046957             8.548108
| 68>   H                      8.470335             6.703602             10.245140
| 69>   H                      7.075610             5.722960             9.922584
| 70>   H                      8.330576             5.765274             8.727619
| 71> *
| 72>
| 73>                          ****END OF INPUT****
 Total Charge           Charge          ....    0
 Multiplicity           Mult            ....    1
 Number of Electrons    NEL             ....   36
Dispersion correction           -0.002285399
FINAL SINGLE POINT ENERGY      -231.468615628092
Dispersion correction           -0.000283747
FINAL SINGLE POINT ENERGY      -115.727235485021

CARTESIAN COORDINATES (ANGSTROEM)
---------------------------------
  C      7.945944    9.851764   10.615792
  O      8.683285    9.784358    9.374255
  H      9.648338   10.053236    9.518960
  H      8.439825    9.336145   11.433784
  H      7.849229   10.917249   10.971234
  H      6.910935    9.498779   10.655110
  C      7.754791    6.367372    9.485045
  O      7.049576    7.425827    8.807849
  H      7.715062    8.046957    8.548108
  H      8.470335    6.703602   10.245140
  H      7.075610    5.722960    9.922584
  H      8.330576    5.765274    8.727619

 Multiplicity           Mult            ....    1
 Number of Electrons    NEL             ....   18
 Basis Dimension        Dim             ....  172

ORBITAL ENERGIES
----------------

  NO   OCC          E(Eh)            E(eV)
   0   2.0000     -19.232231      -523.3356
   1   2.0000     -10.313397      -280.6418
   2   2.0000      -1.133734       -30.8505
   3   2.0000      -0.801126       -21.7998
   4   2.0000      -0.608383       -16.5549
   5   2.0000      -0.535277       -14.5656
   6   2.0000      -0.531397       -14.4601
   7   2.0000      -0.444757       -12.1024
   8   2.0000      -0.375199       -10.2097
   9   0.0000       0.076328         2.0770
  10   0.0000       0.139245         3.7890
  11   0.0000       0.146222         3.9789
  12   0.0000       0.165654         4.5077
  13   0.0000       0.187984         5.1153

MULLIKEN ATOMIC CHARGES
-----------------------
   0 C :   -0.007566
   1 O :   -0.002701
   2 H :   -0.000137
   3 H :    0.000723
   4 H :   -0.000465
   5 H :   -0.004926
   6 C :   -0.180199
   7 O :   -0.461279
   8 H :    0.311899
   9 H :    0.111579
  10 H :    0.128431
  11 H :    0.104640
Sum of atomic charges:    0.0000000

LOEWDIN ATOMIC CHARGES
----------------------
   0 C :   -0.015706
   1 O :   -0.011994
   2 H :   -0.000510
   3 H :   -0.000808
   4 H :   -0.000178
   5 H :   -0.006559
   6 C :   -0.358125
   7 O :   -0.064746
   8 H :    0.163692
   9 H :    0.098343
  10 H :    0.093650
  11 H :    0.102943

  Mayer bond orders larger than 0.1
B(  6-C ,  7-O ) :   0.9938 B(  6-C ,  9-H ) :   0.9683 B(  6-C , 10-H ) :   0.9760
B(  6-C , 11-H ) :   0.9821 B(  7-O ,  8-H ) :   0.9071

Dispersion correction           -0.000244705
FINAL SINGLE POINT ENERGY      -115.734203220499

DIPOLE MOMENT
-------------
                                X             Y             Z
Electronic contribution:     -1.10155       1.28100      -0.73409
Nuclear contribution   :      1.78538      -1.34490       0.85675
                        -----------------------------------------
Total Dipole Moment    :      0.68383      -0.06391       0.12266
                        -----------------------------------------
Magnitude (a.u.)       :      0.69768
Magnitude (Debye)      :      1.77336

Rotational constants in cm-1:     4.354979     0.807414     0.782983
Rotational constants in MHz : 130558.996624 24205.649284 23473.237626

                             ****ORCA TERMINATED NORMALLY****
TOTAL RUN TIME: 0 days 0 hours 1 minutes 5 seconds 799 msec
