                         Program Version 4.1.2  - RELEASE  -
|  1> #Run DFT-D3 single point of the dimer
|  2> ! wB97X-D3 def2-TZVP TIGHTSCF CHELPG PMODEL PAL8
|  3>
|  4> %base "3-98_DFT_AB"
|  5>
|  6> %scf
|  7> MaxIter 1000
|  8> end
|  9>
| 10> * xyz 0 1
| 11>   C                      8.643484             -10.596535           3.469221
| 12>   O                      8.955716             -10.854942           2.119081
| 13>   H                      9.117032             -9.999848            1.707795
| 14>   H                      9.382769             -10.096657           4.085668
| 15>   H                      7.796566             -9.991265            3.549302
| 16>   H                      8.301989             -11.458165           3.995973
| 17>   C                      9.412613             -10.604102           7.908205
| 18>   O                      8.349487             -11.520618           8.160402
| 19>   H                      8.602562             -12.250653           8.719799
| 20>   H                      9.010145             -9.759007            7.413055
| 21>   H                      9.736370             -10.187472           8.880843
| 22>   H                      10.264783            -11.027977           7.422326
| 23> *
| 24>
| 25> #Run DFT-D3 single point of the molecule with dimer basis set
| 26> $new_job
| 27> %base "3-98_DFT_A"
| 28> ! wB97X-D3 def2-TZVP TIGHTSCF CHELPG PMODEL
| 29>
| 30> %scf
| 31> MaxIter 1000
| 32> end
| 33>
| 34> * xyz 0 1
| 35>   C                      8.643484             -10.596535           3.469221
| 36>   O                      8.955716             -10.854942           2.119081
| 37>   H                      9.117032             -9.999848            1.707795
| 38>   H                      9.382769             -10.096657           4.085668
| 39>   H                      7.796566             -9.991265            3.549302
| 40>   H                      8.301989             -11.458165           3.995973
| 41>   C                    : 9.412613             -10.604102           7.908205
| 42>   O                    : 8.349487             -11.520618           8.160402
| 43>   H                    : 8.602562             -12.250653           8.719799
| 44>   H                    : 9.010145             -9.759007            7.413055
| 45>   H                    : 9.736370             -10.187472           8.880843
| 46>   H                    : 10.264783            -11.027977           7.422326
| 47> *
| 48>
| 49> #Run DFT-D3 single point of the particle with dimer basis set
| 50> $new_job
| 51> %base "3-98_DFT_B"
| 52> ! wB97X-D3 def2-TZVP TIGHTSCF CHELPG PMODEL
| 53>
| 54> %scf
| 55> MaxIter 1000
| 56> end
| 57>
| 58> * xyz 0 1
| 59>   C                    : 8.643484             -10.596535           3.469221
| 60>   O                    : 8.955716             -10.854942           2.119081
| 61>   H                    : 9.117032             -9.999848            1.707795
| 62>   H                    : 9.382769             -10.096657           4.085668
| 63>   H                    : 7.796566             -9.991265            3.549302
| 64>   H                    : 8.301989             -11.458165           3.995973
| 65>   C                      9.412613             -10.604102           7.908205
| 66>   O                      8.349487             -11.520618           8.160402
| 67>   H                      8.602562             -12.250653           8.719799
| 68>   H                      9.010145             -9.759007            7.413055
| 69>   H                      9.736370             -10.187472           8.880843
| 70>   H                      10.264783            -11.027977           7.422326
| 71> *
| 72>
| 73>                          ****END OF INPUT****
 Total Charge           Charge          ....    0
 Multiplicity           Mult            ....    1
 Number of Electrons    NEL             ....   36
Dispersion correction           -0.001040746
FINAL SINGLE POINT ENERGY      -231.465258248326
Dispersion correction           -0.000239298
FINAL SINGLE POINT ENERGY      -115.730697171011

CARTESIAN COORDINATES (ANGSTROEM)
---------------------------------
  C      8.643484  -10.596535    3.469221
  O      8.955716  -10.854942    2.119081
  H      9.117032   -9.999848    1.707795
  H      9.382769  -10.096657    4.085668
  H      7.796566   -9.991265    3.549302
  H      8.301989  -11.458165    3.995973
  C      9.412613  -10.604102    7.908205
  O      8.349487  -11.520618    8.160402
  H      8.602562  -12.250653    8.719799
  H      9.010145   -9.759007    7.413055
  H      9.736370  -10.187472    8.880843
  H     10.264783  -11.027977    7.422326

 Multiplicity           Mult            ....    1
 Number of Electrons    NEL             ....   18
 Basis Dimension        Dim             ....  172

ORBITAL ENERGIES
----------------

  NO   OCC          E(Eh)            E(eV)
   0   2.0000     -19.225250      -523.1456
   1   2.0000     -10.309206      -280.5277
   2   2.0000      -1.128685       -30.7131
   3   2.0000      -0.802593       -21.8397
   4   2.0000      -0.610110       -16.6019
   5   2.0000      -0.544964       -14.8292
   6   2.0000      -0.526802       -14.3350
   7   2.0000      -0.428935       -11.6719
   8   2.0000      -0.371973       -10.1219
   9   0.0000       0.087995         2.3945
  10   0.0000       0.118246         3.2176
  11   0.0000       0.149881         4.0785
  12   0.0000       0.172924         4.7055
  13   0.0000       0.191991         5.2243

MULLIKEN ATOMIC CHARGES
-----------------------
   0 C :    0.000812
   1 O :    0.000012
   2 H :    0.000003
   3 H :   -0.000694
   4 H :   -0.000094
   5 H :   -0.000579
   6 C :   -0.146179
   7 O :   -0.491341
   8 H :    0.313724
   9 H :    0.124470
  10 H :    0.094257
  11 H :    0.105609
Sum of atomic charges:   -0.0000000

LOEWDIN ATOMIC CHARGES
----------------------
   0 C :   -0.000244
   1 O :   -0.000004
   2 H :   -0.000001
   3 H :   -0.000389
   4 H :   -0.000020
   5 H :   -0.000218
   6 C :   -0.365011
   7 O :   -0.086217
   8 H :    0.160468
   9 H :    0.103344
  10 H :    0.098180
  11 H :    0.090111

  Mayer bond orders larger than 0.1
B(  6-C ,  7-O ) :   0.9909 B(  6-C ,  9-H ) :   0.9738 B(  6-C , 10-H ) :   0.9841
B(  6-C , 11-H ) :   0.9715 B(  7-O ,  8-H ) :   0.8982

Dispersion correction           -0.000247575
FINAL SINGLE POINT ENERGY      -115.733730929126

DIPOLE MOMENT
-------------
                                X             Y             Z
Electronic contribution:     -1.34726      -1.12294       0.07569
Nuclear contribution   :      1.95420       1.04770       0.18766
                        -----------------------------------------
Total Dipole Moment    :      0.60693      -0.07524       0.26335
                        -----------------------------------------
Magnitude (a.u.)       :      0.66587
Magnitude (Debye)      :      1.69249

Rotational constants in cm-1:     4.452486     0.817395     0.792883
Rotational constants in MHz : 133482.167435 24504.873621 23770.031064

                             ****ORCA TERMINATED NORMALLY****
TOTAL RUN TIME: 0 days 0 hours 3 minutes 24 seconds 656 msec
