                         Program Version 4.1.2  - RELEASE  -
|  1> #Run DFT-D3 single point of the dimer
|  2> ! wB97X-D3 def2-TZVP TIGHTSCF CHELPG PMODEL PAL8
|  3>
|  4> %base "5-33_DFT_AB"
|  5>
|  6> %scf
|  7> MaxIter 1000
|  8> end
|  9>
| 10> * xyz 0 1
| 11>   C                      0.049032             -10.783737           -3.547147
| 12>   O                      -1.245113            -10.968864           -2.996254
| 13>   H                      -1.364851            -11.804296           -2.480069
| 14>   H                      0.119904             -9.931125            -4.234255
| 15>   H                      0.661525             -10.373009           -2.824909
| 16>   H                      0.387264             -11.742814           -4.004112
| 17>   C                      -1.049376            -6.741063            -1.692879
| 18>   O                      -1.129249            -7.289579            -2.969097
| 19>   H                      -0.229527            -7.260778            -3.337332
| 20>   H                      -1.107026            -5.652595            -1.728562
| 21>   H                      -1.851212            -7.119840            -1.114587
| 22>   H                      -0.121948            -7.036954            -1.131693
| 23> *
| 24>
| 25> #Run DFT-D3 single point of the molecule with dimer basis set
| 26> $new_job
| 27> %base "5-33_DFT_A"
| 28> ! wB97X-D3 def2-TZVP TIGHTSCF CHELPG PMODEL
| 29>
| 30> %scf
| 31> MaxIter 1000
| 32> end
| 33>
| 34> * xyz 0 1
| 35>   C                      0.049032             -10.783737           -3.547147
| 36>   O                      -1.245113            -10.968864           -2.996254
| 37>   H                      -1.364851            -11.804296           -2.480069
| 38>   H                      0.119904             -9.931125            -4.234255
| 39>   H                      0.661525             -10.373009           -2.824909
| 40>   H                      0.387264             -11.742814           -4.004112
| 41>   C                    : -1.049376            -6.741063            -1.692879
| 42>   O                    : -1.129249            -7.289579            -2.969097
| 43>   H                    : -0.229527            -7.260778            -3.337332
| 44>   H                    : -1.107026            -5.652595            -1.728562
| 45>   H                    : -1.851212            -7.119840            -1.114587
| 46>   H                    : -0.121948            -7.036954            -1.131693
| 47> *
| 48>
| 49> #Run DFT-D3 single point of the particle with dimer basis set
| 50> $new_job
| 51> %base "5-33_DFT_B"
| 52> ! wB97X-D3 def2-TZVP TIGHTSCF CHELPG PMODEL
| 53>
| 54> %scf
| 55> MaxIter 1000
| 56> end
| 57>
| 58> * xyz 0 1
| 59>   C                    : 0.049032             -10.783737           -3.547147
| 60>   O                    : -1.245113            -10.968864           -2.996254
| 61>   H                    : -1.364851            -11.804296           -2.480069
| 62>   H                    : 0.119904             -9.931125            -4.234255
| 63>   H                    : 0.661525             -10.373009           -2.824909
| 64>   H                    : 0.387264             -11.742814           -4.004112
| 65>   C                      -1.049376            -6.741063            -1.692879
| 66>   O                      -1.129249            -7.289579            -2.969097
| 67>   H                      -0.229527            -7.260778            -3.337332
| 68>   H                      -1.107026            -5.652595            -1.728562
| 69>   H                      -1.851212            -7.119840            -1.114587
| 70>   H                      -0.121948            -7.036954            -1.131693
| 71> *
| 72>
| 73>                          ****END OF INPUT****
 Total Charge           Charge          ....    0
 Multiplicity           Mult            ....    1
 Number of Electrons    NEL             ....   36
Dispersion correction           -0.001482532
FINAL SINGLE POINT ENERGY      -231.458325312052
Dispersion correction           -0.000251193
FINAL SINGLE POINT ENERGY      -115.724248516820

CARTESIAN COORDINATES (ANGSTROEM)
---------------------------------
  C      0.049032  -10.783737   -3.547147
  O     -1.245113  -10.968864   -2.996254
  H     -1.364851  -11.804296   -2.480069
  H      0.119904   -9.931125   -4.234255
  H      0.661525  -10.373009   -2.824909
  H      0.387264  -11.742814   -4.004112
  C     -1.049376   -6.741063   -1.692879
  O     -1.129249   -7.289579   -2.969097
  H     -0.229527   -7.260778   -3.337332
  H     -1.107026   -5.652595   -1.728562
  H     -1.851212   -7.119840   -1.114587
  H     -0.121948   -7.036954   -1.131693

 Multiplicity           Mult            ....    1
 Number of Electrons    NEL             ....   18
 Basis Dimension        Dim             ....  172

ORBITAL ENERGIES
----------------

  NO   OCC          E(Eh)            E(eV)
   0   2.0000     -19.232775      -523.3504
   1   2.0000     -10.309716      -280.5416
   2   2.0000      -1.142978       -31.1020
   3   2.0000      -0.794365       -21.6158
   4   2.0000      -0.612887       -16.6775
   5   2.0000      -0.547810       -14.9067
   6   2.0000      -0.529257       -14.4018
   7   2.0000      -0.433623       -11.7995
   8   2.0000      -0.373932       -10.1752
   9   0.0000       0.085026         2.3137
  10   0.0000       0.122538         3.3344
  11   0.0000       0.150384         4.0922
  12   0.0000       0.173803         4.7294
  13   0.0000       0.194938         5.3045

MULLIKEN ATOMIC CHARGES
-----------------------
   0 C :   -0.002259
   1 O :    0.000315
   2 H :    0.000015
   3 H :   -0.002963
   4 H :   -0.001084
   5 H :   -0.000473
   6 C :   -0.168732
   7 O :   -0.467169
   8 H :    0.319921
   9 H :    0.101870
  10 H :    0.121767
  11 H :    0.098792
Sum of atomic charges:   -0.0000000

LOEWDIN ATOMIC CHARGES
----------------------
   0 C :   -0.005224
   1 O :   -0.000827
   2 H :   -0.000046
   3 H :   -0.002265
   4 H :   -0.000723
   5 H :   -0.000134
   6 C :   -0.404549
   7 O :   -0.059703
   8 H :    0.180115
   9 H :    0.093681
  10 H :    0.099838
  11 H :    0.099838

  Mayer bond orders larger than 0.1
B(  6-C ,  7-O ) :   1.0015 B(  6-C ,  9-H ) :   0.9738 B(  6-C , 10-H ) :   0.9762
B(  6-C , 11-H ) :   0.9794 B(  7-O ,  8-H ) :   0.8953

Dispersion correction           -0.000231423
FINAL SINGLE POINT ENERGY      -115.735421117027

DIPOLE MOMENT
-------------
                                X             Y             Z
Electronic contribution:     -0.29672      -0.71583      -1.67311
Nuclear contribution   :      0.87676       0.93692       1.93874
                        -----------------------------------------
Total Dipole Moment    :      0.58004       0.22109       0.26563
                        -----------------------------------------
Magnitude (a.u.)       :      0.67519
Magnitude (Debye)      :      1.71620

Rotational constants in cm-1:     4.283413     0.852948     0.824808
Rotational constants in MHz : 128413.500021 25570.734384 24727.117719

                             ****ORCA TERMINATED NORMALLY****
TOTAL RUN TIME: 0 days 0 hours 0 minutes 56 seconds 350 msec
