                         Program Version 4.1.2  - RELEASE  -
|  1> #Run DFT-D3 single point of the dimer
|  2> ! wB97X-D3 def2-TZVP TIGHTSCF CHELPG PMODEL PAL8
|  3>
|  4> %base "10-63_DFT_AB"
|  5>
|  6> %scf
|  7> MaxIter 1000
|  8> end
|  9>
| 10> * xyz 0 1
| 11>   C                      6.480167             4.850157             8.017725
| 12>   O                      6.846940             3.890680             7.044795
| 13>   H                      7.195709             4.304133             6.297054
| 14>   H                      7.306813             5.169564             8.669647
| 15>   H                      6.202793             5.826223             7.485602
| 16>   H                      5.554086             4.491351             8.572135
| 17>   C                      3.639988             6.357065             6.076319
| 18>   O                      4.405180             7.512862             5.781901
| 19>   H                      3.861962             8.228284             5.423984
| 20>   H                      2.636027             6.467495             5.668467
| 21>   H                      3.983143             5.472368             5.565540
| 22>   H                      3.713153             6.233174             7.130214
| 23> *
| 24>
| 25> #Run DFT-D3 single point of the molecule with dimer basis set
| 26> $new_job
| 27> %base "10-63_DFT_A"
| 28> ! wB97X-D3 def2-TZVP TIGHTSCF CHELPG PMODEL
| 29>
| 30> %scf
| 31> MaxIter 1000
| 32> end
| 33>
| 34> * xyz 0 1
| 35>   C                      6.480167             4.850157             8.017725
| 36>   O                      6.846940             3.890680             7.044795
| 37>   H                      7.195709             4.304133             6.297054
| 38>   H                      7.306813             5.169564             8.669647
| 39>   H                      6.202793             5.826223             7.485602
| 40>   H                      5.554086             4.491351             8.572135
| 41>   C                    : 3.639988             6.357065             6.076319
| 42>   O                    : 4.405180             7.512862             5.781901
| 43>   H                    : 3.861962             8.228284             5.423984
| 44>   H                    : 2.636027             6.467495             5.668467
| 45>   H                    : 3.983143             5.472368             5.565540
| 46>   H                    : 3.713153             6.233174             7.130214
| 47> *
| 48>
| 49> #Run DFT-D3 single point of the particle with dimer basis set
| 50> $new_job
| 51> %base "10-63_DFT_B"
| 52> ! wB97X-D3 def2-TZVP TIGHTSCF CHELPG PMODEL
| 53>
| 54> %scf
| 55> MaxIter 1000
| 56> end
| 57>
| 58> * xyz 0 1
| 59>   C                    : 6.480167             4.850157             8.017725
| 60>   O                    : 6.846940             3.890680             7.044795
| 61>   H                    : 7.195709             4.304133             6.297054
| 62>   H                    : 7.306813             5.169564             8.669647
| 63>   H                    : 6.202793             5.826223             7.485602
| 64>   H                    : 5.554086             4.491351             8.572135
| 65>   C                      3.639988             6.357065             6.076319
| 66>   O                      4.405180             7.512862             5.781901
| 67>   H                      3.861962             8.228284             5.423984
| 68>   H                      2.636027             6.467495             5.668467
| 69>   H                      3.983143             5.472368             5.565540
| 70>   H                      3.713153             6.233174             7.130214
| 71> *
| 72>
| 73>                          ****END OF INPUT****
 Total Charge           Charge          ....    0
 Multiplicity           Mult            ....    1
 Number of Electrons    NEL             ....   36
Dispersion correction           -0.001814082
FINAL SINGLE POINT ENERGY      -231.464543530184
Dispersion correction           -0.000255562
FINAL SINGLE POINT ENERGY      -115.730660435245

CARTESIAN COORDINATES (ANGSTROEM)
---------------------------------
  C      6.480167    4.850157    8.017725
  O      6.846940    3.890680    7.044795
  H      7.195709    4.304133    6.297054
  H      7.306813    5.169564    8.669647
  H      6.202793    5.826223    7.485602
  H      5.554086    4.491351    8.572135
  C      3.639988    6.357065    6.076319
  O      4.405180    7.512862    5.781901
  H      3.861962    8.228284    5.423984
  H      2.636027    6.467495    5.668467
  H      3.983143    5.472368    5.565540
  H      3.713153    6.233174    7.130214

 Multiplicity           Mult            ....    1
 Number of Electrons    NEL             ....   18
 Basis Dimension        Dim             ....  172

ORBITAL ENERGIES
----------------

  NO   OCC          E(Eh)            E(eV)
   0   2.0000     -19.225142      -523.1427
   1   2.0000     -10.307582      -280.4836
   2   2.0000      -1.129437       -30.7335
   3   2.0000      -0.799406       -21.7529
   4   2.0000      -0.610806       -16.6209
   5   2.0000      -0.547556       -14.8998
   6   2.0000      -0.528000       -14.3676
   7   2.0000      -0.425197       -11.5702
   8   2.0000      -0.371660       -10.1134
   9   0.0000       0.091523         2.4905
  10   0.0000       0.118050         3.2123
  11   0.0000       0.158805         4.3213
  12   0.0000       0.164329         4.4716
  13   0.0000       0.194950         5.3049

MULLIKEN ATOMIC CHARGES
-----------------------
   0 C :   -0.000798
   1 O :    0.000177
   2 H :    0.000001
   3 H :    0.000126
   4 H :   -0.000214
   5 H :   -0.000389
   6 C :   -0.160927
   7 O :   -0.490599
   8 H :    0.316989
   9 H :    0.111631
  10 H :    0.106027
  11 H :    0.117974
Sum of atomic charges:    0.0000000

LOEWDIN ATOMIC CHARGES
----------------------
   0 C :   -0.003480
   1 O :   -0.000117
   2 H :   -0.000106
   3 H :   -0.000014
   4 H :   -0.003053
   5 H :   -0.000825
   6 C :   -0.371216
   7 O :   -0.087488
   8 H :    0.170823
   9 H :    0.098713
  10 H :    0.098575
  11 H :    0.098188

  Mayer bond orders larger than 0.1
B(  6-C ,  7-O ) :   0.9958 B(  6-C ,  9-H ) :   0.9812 B(  6-C , 10-H ) :   0.9708
B(  6-C , 11-H ) :   0.9835 B(  7-O ,  8-H ) :   0.8963

Dispersion correction           -0.000241313
FINAL SINGLE POINT ENERGY      -115.731626676562

DIPOLE MOMENT
-------------
                                X             Y             Z
Electronic contribution:      1.04203       1.34852      -0.26079
Nuclear contribution   :     -1.72785      -1.35957       0.12567
                        -----------------------------------------
Total Dipole Moment    :     -0.68582      -0.01105      -0.13511
                        -----------------------------------------
Magnitude (a.u.)       :      0.69909
Magnitude (Debye)      :      1.77695

Rotational constants in cm-1:     4.398591     0.831847     0.802334
Rotational constants in MHz : 131866.439760 24938.152966 24053.360927

                             ****ORCA TERMINATED NORMALLY****
TOTAL RUN TIME: 0 days 0 hours 1 minutes 6 seconds 9 msec
