                         Program Version 4.1.2  - RELEASE  -
|  1> #Run DFT-D3 single point of the dimer
|  2> ! wB97X-D3 def2-TZVP TIGHTSCF CHELPG PMODEL PAL8
|  3>
|  4> %base "20-107_DFT_AB"
|  5>
|  6> %scf
|  7> MaxIter 1000
|  8> end
|  9>
| 10> * xyz 0 1
| 11>   C                      1.310873             5.480661             -10.596627
| 12>   O                      0.747847             6.689534             -11.032154
| 13>   H                      0.824475             7.305448             -10.293095
| 14>   H                      1.374526             4.828493             -11.516798
| 15>   H                      2.282109             5.512912             -10.040844
| 16>   H                      0.718205             4.863651             -9.854394
| 17>   C                      -1.391945            3.297520             -7.878447
| 18>   O                      -1.548555            4.014057             -9.007819
| 19>   H                      -2.491489            4.133702             -9.258821
| 20>   H                      -1.953114            3.750853             -7.007505
| 21>   H                      -1.819787            2.295117             -8.033450
| 22>   H                      -0.295701            3.124531             -7.632486
| 23> *
| 24>
| 25> #Run DFT-D3 single point of the molecule with dimer basis set
| 26> $new_job
| 27> %base "20-107_DFT_A"
| 28> ! wB97X-D3 def2-TZVP TIGHTSCF CHELPG PMODEL
| 29>
| 30> %scf
| 31> MaxIter 1000
| 32> end
| 33>
| 34> * xyz 0 1
| 35>   C                      1.310873             5.480661             -10.596627
| 36>   O                      0.747847             6.689534             -11.032154
| 37>   H                      0.824475             7.305448             -10.293095
| 38>   H                      1.374526             4.828493             -11.516798
| 39>   H                      2.282109             5.512912             -10.040844
| 40>   H                      0.718205             4.863651             -9.854394
| 41>   C                    : -1.391945            3.297520             -7.878447
| 42>   O                    : -1.548555            4.014057             -9.007819
| 43>   H                    : -2.491489            4.133702             -9.258821
| 44>   H                    : -1.953114            3.750853             -7.007505
| 45>   H                    : -1.819787            2.295117             -8.033450
| 46>   H                    : -0.295701            3.124531             -7.632486
| 47> *
| 48>
| 49> #Run DFT-D3 single point of the particle with dimer basis set
| 50> $new_job
| 51> %base "20-107_DFT_B"
| 52> ! wB97X-D3 def2-TZVP TIGHTSCF CHELPG PMODEL
| 53>
| 54> %scf
| 55> MaxIter 1000
| 56> end
| 57>
| 58> * xyz 0 1
| 59>   C                    : 1.310873             5.480661             -10.596627
| 60>   O                    : 0.747847             6.689534             -11.032154
| 61>   H                    : 0.824475             7.305448             -10.293095
| 62>   H                    : 1.374526             4.828493             -11.516798
| 63>   H                    : 2.282109             5.512912             -10.040844
| 64>   H                    : 0.718205             4.863651             -9.854394
| 65>   C                      -1.391945            3.297520             -7.878447
| 66>   O                      -1.548555            4.014057             -9.007819
| 67>   H                      -2.491489            4.133702             -9.258821
| 68>   H                      -1.953114            3.750853             -7.007505
| 69>   H                      -1.819787            2.295117             -8.033450
| 70>   H                      -0.295701            3.124531             -7.632486
| 71> *
| 72>
| 73>                          ****END OF INPUT****
 Total Charge           Charge          ....    0
 Multiplicity           Mult            ....    1
 Number of Electrons    NEL             ....   36
Dispersion correction           -0.001421198
FINAL SINGLE POINT ENERGY      -231.462172083069
Dispersion correction           -0.000273355
FINAL SINGLE POINT ENERGY      -115.730973308781

CARTESIAN COORDINATES (ANGSTROEM)
---------------------------------
  C      1.310873    5.480661  -10.596627
  O      0.747847    6.689534  -11.032154
  H      0.824475    7.305448  -10.293095
  H      1.374526    4.828493  -11.516798
  H      2.282109    5.512912  -10.040844
  H      0.718205    4.863651   -9.854394
  C     -1.391945    3.297520   -7.878447
  O     -1.548555    4.014057   -9.007819
  H     -2.491489    4.133702   -9.258821
  H     -1.953114    3.750853   -7.007505
  H     -1.819787    2.295117   -8.033450
  H     -0.295701    3.124531   -7.632486

 Multiplicity           Mult            ....    1
 Number of Electrons    NEL             ....   18
 Basis Dimension        Dim             ....  172

ORBITAL ENERGIES
----------------

  NO   OCC          E(Eh)            E(eV)
   0   2.0000     -19.230850      -523.2980
   1   2.0000     -10.316374      -280.7228
   2   2.0000      -1.152896       -31.3719
   3   2.0000      -0.786484       -21.4013
   4   2.0000      -0.620792       -16.8926
   5   2.0000      -0.545511       -14.8441
   6   2.0000      -0.535147       -14.5621
   7   2.0000      -0.420793       -11.4504
   8   2.0000      -0.365377        -9.9424
   9   0.0000       0.097665         2.6576
  10   0.0000       0.117445         3.1958
  11   0.0000       0.150641         4.0992
  12   0.0000       0.176758         4.8098
  13   0.0000       0.194882         5.3030

MULLIKEN ATOMIC CHARGES
-----------------------
   0 C :    0.000423
   1 O :   -0.000170
   2 H :   -0.000136
   3 H :   -0.000160
   4 H :   -0.000074
   5 H :   -0.004813
   6 C :   -0.138279
   7 O :   -0.462854
   8 H :    0.319885
   9 H :    0.084784
  10 H :    0.087975
  11 H :    0.113420
Sum of atomic charges:   -0.0000000

LOEWDIN ATOMIC CHARGES
----------------------
   0 C :   -0.004754
   1 O :   -0.000055
   2 H :   -0.000080
   3 H :   -0.000127
   4 H :   -0.000023
   5 H :   -0.008614
   6 C :   -0.446603
   7 O :   -0.029397
   8 H :    0.187941
   9 H :    0.094988
  10 H :    0.090208
  11 H :    0.116517

  Mayer bond orders larger than 0.1
B(  6-C ,  7-O ) :   1.0052 B(  6-C ,  9-H ) :   0.9743 B(  6-C , 10-H ) :   0.9810
B(  6-C , 11-H ) :   0.9675 B(  7-O ,  8-H ) :   0.8835

Dispersion correction           -0.000227729
FINAL SINGLE POINT ENERGY      -115.730283247127

DIPOLE MOMENT
-------------
                                X             Y             Z
Electronic contribution:     -0.03319       1.05257      -1.54200
Nuclear contribution   :     -0.52106      -1.24378       1.76482
                        -----------------------------------------
Total Dipole Moment    :     -0.55425      -0.19121       0.22283
                        -----------------------------------------
Magnitude (a.u.)       :      0.62722
Magnitude (Debye)      :      1.59427

Rotational constants in cm-1:     4.152061     0.888880     0.849708
Rotational constants in MHz : 124475.646905 26647.964867 25473.592180

                             ****ORCA TERMINATED NORMALLY****
TOTAL RUN TIME: 0 days 0 hours 1 minutes 6 seconds 977 msec
