                         Program Version 4.1.2  - RELEASE  -
|  1> #Run DFT-D3 single point of the dimer
|  2> ! wB97X-D3 def2-TZVP TIGHTSCF CHELPG PMODEL PAL8
|  3>
|  4> %base "5-147_DFT_AB"
|  5>
|  6> %scf
|  7> MaxIter 1000
|  8> end
|  9>
| 10> * xyz 0 1
| 11>   C                      8.147362             3.621650             -3.749684
| 12>   O                      8.053980             4.057583             -2.454928
| 13>   H                      7.472880             3.409524             -2.063040
| 14>   H                      7.820027             2.626620             -3.885421
| 15>   H                      7.487367             4.180078             -4.434288
| 16>   H                      9.216773             3.642630             -4.117676
| 17>   C                      9.745298             5.083402             1.782673
| 18>   O                      10.423921            6.121988             1.166058
| 19>   H                      10.411888            5.829857             0.220622
| 20>   H                      8.651582             5.107699             1.579043
| 21>   H                      10.105484            4.151773             1.427554
| 22>   H                      9.845843             5.177307             2.919829
| 23> *
| 24>
| 25> #Run DFT-D3 single point of the molecule with dimer basis set
| 26> $new_job
| 27> %base "5-147_DFT_A"
| 28> ! wB97X-D3 def2-TZVP TIGHTSCF CHELPG PMODEL
| 29>
| 30> %scf
| 31> MaxIter 1000
| 32> end
| 33>
| 34> * xyz 0 1
| 35>   C                      8.147362             3.621650             -3.749684
| 36>   O                      8.053980             4.057583             -2.454928
| 37>   H                      7.472880             3.409524             -2.063040
| 38>   H                      7.820027             2.626620             -3.885421
| 39>   H                      7.487367             4.180078             -4.434288
| 40>   H                      9.216773             3.642630             -4.117676
| 41>   C                    : 9.745298             5.083402             1.782673
| 42>   O                    : 10.423921            6.121988             1.166058
| 43>   H                    : 10.411888            5.829857             0.220622
| 44>   H                    : 8.651582             5.107699             1.579043
| 45>   H                    : 10.105484            4.151773             1.427554
| 46>   H                    : 9.845843             5.177307             2.919829
| 47> *
| 48>
| 49> #Run DFT-D3 single point of the particle with dimer basis set
| 50> $new_job
| 51> %base "5-147_DFT_B"
| 52> ! wB97X-D3 def2-TZVP TIGHTSCF CHELPG PMODEL
| 53>
| 54> %scf
| 55> MaxIter 1000
| 56> end
| 57>
| 58> * xyz 0 1
| 59>   C                    : 8.147362             3.621650             -3.749684
| 60>   O                    : 8.053980             4.057583             -2.454928
| 61>   H                    : 7.472880             3.409524             -2.063040
| 62>   H                    : 7.820027             2.626620             -3.885421
| 63>   H                    : 7.487367             4.180078             -4.434288
| 64>   H                    : 9.216773             3.642630             -4.117676
| 65>   C                      9.745298             5.083402             1.782673
| 66>   O                      10.423921            6.121988             1.166058
| 67>   H                      10.411888            5.829857             0.220622
| 68>   H                      8.651582             5.107699             1.579043
| 69>   H                      10.105484            4.151773             1.427554
| 70>   H                      9.845843             5.177307             2.919829
| 71> *
| 72>
| 73>                          ****END OF INPUT****
 Total Charge           Charge          ....    0
 Multiplicity           Mult            ....    1
 Number of Electrons    NEL             ....   36
Dispersion correction           -0.000723924
FINAL SINGLE POINT ENERGY      -231.462719075052
Dispersion correction           -0.000222055
FINAL SINGLE POINT ENERGY      -115.730217257540

CARTESIAN COORDINATES (ANGSTROEM)
---------------------------------
  C      8.147362    3.621650   -3.749684
  O      8.053980    4.057583   -2.454928
  H      7.472880    3.409524   -2.063040
  H      7.820027    2.626620   -3.885421
  H      7.487367    4.180078   -4.434288
  H      9.216773    3.642630   -4.117676
  C      9.745298    5.083402    1.782673
  O     10.423921    6.121988    1.166058
  H     10.411888    5.829857    0.220622
  H      8.651582    5.107699    1.579043
  H     10.105484    4.151773    1.427554
  H      9.845843    5.177307    2.919829

 Multiplicity           Mult            ....    1
 Number of Electrons    NEL             ....   18
 Basis Dimension        Dim             ....  172

ORBITAL ENERGIES
----------------

  NO   OCC          E(Eh)            E(eV)
   0   2.0000     -19.234580      -523.3995
   1   2.0000     -10.314263      -280.6654
   2   2.0000      -1.145562       -31.1723
   3   2.0000      -0.785224       -21.3670
   4   2.0000      -0.616004       -16.7623
   5   2.0000      -0.545279       -14.8378
   6   2.0000      -0.524308       -14.2671
   7   2.0000      -0.437773       -11.9124
   8   2.0000      -0.370388       -10.0788
   9   0.0000       0.077032         2.0961
  10   0.0000       0.108104         2.9417
  11   0.0000       0.150707         4.1010
  12   0.0000       0.170130         4.6295
  13   0.0000       0.192047         5.2259

MULLIKEN ATOMIC CHARGES
-----------------------
   0 C :    0.000002
   1 O :    0.000004
   2 H :   -0.000047
   3 H :   -0.000001
   4 H :   -0.000000
   5 H :    0.000000
   6 C :   -0.170076
   7 O :   -0.456294
   8 H :    0.315771
   9 H :    0.095791
  10 H :    0.099930
  11 H :    0.114920
Sum of atomic charges:    0.0000000

LOEWDIN ATOMIC CHARGES
----------------------
   0 C :   -0.000010
   1 O :   -0.000051
   2 H :   -0.000030
   3 H :   -0.000000
   4 H :   -0.000000
   5 H :   -0.000001
   6 C :   -0.419935
   7 O :   -0.068194
   8 H :    0.192586
   9 H :    0.093885
  10 H :    0.084573
  11 H :    0.117177

  Mayer bond orders larger than 0.1
B(  6-C ,  7-O ) :   1.0055 B(  6-C ,  9-H ) :   0.9716 B(  6-C , 10-H ) :   0.9841
B(  6-C , 11-H ) :   0.9721 B(  7-O ,  8-H ) :   0.8972

Dispersion correction           -0.000214835
FINAL SINGLE POINT ENERGY      -115.730958309774

DIPOLE MOMENT
-------------
                                X             Y             Z
Electronic contribution:      0.99937       1.42731      -0.70457
Nuclear contribution   :     -1.23902      -1.99328       0.34458
                        -----------------------------------------
Total Dipole Moment    :     -0.23965      -0.56598      -0.35999
                        -----------------------------------------
Magnitude (a.u.)       :      0.71229
Magnitude (Debye)      :      1.81049

Rotational constants in cm-1:     4.112497     0.869694     0.825360
Rotational constants in MHz : 123289.570101 26072.759871 24743.661126

                             ****ORCA TERMINATED NORMALLY****
TOTAL RUN TIME: 0 days 0 hours 0 minutes 58 seconds 754 msec
