                         Program Version 4.1.2  - RELEASE  -
|  1> #Run DFT-D3 single point of the dimer
|  2> ! wB97X-D3 def2-TZVP TIGHTSCF CHELPG PMODEL PAL8
|  3>
|  4> %base "3-18_DFT_AB"
|  5>
|  6> %scf
|  7> MaxIter 1000
|  8> end
|  9>
| 10> * xyz 0 1
| 11>   C                      0.141561             6.247437             4.342902
| 12>   O                      -0.671210            6.055133             5.470995
| 13>   H                      -0.143852            5.652897             6.120910
| 14>   H                      0.997028             6.871239             4.544806
| 15>   H                      0.411989             5.326716             3.898990
| 16>   H                      -0.387381            6.739469             3.540981
| 17>   C                      -3.721515            7.114189             5.374915
| 18>   O                      -2.825459            7.112862             4.252988
| 19>   H                      -2.702573            6.143561             4.049319
| 20>   H                      -3.774392            8.048358             5.907747
| 21>   H                      -4.780194            6.957039             5.092599
| 22>   H                      -3.378223            6.325659             6.047585
| 23> *
| 24>
| 25> #Run DFT-D3 single point of the molecule with dimer basis set
| 26> $new_job
| 27> %base "3-18_DFT_A"
| 28> ! wB97X-D3 def2-TZVP TIGHTSCF CHELPG PMODEL
| 29>
| 30> %scf
| 31> MaxIter 1000
| 32> end
| 33>
| 34> * xyz 0 1
| 35>   C                      0.141561             6.247437             4.342902
| 36>   O                      -0.671210            6.055133             5.470995
| 37>   H                      -0.143852            5.652897             6.120910
| 38>   H                      0.997028             6.871239             4.544806
| 39>   H                      0.411989             5.326716             3.898990
| 40>   H                      -0.387381            6.739469             3.540981
| 41>   C                    : -3.721515            7.114189             5.374915
| 42>   O                    : -2.825459            7.112862             4.252988
| 43>   H                    : -2.702573            6.143561             4.049319
| 44>   H                    : -3.774392            8.048358             5.907747
| 45>   H                    : -4.780194            6.957039             5.092599
| 46>   H                    : -3.378223            6.325659             6.047585
| 47> *
| 48>
| 49> #Run DFT-D3 single point of the particle with dimer basis set
| 50> $new_job
| 51> %base "3-18_DFT_B"
| 52> ! wB97X-D3 def2-TZVP TIGHTSCF CHELPG PMODEL
| 53>
| 54> %scf
| 55> MaxIter 1000
| 56> end
| 57>
| 58> * xyz 0 1
| 59>   C                    : 0.141561             6.247437             4.342902
| 60>   O                    : -0.671210            6.055133             5.470995
| 61>   H                    : -0.143852            5.652897             6.120910
| 62>   H                    : 0.997028             6.871239             4.544806
| 63>   H                    : 0.411989             5.326716             3.898990
| 64>   H                    : -0.387381            6.739469             3.540981
| 65>   C                      -3.721515            7.114189             5.374915
| 66>   O                      -2.825459            7.112862             4.252988
| 67>   H                      -2.702573            6.143561             4.049319
| 68>   H                      -3.774392            8.048358             5.907747
| 69>   H                      -4.780194            6.957039             5.092599
| 70>   H                      -3.378223            6.325659             6.047585
| 71> *
| 72>
| 73>                          ****END OF INPUT****
 Total Charge           Charge          ....    0
 Multiplicity           Mult            ....    1
 Number of Electrons    NEL             ....   36
Dispersion correction           -0.002079455
FINAL SINGLE POINT ENERGY      -231.465392338582
Dispersion correction           -0.000225441
FINAL SINGLE POINT ENERGY      -115.733917847783

CARTESIAN COORDINATES (ANGSTROEM)
---------------------------------
  C      0.141561    6.247437    4.342902
  O     -0.671210    6.055133    5.470995
  H     -0.143852    5.652897    6.120910
  H      0.997028    6.871239    4.544806
  H      0.411989    5.326716    3.898990
  H     -0.387381    6.739469    3.540981
  C     -3.721515    7.114189    5.374915
  O     -2.825459    7.112862    4.252988
  H     -2.702573    6.143561    4.049319
  H     -3.774392    8.048358    5.907747
  H     -4.780194    6.957039    5.092599
  H     -3.378223    6.325659    6.047585

 Multiplicity           Mult            ....    1
 Number of Electrons    NEL             ....   18
 Basis Dimension        Dim             ....  172

ORBITAL ENERGIES
----------------

  NO   OCC          E(Eh)            E(eV)
   0   2.0000     -19.236707      -523.4574
   1   2.0000     -10.314720      -280.6778
   2   2.0000      -1.126570       -30.6555
   3   2.0000      -0.793671       -21.5969
   4   2.0000      -0.600581       -16.3426
   5   2.0000      -0.544834       -14.8257
   6   2.0000      -0.526867       -14.3368
   7   2.0000      -0.435881       -11.8609
   8   2.0000      -0.374149       -10.1811
   9   0.0000       0.082347         2.2408
  10   0.0000       0.130438         3.5494
  11   0.0000       0.145809         3.9677
  12   0.0000       0.173148         4.7116
  13   0.0000       0.195170         5.3108

MULLIKEN ATOMIC CHARGES
-----------------------
   0 C :   -0.010123
   1 O :   -0.004700
   2 H :   -0.000433
   3 H :   -0.000338
   4 H :    0.000952
   5 H :   -0.003240
   6 C :   -0.188430
   7 O :   -0.455999
   8 H :    0.321085
   9 H :    0.125125
  10 H :    0.105411
  11 H :    0.110687
Sum of atomic charges:    0.0000000

LOEWDIN ATOMIC CHARGES
----------------------
   0 C :   -0.017046
   1 O :   -0.016725
   2 H :   -0.000779
   3 H :   -0.000319
   4 H :   -0.000305
   5 H :   -0.007874
   6 C :   -0.376134
   7 O :   -0.078083
   8 H :    0.197284
   9 H :    0.103794
  10 H :    0.098019
  11 H :    0.098169

  Mayer bond orders larger than 0.1
B(  6-C ,  7-O ) :   0.9967 B(  6-C ,  9-H ) :   0.9740 B(  6-C , 10-H ) :   0.9718
B(  6-C , 11-H ) :   0.9857 B(  7-O ,  8-H ) :   0.8938

Dispersion correction           -0.000242850
FINAL SINGLE POINT ENERGY      -115.732183233516

DIPOLE MOMENT
-------------
                                X             Y             Z
Electronic contribution:      1.16742       0.23696      -1.42625
Nuclear contribution   :     -1.46690      -0.80254       1.76409
                        -----------------------------------------
Total Dipole Moment    :     -0.29948      -0.56558       0.33785
                        -----------------------------------------
Magnitude (a.u.)       :      0.72368
Magnitude (Debye)      :      1.83945

Rotational constants in cm-1:     4.253280     0.811454     0.780528
Rotational constants in MHz : 127510.134346 24326.782207 23399.649701

                             ****ORCA TERMINATED NORMALLY****
TOTAL RUN TIME: 0 days 0 hours 6 minutes 4 seconds 245 msec
