                         Program Version 4.1.2  - RELEASE  -
|  1> #Run DFT-D3 single point of the dimer
|  2> ! wB97X-D3 def2-TZVP TIGHTSCF CHELPG PMODEL PAL8
|  3>
|  4> %base "8-170_DFT_AB"
|  5>
|  6> %scf
|  7> MaxIter 1000
|  8> end
|  9>
| 10> * xyz 0 1
| 11>   C                      -1.927420            -4.681478            -0.819635
| 12>   O                      -1.601244            -3.450223            -0.213688
| 13>   H                      -0.920131            -3.522494            0.448102
| 14>   H                      -0.976342            -5.266866            -0.868850
| 15>   H                      -2.627015            -5.271775            -0.204945
| 16>   H                      -2.341092            -4.634469            -1.832706
| 17>   C                      -2.240861            0.064806             -1.018543
| 18>   O                      -2.993806            -0.543305            -0.032468
| 19>   H                      -2.582195            -1.426782            0.155260
| 20>   H                      -2.285940            -0.606545            -1.937746
| 21>   H                      -2.732843            1.063400             -1.222094
| 22>   H                      -1.160744            0.081916             -0.887985
| 23> *
| 24>
| 25> #Run DFT-D3 single point of the molecule with dimer basis set
| 26> $new_job
| 27> %base "8-170_DFT_A"
| 28> ! wB97X-D3 def2-TZVP TIGHTSCF CHELPG PMODEL
| 29>
| 30> %scf
| 31> MaxIter 1000
| 32> end
| 33>
| 34> * xyz 0 1
| 35>   C                      -1.927420            -4.681478            -0.819635
| 36>   O                      -1.601244            -3.450223            -0.213688
| 37>   H                      -0.920131            -3.522494            0.448102
| 38>   H                      -0.976342            -5.266866            -0.868850
| 39>   H                      -2.627015            -5.271775            -0.204945
| 40>   H                      -2.341092            -4.634469            -1.832706
| 41>   C                    : -2.240861            0.064806             -1.018543
| 42>   O                    : -2.993806            -0.543305            -0.032468
| 43>   H                    : -2.582195            -1.426782            0.155260
| 44>   H                    : -2.285940            -0.606545            -1.937746
| 45>   H                    : -2.732843            1.063400             -1.222094
| 46>   H                    : -1.160744            0.081916             -0.887985
| 47> *
| 48>
| 49> #Run DFT-D3 single point of the particle with dimer basis set
| 50> $new_job
| 51> %base "8-170_DFT_B"
| 52> ! wB97X-D3 def2-TZVP TIGHTSCF CHELPG PMODEL
| 53>
| 54> %scf
| 55> MaxIter 1000
| 56> end
| 57>
| 58> * xyz 0 1
| 59>   C                    : -1.927420            -4.681478            -0.819635
| 60>   O                    : -1.601244            -3.450223            -0.213688
| 61>   H                    : -0.920131            -3.522494            0.448102
| 62>   H                    : -0.976342            -5.266866            -0.868850
| 63>   H                    : -2.627015            -5.271775            -0.204945
| 64>   H                    : -2.341092            -4.634469            -1.832706
| 65>   C                      -2.240861            0.064806             -1.018543
| 66>   O                      -2.993806            -0.543305            -0.032468
| 67>   H                      -2.582195            -1.426782            0.155260
| 68>   H                      -2.285940            -0.606545            -1.937746
| 69>   H                      -2.732843            1.063400             -1.222094
| 70>   H                      -1.160744            0.081916             -0.887985
| 71> *
| 72>
| 73>                          ****END OF INPUT****
 Total Charge           Charge          ....    0
 Multiplicity           Mult            ....    1
 Number of Electrons    NEL             ....   36
Dispersion correction           -0.001538556
FINAL SINGLE POINT ENERGY      -231.468621595325
Dispersion correction           -0.000250231
FINAL SINGLE POINT ENERGY      -115.732667160679

CARTESIAN COORDINATES (ANGSTROEM)
---------------------------------
  C     -1.927420   -4.681478   -0.819635
  O     -1.601244   -3.450223   -0.213688
  H     -0.920131   -3.522494    0.448102
  H     -0.976342   -5.266866   -0.868850
  H     -2.627015   -5.271775   -0.204945
  H     -2.341092   -4.634469   -1.832706
  C     -2.240861    0.064806   -1.018543
  O     -2.993806   -0.543305   -0.032468
  H     -2.582195   -1.426782    0.155260
  H     -2.285940   -0.606545   -1.937746
  H     -2.732843    1.063400   -1.222094
  H     -1.160744    0.081916   -0.887985

 Multiplicity           Mult            ....    1
 Number of Electrons    NEL             ....   18
 Basis Dimension        Dim             ....  172

ORBITAL ENERGIES
----------------

  NO   OCC          E(Eh)            E(eV)
   0   2.0000     -19.234658      -523.4016
   1   2.0000     -10.318541      -280.7818
   2   2.0000      -1.142970       -31.1018
   3   2.0000      -0.785198       -21.3663
   4   2.0000      -0.621868       -16.9219
   5   2.0000      -0.530858       -14.4454
   6   2.0000      -0.526574       -14.3288
   7   2.0000      -0.439518       -11.9599
   8   2.0000      -0.364085        -9.9073
   9   0.0000       0.066333         1.8050
  10   0.0000       0.122019         3.3203
  11   0.0000       0.147622         4.0170
  12   0.0000       0.165051         4.4913
  13   0.0000       0.192522         5.2388

MULLIKEN ATOMIC CHARGES
-----------------------
   0 C :   -0.001134
   1 O :   -0.001586
   2 H :   -0.000413
   3 H :    0.000005
   4 H :    0.000106
   5 H :   -0.000001
   6 C :   -0.167746
   7 O :   -0.460732
   8 H :    0.315079
   9 H :    0.088152
  10 H :    0.123089
  11 H :    0.105179
Sum of atomic charges:   -0.0000000

LOEWDIN ATOMIC CHARGES
----------------------
   0 C :   -0.001016
   1 O :   -0.008759
   2 H :   -0.001069
   3 H :   -0.000030
   4 H :   -0.000021
   5 H :   -0.000047
   6 C :   -0.425041
   7 O :   -0.063015
   8 H :    0.192783
   9 H :    0.097241
  10 H :    0.118972
  11 H :    0.090000

  Mayer bond orders larger than 0.1
B(  6-C ,  7-O ) :   0.9953 B(  6-C ,  9-H ) :   0.9832 B(  6-C , 10-H ) :   0.9716
B(  6-C , 11-H ) :   0.9644 B(  7-O ,  8-H ) :   0.8988

Dispersion correction           -0.000228903
FINAL SINGLE POINT ENERGY      -115.728467233175

DIPOLE MOMENT
-------------
                                X             Y             Z
Electronic contribution:     -1.03570      -0.52449       1.46296
Nuclear contribution   :      1.57062       0.19462      -1.69153
                        -----------------------------------------
Total Dipole Moment    :      0.53492      -0.32987      -0.22857
                        -----------------------------------------
Magnitude (a.u.)       :      0.66873
Magnitude (Debye)      :      1.69977

Rotational constants in cm-1:     4.056318     0.871675     0.817334
Rotational constants in MHz : 121605.348444 26132.171112 24503.054608

                             ****ORCA TERMINATED NORMALLY****
TOTAL RUN TIME: 0 days 0 hours 0 minutes 44 seconds 289 msec
