                         Program Version 4.1.2  - RELEASE  -
|  1> #Run DFT-D3 single point of the dimer
|  2> ! wB97X-D3 def2-TZVP TIGHTSCF CHELPG PMODEL PAL8
|  3>
|  4> %base "6-127_DFT_AB"
|  5>
|  6> %scf
|  7> MaxIter 1000
|  8> end
|  9>
| 10> * xyz 0 1
| 11>   C                      -1.936839            -7.101095            -2.876770
| 12>   O                      -3.061484            -6.946725            -2.043370
| 13>   H                      -3.335684            -6.055807            -2.122500
| 14>   H                      -1.004453            -6.991422            -2.356135
| 15>   H                      -1.884352            -8.095574            -3.432958
| 16>   H                      -1.945391            -6.367581            -3.715468
| 17>   C                      0.465366             -6.483530            -5.802632
| 18>   O                      0.708144             -7.246900            -4.625524
| 19>   H                      1.628458             -6.955806            -4.395569
| 20>   H                      -0.143682            -5.607123            -5.628660
| 21>   H                      1.405965             -6.125129            -6.240279
| 22>   H                      0.071775             -7.043651            -6.518256
| 23> *
| 24>
| 25> #Run DFT-D3 single point of the molecule with dimer basis set
| 26> $new_job
| 27> %base "6-127_DFT_A"
| 28> ! wB97X-D3 def2-TZVP TIGHTSCF CHELPG PMODEL
| 29>
| 30> %scf
| 31> MaxIter 1000
| 32> end
| 33>
| 34> * xyz 0 1
| 35>   C                      -1.936839            -7.101095            -2.876770
| 36>   O                      -3.061484            -6.946725            -2.043370
| 37>   H                      -3.335684            -6.055807            -2.122500
| 38>   H                      -1.004453            -6.991422            -2.356135
| 39>   H                      -1.884352            -8.095574            -3.432958
| 40>   H                      -1.945391            -6.367581            -3.715468
| 41>   C                    : 0.465366             -6.483530            -5.802632
| 42>   O                    : 0.708144             -7.246900            -4.625524
| 43>   H                    : 1.628458             -6.955806            -4.395569
| 44>   H                    : -0.143682            -5.607123            -5.628660
| 45>   H                    : 1.405965             -6.125129            -6.240279
| 46>   H                    : 0.071775             -7.043651            -6.518256
| 47> *
| 48>
| 49> #Run DFT-D3 single point of the particle with dimer basis set
| 50> $new_job
| 51> %base "6-127_DFT_B"
| 52> ! wB97X-D3 def2-TZVP TIGHTSCF CHELPG PMODEL
| 53>
| 54> %scf
| 55> MaxIter 1000
| 56> end
| 57>
| 58> * xyz 0 1
| 59>   C                    : -1.936839            -7.101095            -2.876770
| 60>   O                    : -3.061484            -6.946725            -2.043370
| 61>   H                    : -3.335684            -6.055807            -2.122500
| 62>   H                    : -1.004453            -6.991422            -2.356135
| 63>   H                    : -1.884352            -8.095574            -3.432958
| 64>   H                    : -1.945391            -6.367581            -3.715468
| 65>   C                      0.465366             -6.483530            -5.802632
| 66>   O                      0.708144             -7.246900            -4.625524
| 67>   H                      1.628458             -6.955806            -4.395569
| 68>   H                      -0.143682            -5.607123            -5.628660
| 69>   H                      1.405965             -6.125129            -6.240279
| 70>   H                      0.071775             -7.043651            -6.518256
| 71> *
| 72>
| 73>                          ****END OF INPUT****
 Total Charge           Charge          ....    0
 Multiplicity           Mult            ....    1
 Number of Electrons    NEL             ....   36
Dispersion correction           -0.001890932
FINAL SINGLE POINT ENERGY      -231.459374057535
Dispersion correction           -0.000252825
FINAL SINGLE POINT ENERGY      -115.732346012041

CARTESIAN COORDINATES (ANGSTROEM)
---------------------------------
  C     -1.936839   -7.101095   -2.876770
  O     -3.061484   -6.946725   -2.043370
  H     -3.335684   -6.055807   -2.122500
  H     -1.004453   -6.991422   -2.356135
  H     -1.884352   -8.095574   -3.432958
  H     -1.945391   -6.367581   -3.715468
  C      0.465366   -6.483530   -5.802632
  O      0.708144   -7.246900   -4.625524
  H      1.628458   -6.955806   -4.395569
  H     -0.143682   -5.607123   -5.628660
  H      1.405965   -6.125129   -6.240279
  H      0.071775   -7.043651   -6.518256

 Multiplicity           Mult            ....    1
 Number of Electrons    NEL             ....   18
 Basis Dimension        Dim             ....  172

ORBITAL ENERGIES
----------------

  NO   OCC          E(Eh)            E(eV)
   0   2.0000     -19.234818      -523.4060
   1   2.0000     -10.301234      -280.3108
   2   2.0000      -1.131592       -30.7922
   3   2.0000      -0.802709       -21.8428
   4   2.0000      -0.606041       -16.4912
   5   2.0000      -0.551901       -15.0180
   6   2.0000      -0.526934       -14.3386
   7   2.0000      -0.438978       -11.9452
   8   2.0000      -0.377156       -10.2629
   9   0.0000       0.093637         2.5480
  10   0.0000       0.119181         3.2431
  11   0.0000       0.153733         4.1833
  12   0.0000       0.182024         4.9531
  13   0.0000       0.195594         5.3224

MULLIKEN ATOMIC CHARGES
-----------------------
   0 C :    0.014512
   1 O :   -0.000191
   2 H :   -0.000009
   3 H :   -0.010494
   4 H :   -0.004913
   5 H :   -0.002581
   6 C :   -0.170372
   7 O :   -0.468768
   8 H :    0.317909
   9 H :    0.105316
  10 H :    0.095198
  11 H :    0.124395
Sum of atomic charges:   -0.0000000

LOEWDIN ATOMIC CHARGES
----------------------
   0 C :   -0.013525
   1 O :   -0.000043
   2 H :   -0.000026
   3 H :   -0.005421
   4 H :   -0.002506
   5 H :   -0.002179
   6 C :   -0.366257
   7 O :   -0.077194
   8 H :    0.192067
   9 H :    0.097173
  10 H :    0.100261
  11 H :    0.077650

  Mayer bond orders larger than 0.1
B(  6-C ,  7-O ) :   1.0041 B(  6-C ,  9-H ) :   0.9750 B(  6-C , 10-H ) :   0.9881
B(  6-C , 11-H ) :   0.9791 B(  7-O ,  8-H ) :   0.8987

Dispersion correction           -0.000226425
FINAL SINGLE POINT ENERGY      -115.725104497956

DIPOLE MOMENT
-------------
                                X             Y             Z
Electronic contribution:      0.03646      -1.12519       1.48651
Nuclear contribution   :      0.44937       1.59064      -1.84630
                        -----------------------------------------
Total Dipole Moment    :      0.48583       0.46545      -0.35979
                        -----------------------------------------
Magnitude (a.u.)       :      0.76297
Magnitude (Debye)      :      1.93931

Rotational constants in cm-1:     4.440664     0.832462     0.801537
Rotational constants in MHz : 133127.765657 24956.589833 24029.486830

                             ****ORCA TERMINATED NORMALLY****
TOTAL RUN TIME: 0 days 0 hours 1 minutes 3 seconds 950 msec
