                         Program Version 4.1.2  - RELEASE  -
|  1> #Run DFT-D3 single point of the dimer
|  2> ! wB97X-D3 def2-TZVP TIGHTSCF CHELPG PMODEL PAL8
|  3>
|  4> %base "12-105_DFT_AB"
|  5>
|  6> %scf
|  7> MaxIter 1000
|  8> end
|  9>
| 10> * xyz 0 1
| 11>   C                      -4.396208            -10.088231           7.968100
| 12>   O                      -4.541358            -10.043016           9.397026
| 13>   H                      -5.374781            -10.508898           9.367996
| 14>   H                      -3.640328            -10.774000           7.645287
| 15>   H                      -5.301122            -10.360672           7.370571
| 16>   H                      -4.204147            -9.012225            7.653104
| 17>   C                      -1.295361            -8.553143            9.912112
| 18>   O                      -2.235925            -9.285352            10.685450
| 19>   H                      -2.934043            -9.682984            10.132829
| 20>   H                      -1.059672            -9.062657            8.946253
| 21>   H                      -1.589115            -7.485822            9.787120
| 22>   H                      -0.379330            -8.504913            10.464010
| 23> *
| 24>
| 25> #Run DFT-D3 single point of the molecule with dimer basis set
| 26> $new_job
| 27> %base "12-105_DFT_A"
| 28> ! wB97X-D3 def2-TZVP TIGHTSCF CHELPG PMODEL
| 29>
| 30> %scf
| 31> MaxIter 1000
| 32> end
| 33>
| 34> * xyz 0 1
| 35>   C                      -4.396208            -10.088231           7.968100
| 36>   O                      -4.541358            -10.043016           9.397026
| 37>   H                      -5.374781            -10.508898           9.367996
| 38>   H                      -3.640328            -10.774000           7.645287
| 39>   H                      -5.301122            -10.360672           7.370571
| 40>   H                      -4.204147            -9.012225            7.653104
| 41>   C                    : -1.295361            -8.553143            9.912112
| 42>   O                    : -2.235925            -9.285352            10.685450
| 43>   H                    : -2.934043            -9.682984            10.132829
| 44>   H                    : -1.059672            -9.062657            8.946253
| 45>   H                    : -1.589115            -7.485822            9.787120
| 46>   H                    : -0.379330            -8.504913            10.464010
| 47> *
| 48>
| 49> #Run DFT-D3 single point of the particle with dimer basis set
| 50> $new_job
| 51> %base "12-105_DFT_B"
| 52> ! wB97X-D3 def2-TZVP TIGHTSCF CHELPG PMODEL
| 53>
| 54> %scf
| 55> MaxIter 1000
| 56> end
| 57>
| 58> * xyz 0 1
| 59>   C                    : -4.396208            -10.088231           7.968100
| 60>   O                    : -4.541358            -10.043016           9.397026
| 61>   H                    : -5.374781            -10.508898           9.367996
| 62>   H                    : -3.640328            -10.774000           7.645287
| 63>   H                    : -5.301122            -10.360672           7.370571
| 64>   H                    : -4.204147            -9.012225            7.653104
| 65>   C                      -1.295361            -8.553143            9.912112
| 66>   O                      -2.235925            -9.285352            10.685450
| 67>   H                      -2.934043            -9.682984            10.132829
| 68>   H                      -1.059672            -9.062657            8.946253
| 69>   H                      -1.589115            -7.485822            9.787120
| 70>   H                      -0.379330            -8.504913            10.464010
| 71> *
| 72>
| 73>                          ****END OF INPUT****
 Total Charge           Charge          ....    0
 Multiplicity           Mult            ....    1
 Number of Electrons    NEL             ....   36
Dispersion correction           -0.001909138
FINAL SINGLE POINT ENERGY      -231.463707643249
Dispersion correction           -0.000233979
FINAL SINGLE POINT ENERGY      -115.723697680392

CARTESIAN COORDINATES (ANGSTROEM)
---------------------------------
  C     -4.396208  -10.088231    7.968100
  O     -4.541358  -10.043016    9.397026
  H     -5.374781  -10.508898    9.367996
  H     -3.640328  -10.774000    7.645287
  H     -5.301122  -10.360672    7.370571
  H     -4.204147   -9.012225    7.653104
  C     -1.295361   -8.553143    9.912112
  O     -2.235925   -9.285352   10.685450
  H     -2.934043   -9.682984   10.132829
  H     -1.059672   -9.062657    8.946253
  H     -1.589115   -7.485822    9.787120
  H     -0.379330   -8.504913   10.464010

 Multiplicity           Mult            ....    1
 Number of Electrons    NEL             ....   18
 Basis Dimension        Dim             ....  172

ORBITAL ENERGIES
----------------

  NO   OCC          E(Eh)            E(eV)
   0   2.0000     -19.230865      -523.2985
   1   2.0000     -10.315411      -280.6966
   2   2.0000      -1.128698       -30.7134
   3   2.0000      -0.795661       -21.6510
   4   2.0000      -0.605382       -16.4733
   5   2.0000      -0.540185       -14.6992
   6   2.0000      -0.527910       -14.3652
   7   2.0000      -0.427744       -11.6395
   8   2.0000      -0.373565       -10.1652
   9   0.0000       0.067296         1.8312
  10   0.0000       0.137411         3.7391
  11   0.0000       0.145771         3.9666
  12   0.0000       0.171830         4.6757
  13   0.0000       0.180417         4.9094

MULLIKEN ATOMIC CHARGES
-----------------------
   0 C :   -0.005465
   1 O :   -0.004805
   2 H :   -0.000463
   3 H :    0.000158
   4 H :   -0.000206
   5 H :    0.000572
   6 C :   -0.161228
   7 O :   -0.476774
   8 H :    0.318967
   9 H :    0.102613
  10 H :    0.101457
  11 H :    0.125173
Sum of atomic charges:   -0.0000000

LOEWDIN ATOMIC CHARGES
----------------------
   0 C :   -0.007850
   1 O :   -0.028575
   2 H :   -0.001121
   3 H :   -0.000530
   4 H :   -0.000143
   5 H :   -0.000475
   6 C :   -0.381679
   7 O :   -0.073706
   8 H :    0.190817
   9 H :    0.101275
  10 H :    0.099429
  11 H :    0.102558

  Mayer bond orders larger than 0.1
B(  6-C ,  7-O ) :   0.9937 B(  6-C ,  9-H ) :   0.9772 B(  6-C , 10-H ) :   0.9706
B(  6-C , 11-H ) :   0.9771 B(  7-O ,  8-H ) :   0.9002

Dispersion correction           -0.000265160
FINAL SINGLE POINT ENERGY      -115.735034757321

DIPOLE MOMENT
-------------
                                X             Y             Z
Electronic contribution:     -1.14977      -0.90370       1.05693
Nuclear contribution   :      1.11552       0.93723      -1.70418
                        -----------------------------------------
Total Dipole Moment    :     -0.03424       0.03353      -0.64725
                        -----------------------------------------
Magnitude (a.u.)       :      0.64902
Magnitude (Debye)      :      1.64969

Rotational constants in cm-1:     4.281846     0.815436     0.790331
Rotational constants in MHz : 128366.519154 24446.166352 23693.517978

                             ****ORCA TERMINATED NORMALLY****
TOTAL RUN TIME: 0 days 0 hours 1 minutes 7 seconds 900 msec
