                         Program Version 4.1.2  - RELEASE  -
|  1> #Run DFT-D3 single point of the dimer
|  2> ! wB97X-D3 def2-TZVP TIGHTSCF CHELPG PMODEL PAL8
|  3>
|  4> %base "8-80_DFT_AB"
|  5>
|  6> %scf
|  7> MaxIter 1000
|  8> end
|  9>
| 10> * xyz 0 1
| 11>   C                      6.555521             2.875121             5.302771
| 12>   O                      5.960526             2.912413             6.541502
| 13>   H                      5.034107             2.707951             6.433674
| 14>   H                      6.880396             3.815636             4.981021
| 15>   H                      7.546284             2.419773             5.320943
| 16>   H                      5.929050             2.395693             4.578541
| 17>   C                      6.544032             -0.473077            3.712911
| 18>   O                      7.906508             -0.325117            4.182643
| 19>   H                      8.557743             -0.777407            3.591954
| 20>   H                      6.299232             0.232570             2.974493
| 21>   H                      6.490442             -1.469732            3.134085
| 22>   H                      5.800592             -0.470221            4.596880
| 23> *
| 24>
| 25> #Run DFT-D3 single point of the molecule with dimer basis set
| 26> $new_job
| 27> %base "8-80_DFT_A"
| 28> ! wB97X-D3 def2-TZVP TIGHTSCF CHELPG PMODEL
| 29>
| 30> %scf
| 31> MaxIter 1000
| 32> end
| 33>
| 34> * xyz 0 1
| 35>   C                      6.555521             2.875121             5.302771
| 36>   O                      5.960526             2.912413             6.541502
| 37>   H                      5.034107             2.707951             6.433674
| 38>   H                      6.880396             3.815636             4.981021
| 39>   H                      7.546284             2.419773             5.320943
| 40>   H                      5.929050             2.395693             4.578541
| 41>   C                    : 6.544032             -0.473077            3.712911
| 42>   O                    : 7.906508             -0.325117            4.182643
| 43>   H                    : 8.557743             -0.777407            3.591954
| 44>   H                    : 6.299232             0.232570             2.974493
| 45>   H                    : 6.490442             -1.469732            3.134085
| 46>   H                    : 5.800592             -0.470221            4.596880
| 47> *
| 48>
| 49> #Run DFT-D3 single point of the particle with dimer basis set
| 50> $new_job
| 51> %base "8-80_DFT_B"
| 52> ! wB97X-D3 def2-TZVP TIGHTSCF CHELPG PMODEL
| 53>
| 54> %scf
| 55> MaxIter 1000
| 56> end
| 57>
| 58> * xyz 0 1
| 59>   C                    : 6.555521             2.875121             5.302771
| 60>   O                    : 5.960526             2.912413             6.541502
| 61>   H                    : 5.034107             2.707951             6.433674
| 62>   H                    : 6.880396             3.815636             4.981021
| 63>   H                    : 7.546284             2.419773             5.320943
| 64>   H                    : 5.929050             2.395693             4.578541
| 65>   C                      6.544032             -0.473077            3.712911
| 66>   O                      7.906508             -0.325117            4.182643
| 67>   H                      8.557743             -0.777407            3.591954
| 68>   H                      6.299232             0.232570             2.974493
| 69>   H                      6.490442             -1.469732            3.134085
| 70>   H                      5.800592             -0.470221            4.596880
| 71> *
| 72>
| 73>                          ****END OF INPUT****
 Total Charge           Charge          ....    0
 Multiplicity           Mult            ....    1
 Number of Electrons    NEL             ....   36
Dispersion correction           -0.001830472
FINAL SINGLE POINT ENERGY      -231.455883052000
Dispersion correction           -0.000227656
FINAL SINGLE POINT ENERGY      -115.728633778053

CARTESIAN COORDINATES (ANGSTROEM)
---------------------------------
  C      6.555521    2.875121    5.302771
  O      5.960526    2.912413    6.541502
  H      5.034107    2.707951    6.433674
  H      6.880396    3.815636    4.981021
  H      7.546284    2.419773    5.320943
  H      5.929050    2.395693    4.578541
  C      6.544032   -0.473077    3.712911
  O      7.906508   -0.325117    4.182643
  H      8.557743   -0.777407    3.591954
  H      6.299232    0.232570    2.974493
  H      6.490442   -1.469732    3.134085
  H      5.800592   -0.470221    4.596880

 Multiplicity           Mult            ....    1
 Number of Electrons    NEL             ....   18
 Basis Dimension        Dim             ....  172

ORBITAL ENERGIES
----------------

  NO   OCC          E(Eh)            E(eV)
   0   2.0000     -19.230070      -523.2768
   1   2.0000     -10.325469      -280.9703
   2   2.0000      -1.117659       -30.4131
   3   2.0000      -0.790841       -21.5199
   4   2.0000      -0.602564       -16.3966
   5   2.0000      -0.535241       -14.5646
   6   2.0000      -0.520501       -14.1636
   7   2.0000      -0.425473       -11.5777
   8   2.0000      -0.372336       -10.1318
   9   0.0000       0.092330         2.5124
  10   0.0000       0.116168         3.1611
  11   0.0000       0.148552         4.0423
  12   0.0000       0.170775         4.6470
  13   0.0000       0.190222         5.1762

MULLIKEN ATOMIC CHARGES
-----------------------
   0 C :    0.004202
   1 O :   -0.000196
   2 H :   -0.000141
   3 H :    0.000143
   4 H :   -0.005770
   5 H :   -0.000710
   6 C :   -0.178984
   7 O :   -0.489227
   8 H :    0.318877
   9 H :    0.121355
  10 H :    0.105897
  11 H :    0.124554
Sum of atomic charges:   -0.0000000

LOEWDIN ATOMIC CHARGES
----------------------
   0 C :   -0.003805
   1 O :   -0.000022
   2 H :   -0.000065
   3 H :   -0.000010
   4 H :   -0.003995
   5 H :   -0.002427
   6 C :   -0.365842
   7 O :   -0.117457
   8 H :    0.181397
   9 H :    0.084961
  10 H :    0.106431
  11 H :    0.120834

  Mayer bond orders larger than 0.1
B(  6-C ,  7-O ) :   0.9894 B(  6-C ,  9-H ) :   0.9668 B(  6-C , 10-H ) :   0.9798
B(  6-C , 11-H ) :   0.9698 B(  7-O ,  8-H ) :   0.8904

Dispersion correction           -0.000268377
FINAL SINGLE POINT ENERGY      -115.726550355459

DIPOLE MOMENT
-------------
                                X             Y             Z
Electronic contribution:      1.59365       0.40991       0.73623
Nuclear contribution   :     -1.74628      -0.76178      -1.33097
                        -----------------------------------------
Total Dipole Moment    :     -0.15263      -0.35187      -0.59474
                        -----------------------------------------
Magnitude (a.u.)       :      0.70769
Magnitude (Debye)      :      1.79880

Rotational constants in cm-1:     4.099889     0.796338     0.757071
Rotational constants in MHz : 122911.566924 23873.617885 22696.410702

                             ****ORCA TERMINATED NORMALLY****
TOTAL RUN TIME: 0 days 0 hours 0 minutes 45 seconds 747 msec
