                         Program Version 4.1.2  - RELEASE  -
|  1> #Run DFT-D3 single point of the dimer
|  2> ! wB97X-D3 def2-TZVP TIGHTSCF CHELPG PMODEL PAL8
|  3>
|  4> %base "20-85_DFT_AB"
|  5>
|  6> %scf
|  7> MaxIter 1000
|  8> end
|  9>
| 10> * xyz 0 1
| 11>   C                      -2.839955            -3.953407            -0.078150
| 12>   O                      -2.008247            -2.946951            0.371114
| 13>   H                      -2.187683            -2.219467            -0.178250
| 14>   H                      -3.058394            -3.772306            -1.120352
| 15>   H                      -2.431864            -4.948480            0.016022
| 16>   H                      -3.792097            -3.920621            0.402216
| 17>   C                      -6.054250            -1.819193            2.610629
| 18>   O                      -5.399133            -1.078650            1.587365
| 19>   H                      -5.936089            -1.162187            0.809597
| 20>   H                      -6.005282            -1.230983            3.547607
| 21>   H                      -7.078095            -2.064409            2.357709
| 22>   H                      -5.539380            -2.672812            2.901062
| 23> *
| 24>
| 25> #Run DFT-D3 single point of the molecule with dimer basis set
| 26> $new_job
| 27> %base "20-85_DFT_A"
| 28> ! wB97X-D3 def2-TZVP TIGHTSCF CHELPG PMODEL
| 29>
| 30> %scf
| 31> MaxIter 1000
| 32> end
| 33>
| 34> * xyz 0 1
| 35>   C                      -2.839955            -3.953407            -0.078150
| 36>   O                      -2.008247            -2.946951            0.371114
| 37>   H                      -2.187683            -2.219467            -0.178250
| 38>   H                      -3.058394            -3.772306            -1.120352
| 39>   H                      -2.431864            -4.948480            0.016022
| 40>   H                      -3.792097            -3.920621            0.402216
| 41>   C                    : -6.054250            -1.819193            2.610629
| 42>   O                    : -5.399133            -1.078650            1.587365
| 43>   H                    : -5.936089            -1.162187            0.809597
| 44>   H                    : -6.005282            -1.230983            3.547607
| 45>   H                    : -7.078095            -2.064409            2.357709
| 46>   H                    : -5.539380            -2.672812            2.901062
| 47> *
| 48>
| 49> #Run DFT-D3 single point of the particle with dimer basis set
| 50> $new_job
| 51> %base "20-85_DFT_B"
| 52> ! wB97X-D3 def2-TZVP TIGHTSCF CHELPG PMODEL
| 53>
| 54> %scf
| 55> MaxIter 1000
| 56> end
| 57>
| 58> * xyz 0 1
| 59>   C                    : -2.839955            -3.953407            -0.078150
| 60>   O                    : -2.008247            -2.946951            0.371114
| 61>   H                    : -2.187683            -2.219467            -0.178250
| 62>   H                    : -3.058394            -3.772306            -1.120352
| 63>   H                    : -2.431864            -4.948480            0.016022
| 64>   H                    : -3.792097            -3.920621            0.402216
| 65>   C                      -6.054250            -1.819193            2.610629
| 66>   O                      -5.399133            -1.078650            1.587365
| 67>   H                      -5.936089            -1.162187            0.809597
| 68>   H                      -6.005282            -1.230983            3.547607
| 69>   H                      -7.078095            -2.064409            2.357709
| 70>   H                      -5.539380            -2.672812            2.901062
| 71> *
| 72>
| 73>                          ****END OF INPUT****
 Total Charge           Charge          ....    0
 Multiplicity           Mult            ....    1
 Number of Electrons    NEL             ....   36
Dispersion correction           -0.001210141
FINAL SINGLE POINT ENERGY      -231.464284237133
Dispersion correction           -0.000207890
FINAL SINGLE POINT ENERGY      -115.731811282049

CARTESIAN COORDINATES (ANGSTROEM)
---------------------------------
  C     -2.839955   -3.953407   -0.078150
  O     -2.008247   -2.946951    0.371114
  H     -2.187683   -2.219467   -0.178250
  H     -3.058394   -3.772306   -1.120352
  H     -2.431864   -4.948480    0.016022
  H     -3.792097   -3.920621    0.402216
  C     -6.054250   -1.819193    2.610629
  O     -5.399133   -1.078650    1.587365
  H     -5.936089   -1.162187    0.809597
  H     -6.005282   -1.230983    3.547607
  H     -7.078095   -2.064409    2.357709
  H     -5.539380   -2.672812    2.901062

 Multiplicity           Mult            ....    1
 Number of Electrons    NEL             ....   18
 Basis Dimension        Dim             ....  172

ORBITAL ENERGIES
----------------

  NO   OCC          E(Eh)            E(eV)
   0   2.0000     -19.229811      -523.2698
   1   2.0000     -10.307740      -280.4879
   2   2.0000      -1.136725       -30.9319
   3   2.0000      -0.802022       -21.8241
   4   2.0000      -0.613170       -16.6852
   5   2.0000      -0.544406       -14.8140
   6   2.0000      -0.525311       -14.2944
   7   2.0000      -0.441504       -12.0139
   8   2.0000      -0.372033       -10.1235
   9   0.0000       0.089792         2.4434
  10   0.0000       0.121980         3.3192
  11   0.0000       0.152767         4.1570
  12   0.0000       0.177834         4.8391
  13   0.0000       0.188170         5.1204

MULLIKEN ATOMIC CHARGES
-----------------------
   0 C :    0.000291
   1 O :   -0.000033
   2 H :   -0.000549
   3 H :    0.000056
   4 H :   -0.000127
   5 H :   -0.002516
   6 C :   -0.168820
   7 O :   -0.469588
   8 H :    0.313375
   9 H :    0.111108
  10 H :    0.104883
  11 H :    0.111921
Sum of atomic charges:   -0.0000000

LOEWDIN ATOMIC CHARGES
----------------------
   0 C :   -0.001426
   1 O :   -0.000222
   2 H :   -0.000597
   3 H :   -0.000026
   4 H :   -0.000034
   5 H :   -0.001144
   6 C :   -0.372456
   7 O :   -0.075365
   8 H :    0.161961
   9 H :    0.108243
  10 H :    0.095869
  11 H :    0.085198

  Mayer bond orders larger than 0.1
B(  6-C ,  7-O ) :   1.0124 B(  6-C ,  9-H ) :   0.9820 B(  6-C , 10-H ) :   0.9838
B(  6-C , 11-H ) :   0.9758 B(  7-O ,  8-H ) :   0.9043

Dispersion correction           -0.000243628
FINAL SINGLE POINT ENERGY      -115.731867502242

DIPOLE MOMENT
-------------
                                X             Y             Z
Electronic contribution:      0.88924       0.90141      -1.31394
Nuclear contribution   :     -1.50289      -1.26215       1.23231
                        -----------------------------------------
Total Dipole Moment    :     -0.61365      -0.36074      -0.08163
                        -----------------------------------------
Magnitude (a.u.)       :      0.71649
Magnitude (Debye)      :      1.82117

Rotational constants in cm-1:     4.450201     0.832631     0.790427
Rotational constants in MHz : 133413.667628 24961.654629 23696.395409

                             ****ORCA TERMINATED NORMALLY****
TOTAL RUN TIME: 0 days 0 hours 0 minutes 59 seconds 474 msec
