                         Program Version 4.1.2  - RELEASE  -
|  1> #Run DFT-D3 single point of the dimer
|  2> ! wB97X-D3 def2-TZVP TIGHTSCF CHELPG PMODEL PAL8
|  3>
|  4> %base "9-166_DFT_AB"
|  5>
|  6> %scf
|  7> MaxIter 1000
|  8> end
|  9>
| 10> * xyz 0 1
| 11>   C                      4.114963             9.116766             -3.744822
| 12>   O                      4.407831             7.878221             -3.105757
| 13>   H                      5.295298             7.916926             -2.878524
| 14>   H                      4.958268             9.458118             -4.328347
| 15>   H                      3.350205             9.056568             -4.540735
| 16>   H                      3.769307             9.872373             -2.995837
| 17>   C                      6.415215             7.720887             -0.515267
| 18>   O                      6.960690             8.090175             -1.808112
| 19>   H                      7.891432             8.299231             -1.797860
| 20>   H                      5.298850             7.836669             -0.482054
| 21>   H                      6.668831             6.667515             -0.324530
| 22>   H                      6.810055             8.262270             0.330771
| 23> *
| 24>
| 25> #Run DFT-D3 single point of the molecule with dimer basis set
| 26> $new_job
| 27> %base "9-166_DFT_A"
| 28> ! wB97X-D3 def2-TZVP TIGHTSCF CHELPG PMODEL
| 29>
| 30> %scf
| 31> MaxIter 1000
| 32> end
| 33>
| 34> * xyz 0 1
| 35>   C                      4.114963             9.116766             -3.744822
| 36>   O                      4.407831             7.878221             -3.105757
| 37>   H                      5.295298             7.916926             -2.878524
| 38>   H                      4.958268             9.458118             -4.328347
| 39>   H                      3.350205             9.056568             -4.540735
| 40>   H                      3.769307             9.872373             -2.995837
| 41>   C                    : 6.415215             7.720887             -0.515267
| 42>   O                    : 6.960690             8.090175             -1.808112
| 43>   H                    : 7.891432             8.299231             -1.797860
| 44>   H                    : 5.298850             7.836669             -0.482054
| 45>   H                    : 6.668831             6.667515             -0.324530
| 46>   H                    : 6.810055             8.262270             0.330771
| 47> *
| 48>
| 49> #Run DFT-D3 single point of the particle with dimer basis set
| 50> $new_job
| 51> %base "9-166_DFT_B"
| 52> ! wB97X-D3 def2-TZVP TIGHTSCF CHELPG PMODEL
| 53>
| 54> %scf
| 55> MaxIter 1000
| 56> end
| 57>
| 58> * xyz 0 1
| 59>   C                    : 4.114963             9.116766             -3.744822
| 60>   O                    : 4.407831             7.878221             -3.105757
| 61>   H                    : 5.295298             7.916926             -2.878524
| 62>   H                    : 4.958268             9.458118             -4.328347
| 63>   H                    : 3.350205             9.056568             -4.540735
| 64>   H                    : 3.769307             9.872373             -2.995837
| 65>   C                      6.415215             7.720887             -0.515267
| 66>   O                      6.960690             8.090175             -1.808112
| 67>   H                      7.891432             8.299231             -1.797860
| 68>   H                      5.298850             7.836669             -0.482054
| 69>   H                      6.668831             6.667515             -0.324530
| 70>   H                      6.810055             8.262270             0.330771
| 71> *
| 72>
| 73>                          ****END OF INPUT****
 Total Charge           Charge          ....    0
 Multiplicity           Mult            ....    1
 Number of Electrons    NEL             ....   36
Dispersion correction           -0.001899576
FINAL SINGLE POINT ENERGY      -231.472821704179
Dispersion correction           -0.000247286
FINAL SINGLE POINT ENERGY      -115.731896901323

CARTESIAN COORDINATES (ANGSTROEM)
---------------------------------
  C      4.114963    9.116766   -3.744822
  O      4.407831    7.878221   -3.105757
  H      5.295298    7.916926   -2.878524
  H      4.958268    9.458118   -4.328347
  H      3.350205    9.056568   -4.540735
  H      3.769307    9.872373   -2.995837
  C      6.415215    7.720887   -0.515267
  O      6.960690    8.090175   -1.808112
  H      7.891432    8.299231   -1.797860
  H      5.298850    7.836669   -0.482054
  H      6.668831    6.667515   -0.324530
  H      6.810055    8.262270    0.330771

 Multiplicity           Mult            ....    1
 Number of Electrons    NEL             ....   18
 Basis Dimension        Dim             ....  172

ORBITAL ENERGIES
----------------

  NO   OCC          E(Eh)            E(eV)
   0   2.0000     -19.228473      -523.2333
   1   2.0000     -10.319662      -280.8123
   2   2.0000      -1.122801       -30.5530
   3   2.0000      -0.799407       -21.7530
   4   2.0000      -0.609616       -16.5885
   5   2.0000      -0.534113       -14.5340
   6   2.0000      -0.521404       -14.1881
   7   2.0000      -0.430873       -11.7247
   8   2.0000      -0.373536       -10.1644
   9   0.0000       0.099024         2.6946
  10   0.0000       0.125772         3.4224
  11   0.0000       0.146082         3.9751
  12   0.0000       0.186155         5.0655
  13   0.0000       0.200867         5.4659

MULLIKEN ATOMIC CHARGES
-----------------------
   0 C :   -0.000324
   1 O :   -0.000105
   2 H :   -0.002867
   3 H :   -0.001678
   4 H :   -0.000198
   5 H :   -0.000330
   6 C :   -0.163717
   7 O :   -0.488816
   8 H :    0.312290
   9 H :    0.126584
  10 H :    0.107939
  11 H :    0.111223
Sum of atomic charges:   -0.0000000

LOEWDIN ATOMIC CHARGES
----------------------
   0 C :   -0.003306
   1 O :   -0.004901
   2 H :   -0.032880
   3 H :   -0.000651
   4 H :   -0.000040
   5 H :   -0.000132
   6 C :   -0.353330
   7 O :   -0.072169
   8 H :    0.159321
   9 H :    0.117123
  10 H :    0.098308
  11 H :    0.092659

  Mayer bond orders larger than 0.1
B(  6-C ,  7-O ) :   0.9822 B(  6-C ,  9-H ) :   0.9730 B(  6-C , 10-H ) :   0.9793
B(  6-C , 11-H ) :   0.9685 B(  7-O ,  8-H ) :   0.8964

Dispersion correction           -0.000280094
FINAL SINGLE POINT ENERGY      -115.732638139698

DIPOLE MOMENT
-------------
                                X             Y             Z
Electronic contribution:      0.58230       0.52823      -1.64967
Nuclear contribution   :     -0.19159      -0.53994       2.23867
                        -----------------------------------------
Total Dipole Moment    :      0.39071      -0.01170       0.58899
                        -----------------------------------------
Magnitude (a.u.)       :      0.70690
Magnitude (Debye)      :      1.79678

Rotational constants in cm-1:     4.397898     0.784186     0.757706
Rotational constants in MHz : 131845.666884 23509.309681 22715.466894

                             ****ORCA TERMINATED NORMALLY****
TOTAL RUN TIME: 0 days 0 hours 0 minutes 46 seconds 976 msec
