                         Program Version 4.1.2  - RELEASE  -
|  1> #Run DFT-D3 single point of the dimer
|  2> ! wB97X-D3 def2-TZVP TIGHTSCF CHELPG PMODEL PAL8
|  3>
|  4> %base "10-41_DFT_AB"
|  5>
|  6> %scf
|  7> MaxIter 1000
|  8> end
|  9>
| 10> * xyz 0 1
| 11>   C                      2.311494             -9.830904            -8.216563
| 12>   O                      3.558891             -10.484770           -8.480704
| 13>   H                      3.941405             -10.762820           -7.664795
| 14>   H                      2.383091             -9.009173            -7.449427
| 15>   H                      1.831679             -9.423599            -9.122781
| 16>   H                      1.578314             -10.570983           -7.892508
| 17>   C                      3.153078             -7.645306            -3.207908
| 18>   O                      2.836734             -6.398947            -3.647315
| 19>   H                      3.203133             -6.282440            -4.503657
| 20>   H                      4.238093             -7.697912            -2.989028
| 21>   H                      2.670314             -7.902382            -2.312206
| 22>   H                      2.984515             -8.353490            -4.071394
| 23> *
| 24>
| 25> #Run DFT-D3 single point of the molecule with dimer basis set
| 26> $new_job
| 27> %base "10-41_DFT_A"
| 28> ! wB97X-D3 def2-TZVP TIGHTSCF CHELPG PMODEL
| 29>
| 30> %scf
| 31> MaxIter 1000
| 32> end
| 33>
| 34> * xyz 0 1
| 35>   C                      2.311494             -9.830904            -8.216563
| 36>   O                      3.558891             -10.484770           -8.480704
| 37>   H                      3.941405             -10.762820           -7.664795
| 38>   H                      2.383091             -9.009173            -7.449427
| 39>   H                      1.831679             -9.423599            -9.122781
| 40>   H                      1.578314             -10.570983           -7.892508
| 41>   C                    : 3.153078             -7.645306            -3.207908
| 42>   O                    : 2.836734             -6.398947            -3.647315
| 43>   H                    : 3.203133             -6.282440            -4.503657
| 44>   H                    : 4.238093             -7.697912            -2.989028
| 45>   H                    : 2.670314             -7.902382            -2.312206
| 46>   H                    : 2.984515             -8.353490            -4.071394
| 47> *
| 48>
| 49> #Run DFT-D3 single point of the particle with dimer basis set
| 50> $new_job
| 51> %base "10-41_DFT_B"
| 52> ! wB97X-D3 def2-TZVP TIGHTSCF CHELPG PMODEL
| 53>
| 54> %scf
| 55> MaxIter 1000
| 56> end
| 57>
| 58> * xyz 0 1
| 59>   C                    : 2.311494             -9.830904            -8.216563
| 60>   O                    : 3.558891             -10.484770           -8.480704
| 61>   H                    : 3.941405             -10.762820           -7.664795
| 62>   H                    : 2.383091             -9.009173            -7.449427
| 63>   H                    : 1.831679             -9.423599            -9.122781
| 64>   H                    : 1.578314             -10.570983           -7.892508
| 65>   C                      3.153078             -7.645306            -3.207908
| 66>   O                      2.836734             -6.398947            -3.647315
| 67>   H                      3.203133             -6.282440            -4.503657
| 68>   H                      4.238093             -7.697912            -2.989028
| 69>   H                      2.670314             -7.902382            -2.312206
| 70>   H                      2.984515             -8.353490            -4.071394
| 71> *
| 72>
| 73>                          ****END OF INPUT****
 Total Charge           Charge          ....    0
 Multiplicity           Mult            ....    1
 Number of Electrons    NEL             ....   36
Dispersion correction           -0.000722755
FINAL SINGLE POINT ENERGY      -231.463522790328
Dispersion correction           -0.000260748
FINAL SINGLE POINT ENERGY      -115.733801787425

CARTESIAN COORDINATES (ANGSTROEM)
---------------------------------
  C      2.311494   -9.830904   -8.216563
  O      3.558891  -10.484770   -8.480704
  H      3.941405  -10.762820   -7.664795
  H      2.383091   -9.009173   -7.449427
  H      1.831679   -9.423599   -9.122781
  H      1.578314  -10.570983   -7.892508
  C      3.153078   -7.645306   -3.207908
  O      2.836734   -6.398947   -3.647315
  H      3.203133   -6.282440   -4.503657
  H      4.238093   -7.697912   -2.989028
  H      2.670314   -7.902382   -2.312206
  H      2.984515   -8.353490   -4.071394

 Multiplicity           Mult            ....    1
 Number of Electrons    NEL             ....   18
 Basis Dimension        Dim             ....  172

ORBITAL ENERGIES
----------------

  NO   OCC          E(Eh)            E(eV)
   0   2.0000     -19.225711      -523.1582
   1   2.0000     -10.309104      -280.5250
   2   2.0000      -1.158211       -31.5165
   3   2.0000      -0.795543       -21.6478
   4   2.0000      -0.621786       -16.9197
   5   2.0000      -0.550759       -14.9869
   6   2.0000      -0.539534       -14.6815
   7   2.0000      -0.432032       -11.7562
   8   2.0000      -0.364616        -9.9217
   9   0.0000       0.077387         2.1058
  10   0.0000       0.115302         3.1375
  11   0.0000       0.156030         4.2458
  12   0.0000       0.165901         4.5144
  13   0.0000       0.181763         4.9460

MULLIKEN ATOMIC CHARGES
-----------------------
   0 C :   -0.000433
   1 O :    0.000017
   2 H :   -0.000014
   3 H :    0.000456
   4 H :    0.000005
   5 H :    0.000027
   6 C :   -0.153131
   7 O :   -0.458786
   8 H :    0.314958
   9 H :    0.087380
  10 H :    0.119570
  11 H :    0.089952
Sum of atomic charges:    0.0000000

LOEWDIN ATOMIC CHARGES
----------------------
   0 C :   -0.000138
   1 O :   -0.000002
   2 H :   -0.000016
   3 H :   -0.000166
   4 H :   -0.000001
   5 H :   -0.000004
   6 C :   -0.421393
   7 O :   -0.028913
   8 H :    0.161153
   9 H :    0.092881
  10 H :    0.097016
  11 H :    0.099582

  Mayer bond orders larger than 0.1
B(  6-C ,  7-O ) :   1.0025 B(  6-C ,  9-H ) :   0.9793 B(  6-C , 10-H ) :   0.9709
B(  6-C , 11-H ) :   0.9883 B(  7-O ,  8-H ) :   0.9008

Dispersion correction           -0.000201219
FINAL SINGLE POINT ENERGY      -115.729638310061

DIPOLE MOMENT
-------------
                                X             Y             Z
Electronic contribution:     -0.64230       1.67687      -0.33675
Nuclear contribution   :      0.98692      -2.04339      -0.03616
                        -----------------------------------------
Total Dipole Moment    :      0.34462      -0.36651      -0.37291
                        -----------------------------------------
Magnitude (a.u.)       :      0.62623
Magnitude (Debye)      :      1.59174

Rotational constants in cm-1:     4.283478     0.896305     0.857074
Rotational constants in MHz : 128415.440460 26870.556181 25694.419033

                             ****ORCA TERMINATED NORMALLY****
TOTAL RUN TIME: 0 days 0 hours 1 minutes 1 seconds 322 msec
