                         Program Version 4.1.2  - RELEASE  -
|  1> #Run DFT-D3 single point of the dimer
|  2> ! wB97X-D3 def2-TZVP TIGHTSCF CHELPG PMODEL PAL8
|  3>
|  4> %base "20-153_DFT_AB"
|  5>
|  6> %scf
|  7> MaxIter 1000
|  8> end
|  9>
| 10> * xyz 0 1
| 11>   C                      1.707652             -9.586707            1.253464
| 12>   O                      2.113823             -8.697729            2.235801
| 13>   H                      2.186513             -9.141480            3.106202
| 14>   H                      0.630820             -9.935662            1.490338
| 15>   H                      1.712268             -9.153807            0.292293
| 16>   H                      2.335662             -10.485198           1.058917
| 17>   C                      5.737814             -6.792202            4.012589
| 18>   O                      4.642197             -7.192453            3.223775
| 19>   H                      3.849765             -6.864474            3.676815
| 20>   H                      6.603623             -7.244640            3.633068
| 21>   H                      5.796332             -5.719068            4.113003
| 22>   H                      5.644942             -7.132266            5.028861
| 23> *
| 24>
| 25> #Run DFT-D3 single point of the molecule with dimer basis set
| 26> $new_job
| 27> %base "20-153_DFT_A"
| 28> ! wB97X-D3 def2-TZVP TIGHTSCF CHELPG PMODEL
| 29>
| 30> %scf
| 31> MaxIter 1000
| 32> end
| 33>
| 34> * xyz 0 1
| 35>   C                      1.707652             -9.586707            1.253464
| 36>   O                      2.113823             -8.697729            2.235801
| 37>   H                      2.186513             -9.141480            3.106202
| 38>   H                      0.630820             -9.935662            1.490338
| 39>   H                      1.712268             -9.153807            0.292293
| 40>   H                      2.335662             -10.485198           1.058917
| 41>   C                    : 5.737814             -6.792202            4.012589
| 42>   O                    : 4.642197             -7.192453            3.223775
| 43>   H                    : 3.849765             -6.864474            3.676815
| 44>   H                    : 6.603623             -7.244640            3.633068
| 45>   H                    : 5.796332             -5.719068            4.113003
| 46>   H                    : 5.644942             -7.132266            5.028861
| 47> *
| 48>
| 49> #Run DFT-D3 single point of the particle with dimer basis set
| 50> $new_job
| 51> %base "20-153_DFT_B"
| 52> ! wB97X-D3 def2-TZVP TIGHTSCF CHELPG PMODEL
| 53>
| 54> %scf
| 55> MaxIter 1000
| 56> end
| 57>
| 58> * xyz 0 1
| 59>   C                    : 1.707652             -9.586707            1.253464
| 60>   O                    : 2.113823             -8.697729            2.235801
| 61>   H                    : 2.186513             -9.141480            3.106202
| 62>   H                    : 0.630820             -9.935662            1.490338
| 63>   H                    : 1.712268             -9.153807            0.292293
| 64>   H                    : 2.335662             -10.485198           1.058917
| 65>   C                      5.737814             -6.792202            4.012589
| 66>   O                      4.642197             -7.192453            3.223775
| 67>   H                      3.849765             -6.864474            3.676815
| 68>   H                      6.603623             -7.244640            3.633068
| 69>   H                      5.796332             -5.719068            4.113003
| 70>   H                      5.644942             -7.132266            5.028861
| 71> *
| 72>
| 73>                          ****END OF INPUT****
 Total Charge           Charge          ....    0
 Multiplicity           Mult            ....    1
 Number of Electrons    NEL             ....   36
Dispersion correction           -0.001222060
FINAL SINGLE POINT ENERGY      -231.463988884055
Dispersion correction           -0.000260034
FINAL SINGLE POINT ENERGY      -115.730712384568

CARTESIAN COORDINATES (ANGSTROEM)
---------------------------------
  C      1.707652   -9.586707    1.253464
  O      2.113823   -8.697729    2.235801
  H      2.186513   -9.141480    3.106202
  H      0.630820   -9.935662    1.490338
  H      1.712268   -9.153807    0.292293
  H      2.335662  -10.485198    1.058917
  C      5.737814   -6.792202    4.012589
  O      4.642197   -7.192453    3.223775
  H      3.849765   -6.864474    3.676815
  H      6.603623   -7.244640    3.633068
  H      5.796332   -5.719068    4.113003
  H      5.644942   -7.132266    5.028861

 Multiplicity           Mult            ....    1
 Number of Electrons    NEL             ....   18
 Basis Dimension        Dim             ....  172

ORBITAL ENERGIES
----------------

  NO   OCC          E(Eh)            E(eV)
   0   2.0000     -19.230747      -523.2952
   1   2.0000     -10.303662      -280.3769
   2   2.0000      -1.136992       -30.9391
   3   2.0000      -0.800095       -21.7717
   4   2.0000      -0.615457       -16.7474
   5   2.0000      -0.543949       -14.8016
   6   2.0000      -0.527904       -14.3650
   7   2.0000      -0.441796       -12.0219
   8   2.0000      -0.371492       -10.1088
   9   0.0000       0.090925         2.4742
  10   0.0000       0.117298         3.1918
  11   0.0000       0.154970         4.2170
  12   0.0000       0.186973         5.0878
  13   0.0000       0.205526         5.5927

MULLIKEN ATOMIC CHARGES
-----------------------
   0 C :   -0.000732
   1 O :   -0.000123
   2 H :   -0.003043
   3 H :   -0.000036
   4 H :    0.000151
   5 H :    0.000009
   6 C :   -0.158816
   7 O :   -0.470524
   8 H :    0.315043
   9 H :    0.120077
  10 H :    0.100759
  11 H :    0.097235
Sum of atomic charges:   -0.0000000

LOEWDIN ATOMIC CHARGES
----------------------
   0 C :   -0.000605
   1 O :   -0.003829
   2 H :   -0.002850
   3 H :   -0.000016
   4 H :   -0.000013
   5 H :   -0.000022
   6 C :   -0.380079
   7 O :   -0.072600
   8 H :    0.176511
   9 H :    0.099853
  10 H :    0.092429
  11 H :    0.091223

  Mayer bond orders larger than 0.1
B(  6-C ,  7-O ) :   0.9980 B(  6-C ,  9-H ) :   0.9771 B(  6-C , 10-H ) :   0.9766
B(  6-C , 11-H ) :   0.9792 B(  7-O ,  8-H ) :   0.8979

Dispersion correction           -0.000217905
FINAL SINGLE POINT ENERGY      -115.734294029733

DIPOLE MOMENT
-------------
                                X             Y             Z
Electronic contribution:     -1.22736      -0.56164      -1.18976
Nuclear contribution   :      1.17878       0.91780       1.80122
                        -----------------------------------------
Total Dipole Moment    :     -0.04857       0.35616       0.61147
                        -----------------------------------------
Magnitude (a.u.)       :      0.70930
Magnitude (Debye)      :      1.80289

Rotational constants in cm-1:     4.417733     0.848393     0.810790
Rotational constants in MHz : 132440.315968 25434.167641 24306.882139

                             ****ORCA TERMINATED NORMALLY****
TOTAL RUN TIME: 0 days 0 hours 1 minutes 5 seconds 720 msec
