                         Program Version 4.1.2  - RELEASE  -
|  1> #Run DFT-D3 single point of the dimer
|  2> ! wB97X-D3 def2-TZVP TIGHTSCF CHELPG PMODEL PAL8
|  3>
|  4> %base "14-213_DFT_AB"
|  5>
|  6> %scf
|  7> MaxIter 1000
|  8> end
|  9>
| 10> * xyz 0 1
| 11>   C                      -5.353303            11.069871            -8.863530
| 12>   O                      -6.223960            10.129537            -9.440476
| 13>   H                      -7.113445            10.492733            -9.573066
| 14>   H                      -5.404248            12.067274            -9.320768
| 15>   H                      -5.585512            11.032351            -7.805065
| 16>   H                      -4.332795            10.687860            -8.945880
| 17>   C                      -4.073277            7.976176             -7.110372
| 18>   O                      -5.078021            7.769096             -8.089968
| 19>   H                      -5.291997            8.628323             -8.440307
| 20>   H                      -4.462552            8.605275             -6.311199
| 21>   H                      -3.792457            7.025304             -6.538516
| 22>   H                      -3.206535            8.432150             -7.580872
| 23> *
| 24>
| 25> #Run DFT-D3 single point of the molecule with dimer basis set
| 26> $new_job
| 27> %base "14-213_DFT_A"
| 28> ! wB97X-D3 def2-TZVP TIGHTSCF CHELPG PMODEL
| 29>
| 30> %scf
| 31> MaxIter 1000
| 32> end
| 33>
| 34> * xyz 0 1
| 35>   C                      -5.353303            11.069871            -8.863530
| 36>   O                      -6.223960            10.129537            -9.440476
| 37>   H                      -7.113445            10.492733            -9.573066
| 38>   H                      -5.404248            12.067274            -9.320768
| 39>   H                      -5.585512            11.032351            -7.805065
| 40>   H                      -4.332795            10.687860            -8.945880
| 41>   C                    : -4.073277            7.976176             -7.110372
| 42>   O                    : -5.078021            7.769096             -8.089968
| 43>   H                    : -5.291997            8.628323             -8.440307
| 44>   H                    : -4.462552            8.605275             -6.311199
| 45>   H                    : -3.792457            7.025304             -6.538516
| 46>   H                    : -3.206535            8.432150             -7.580872
| 47> *
| 48>
| 49> #Run DFT-D3 single point of the particle with dimer basis set
| 50> $new_job
| 51> %base "14-213_DFT_B"
| 52> ! wB97X-D3 def2-TZVP TIGHTSCF CHELPG PMODEL
| 53>
| 54> %scf
| 55> MaxIter 1000
| 56> end
| 57>
| 58> * xyz 0 1
| 59>   C                    : -5.353303            11.069871            -8.863530
| 60>   O                    : -6.223960            10.129537            -9.440476
| 61>   H                    : -7.113445            10.492733            -9.573066
| 62>   H                    : -5.404248            12.067274            -9.320768
| 63>   H                    : -5.585512            11.032351            -7.805065
| 64>   H                    : -4.332795            10.687860            -8.945880
| 65>   C                      -4.073277            7.976176             -7.110372
| 66>   O                      -5.078021            7.769096             -8.089968
| 67>   H                      -5.291997            8.628323             -8.440307
| 68>   H                      -4.462552            8.605275             -6.311199
| 69>   H                      -3.792457            7.025304             -6.538516
| 70>   H                      -3.206535            8.432150             -7.580872
| 71> *
| 72>
| 73>                          ****END OF INPUT****
 Total Charge           Charge          ....    0
 Multiplicity           Mult            ....    1
 Number of Electrons    NEL             ....   36
Dispersion correction           -0.002083767
FINAL SINGLE POINT ENERGY      -231.472207757425
Dispersion correction           -0.000235889
FINAL SINGLE POINT ENERGY      -115.734035175164

CARTESIAN COORDINATES (ANGSTROEM)
---------------------------------
  C     -5.353303   11.069871   -8.863530
  O     -6.223960   10.129537   -9.440476
  H     -7.113445   10.492733   -9.573066
  H     -5.404248   12.067274   -9.320768
  H     -5.585512   11.032351   -7.805065
  H     -4.332795   10.687860   -8.945880
  C     -4.073277    7.976176   -7.110372
  O     -5.078021    7.769096   -8.089968
  H     -5.291997    8.628323   -8.440307
  H     -4.462552    8.605275   -6.311199
  H     -3.792457    7.025304   -6.538516
  H     -3.206535    8.432150   -7.580872

 Multiplicity           Mult            ....    1
 Number of Electrons    NEL             ....   18
 Basis Dimension        Dim             ....  172

ORBITAL ENERGIES
----------------

  NO   OCC          E(Eh)            E(eV)
   0   2.0000     -19.229646      -523.2653
   1   2.0000     -10.317343      -280.7492
   2   2.0000      -1.137694       -30.9582
   3   2.0000      -0.792257       -21.5584
   4   2.0000      -0.608153       -16.5487
   5   2.0000      -0.550008       -14.9665
   6   2.0000      -0.522578       -14.2201
   7   2.0000      -0.429994       -11.7007
   8   2.0000      -0.374450       -10.1893
   9   0.0000       0.068990         1.8773
  10   0.0000       0.134306         3.6547
  11   0.0000       0.152224         4.1422
  12   0.0000       0.166602         4.5335
  13   0.0000       0.179507         4.8846

MULLIKEN ATOMIC CHARGES
-----------------------
   0 C :   -0.006423
   1 O :    0.000559
   2 H :    0.000040
   3 H :   -0.000403
   4 H :    0.000486
   5 H :   -0.000321
   6 C :   -0.178305
   7 O :   -0.463762
   8 H :    0.310108
   9 H :    0.106619
  10 H :    0.123106
  11 H :    0.108297
Sum of atomic charges:    0.0000000

LOEWDIN ATOMIC CHARGES
----------------------
   0 C :   -0.011388
   1 O :   -0.013276
   2 H :   -0.000587
   3 H :   -0.000193
   4 H :   -0.001267
   5 H :   -0.002291
   6 C :   -0.386043
   7 O :   -0.065764
   8 H :    0.172976
   9 H :    0.094060
  10 H :    0.119340
  11 H :    0.094433

  Mayer bond orders larger than 0.1
B(  6-C ,  7-O ) :   0.9849 B(  6-C ,  9-H ) :   0.9790 B(  6-C , 10-H ) :   0.9697
B(  6-C , 11-H ) :   0.9799 B(  7-O ,  8-H ) :   0.9134

Dispersion correction           -0.000233022
FINAL SINGLE POINT ENERGY      -115.733321014840

DIPOLE MOMENT
-------------
                                X             Y             Z
Electronic contribution:     -1.23986      -0.40682      -1.29142
Nuclear contribution   :      1.49783       1.03102       1.47632
                        -----------------------------------------
Total Dipole Moment    :      0.25796       0.62421       0.18491
                        -----------------------------------------
Magnitude (a.u.)       :      0.70026
Magnitude (Debye)      :      1.77993

Rotational constants in cm-1:     4.231905     0.826209     0.796608
Rotational constants in MHz : 126869.334019 24769.126655 23881.716134

                             ****ORCA TERMINATED NORMALLY****
TOTAL RUN TIME: 0 days 0 hours 1 minutes 10 seconds 657 msec
