                         Program Version 4.1.2  - RELEASE  -
|  1> #Run DFT-D3 single point of the dimer
|  2> ! wB97X-D3 def2-TZVP TIGHTSCF CHELPG PMODEL PAL8
|  3>
|  4> %base "4-31_DFT_AB"
|  5>
|  6> %scf
|  7> MaxIter 1000
|  8> end
|  9>
| 10> * xyz 0 1
| 11>   C                      -5.192736            -2.225288            6.637700
| 12>   O                      -5.408181            -1.507434            5.386835
| 13>   H                      -4.517370            -1.420161            5.041826
| 14>   H                      -4.838058            -1.544956            7.408872
| 15>   H                      -6.004383            -2.688830            7.117625
| 16>   H                      -4.338427            -2.918640            6.592779
| 17>   C                      -3.552211            -4.834770            3.819683
| 18>   O                      -4.778089            -4.462391            4.451841
| 19>   H                      -5.284277            -3.878392            3.918249
| 20>   H                      -3.697186            -5.050471            2.760904
| 21>   H                      -2.818581            -3.985915            3.893653
| 22>   H                      -3.025181            -5.654431            4.308589
| 23> *
| 24>
| 25> #Run DFT-D3 single point of the molecule with dimer basis set
| 26> $new_job
| 27> %base "4-31_DFT_A"
| 28> ! wB97X-D3 def2-TZVP TIGHTSCF CHELPG PMODEL
| 29>
| 30> %scf
| 31> MaxIter 1000
| 32> end
| 33>
| 34> * xyz 0 1
| 35>   C                      -5.192736            -2.225288            6.637700
| 36>   O                      -5.408181            -1.507434            5.386835
| 37>   H                      -4.517370            -1.420161            5.041826
| 38>   H                      -4.838058            -1.544956            7.408872
| 39>   H                      -6.004383            -2.688830            7.117625
| 40>   H                      -4.338427            -2.918640            6.592779
| 41>   C                    : -3.552211            -4.834770            3.819683
| 42>   O                    : -4.778089            -4.462391            4.451841
| 43>   H                    : -5.284277            -3.878392            3.918249
| 44>   H                    : -3.697186            -5.050471            2.760904
| 45>   H                    : -2.818581            -3.985915            3.893653
| 46>   H                    : -3.025181            -5.654431            4.308589
| 47> *
| 48>
| 49> #Run DFT-D3 single point of the particle with dimer basis set
| 50> $new_job
| 51> %base "4-31_DFT_B"
| 52> ! wB97X-D3 def2-TZVP TIGHTSCF CHELPG PMODEL
| 53>
| 54> %scf
| 55> MaxIter 1000
| 56> end
| 57>
| 58> * xyz 0 1
| 59>   C                    : -5.192736            -2.225288            6.637700
| 60>   O                    : -5.408181            -1.507434            5.386835
| 61>   H                    : -4.517370            -1.420161            5.041826
| 62>   H                    : -4.838058            -1.544956            7.408872
| 63>   H                    : -6.004383            -2.688830            7.117625
| 64>   H                    : -4.338427            -2.918640            6.592779
| 65>   C                      -3.552211            -4.834770            3.819683
| 66>   O                      -4.778089            -4.462391            4.451841
| 67>   H                      -5.284277            -3.878392            3.918249
| 68>   H                      -3.697186            -5.050471            2.760904
| 69>   H                      -2.818581            -3.985915            3.893653
| 70>   H                      -3.025181            -5.654431            4.308589
| 71> *
| 72>
| 73>                          ****END OF INPUT****
 Total Charge           Charge          ....    0
 Multiplicity           Mult            ....    1
 Number of Electrons    NEL             ....   36
Dispersion correction           -0.002136318
FINAL SINGLE POINT ENERGY      -231.464201956517
Dispersion correction           -0.000252548
FINAL SINGLE POINT ENERGY      -115.727279513850

CARTESIAN COORDINATES (ANGSTROEM)
---------------------------------
  C     -5.192736   -2.225288    6.637700
  O     -5.408181   -1.507434    5.386835
  H     -4.517370   -1.420161    5.041826
  H     -4.838058   -1.544956    7.408872
  H     -6.004383   -2.688830    7.117625
  H     -4.338427   -2.918640    6.592779
  C     -3.552211   -4.834770    3.819683
  O     -4.778089   -4.462391    4.451841
  H     -5.284277   -3.878392    3.918249
  H     -3.697186   -5.050471    2.760904
  H     -2.818581   -3.985915    3.893653
  H     -3.025181   -5.654431    4.308589

 Multiplicity           Mult            ....    1
 Number of Electrons    NEL             ....   18
 Basis Dimension        Dim             ....  172

ORBITAL ENERGIES
----------------

  NO   OCC          E(Eh)            E(eV)
   0   2.0000     -19.228803      -523.2423
   1   2.0000     -10.318589      -280.7831
   2   2.0000      -1.134402       -30.8686
   3   2.0000      -0.799405       -21.7529
   4   2.0000      -0.611973       -16.6526
   5   2.0000      -0.539446       -14.6791
   6   2.0000      -0.528997       -14.3947
   7   2.0000      -0.431927       -11.7533
   8   2.0000      -0.372538       -10.1373
   9   0.0000       0.089441         2.4338
  10   0.0000       0.133179         3.6240
  11   0.0000       0.148582         4.0431
  12   0.0000       0.172212         4.6861
  13   0.0000       0.195190         5.3114

MULLIKEN ATOMIC CHARGES
-----------------------
   0 C :    0.003746
   1 O :   -0.003918
   2 H :   -0.002635
   3 H :   -0.000385
   4 H :   -0.000575
   5 H :   -0.006427
   6 C :   -0.166124
   7 O :   -0.474930
   8 H :    0.316056
   9 H :    0.109916
  10 H :    0.100576
  11 H :    0.124700
Sum of atomic charges:    0.0000000

LOEWDIN ATOMIC CHARGES
----------------------
   0 C :   -0.015742
   1 O :   -0.003458
   2 H :   -0.002163
   3 H :   -0.000177
   4 H :   -0.000731
   5 H :   -0.007467
   6 C :   -0.372917
   7 O :   -0.055549
   8 H :    0.154760
   9 H :    0.095837
  10 H :    0.099673
  11 H :    0.107934

  Mayer bond orders larger than 0.1
B(  6-C ,  7-O ) :   0.9910 B(  6-C ,  9-H ) :   0.9761 B(  6-C , 10-H ) :   0.9778
B(  6-C , 11-H ) :   0.9721 B(  7-O ,  8-H ) :   0.8984

Dispersion correction           -0.000257516
FINAL SINGLE POINT ENERGY      -115.734101552747

DIPOLE MOMENT
-------------
                                X             Y             Z
Electronic contribution:     -1.60159       0.26006       0.88337
Nuclear contribution   :      1.78272      -0.06397      -1.50552
                        -----------------------------------------
Total Dipole Moment    :      0.18114       0.19609      -0.62215
                        -----------------------------------------
Magnitude (a.u.)       :      0.67700
Magnitude (Debye)      :      1.72079

Rotational constants in cm-1:     4.380722     0.807861     0.781420
Rotational constants in MHz : 131330.746777 24219.066838 23426.376230

                             ****ORCA TERMINATED NORMALLY****
TOTAL RUN TIME: 0 days 0 hours 1 minutes 34 seconds 419 msec
