                         Program Version 4.1.2  - RELEASE  -
|  1> #Run DFT-D3 single point of the dimer
|  2> ! wB97X-D3 def2-TZVP TIGHTSCF CHELPG PMODEL PAL8
|  3>
|  4> %base "17-171_DFT_AB"
|  5>
|  6> %scf
|  7> MaxIter 1000
|  8> end
|  9>
| 10> * xyz 0 1
| 11>   C                      -0.918051            9.986518             -4.696559
| 12>   O                      0.482540             9.792273             -5.105386
| 13>   H                      0.396491             9.328244             -5.962615
| 14>   H                      -1.468727            10.746023            -5.246948
| 15>   H                      -1.570204            9.126121             -4.893993
| 16>   H                      -1.051724            10.273759            -3.662889
| 17>   C                      0.868695             8.508452             -8.533140
| 18>   O                      -0.149300            8.813113             -7.596964
| 19>   H                      -0.601290            9.445401             -8.112834
| 20>   H                      0.481763             8.301252             -9.515079
| 21>   H                      1.649423             9.224078             -8.522058
| 22>   H                      1.446349             7.609110             -8.255551
| 23> *
| 24>
| 25> #Run DFT-D3 single point of the molecule with dimer basis set
| 26> $new_job
| 27> %base "17-171_DFT_A"
| 28> ! wB97X-D3 def2-TZVP TIGHTSCF CHELPG PMODEL
| 29>
| 30> %scf
| 31> MaxIter 1000
| 32> end
| 33>
| 34> * xyz 0 1
| 35>   C                      -0.918051            9.986518             -4.696559
| 36>   O                      0.482540             9.792273             -5.105386
| 37>   H                      0.396491             9.328244             -5.962615
| 38>   H                      -1.468727            10.746023            -5.246948
| 39>   H                      -1.570204            9.126121             -4.893993
| 40>   H                      -1.051724            10.273759            -3.662889
| 41>   C                    : 0.868695             8.508452             -8.533140
| 42>   O                    : -0.149300            8.813113             -7.596964
| 43>   H                    : -0.601290            9.445401             -8.112834
| 44>   H                    : 0.481763             8.301252             -9.515079
| 45>   H                    : 1.649423             9.224078             -8.522058
| 46>   H                    : 1.446349             7.609110             -8.255551
| 47> *
| 48>
| 49> #Run DFT-D3 single point of the particle with dimer basis set
| 50> $new_job
| 51> %base "17-171_DFT_B"
| 52> ! wB97X-D3 def2-TZVP TIGHTSCF CHELPG PMODEL
| 53>
| 54> %scf
| 55> MaxIter 1000
| 56> end
| 57>
| 58> * xyz 0 1
| 59>   C                    : -0.918051            9.986518             -4.696559
| 60>   O                    : 0.482540             9.792273             -5.105386
| 61>   H                    : 0.396491             9.328244             -5.962615
| 62>   H                    : -1.468727            10.746023            -5.246948
| 63>   H                    : -1.570204            9.126121             -4.893993
| 64>   H                    : -1.051724            10.273759            -3.662889
| 65>   C                      0.868695             8.508452             -8.533140
| 66>   O                      -0.149300            8.813113             -7.596964
| 67>   H                      -0.601290            9.445401             -8.112834
| 68>   H                      0.481763             8.301252             -9.515079
| 69>   H                      1.649423             9.224078             -8.522058
| 70>   H                      1.446349             7.609110             -8.255551
| 71> *
| 72>
| 73>                          ****END OF INPUT****
 Total Charge           Charge          ....    0
 Multiplicity           Mult            ....    1
 Number of Electrons    NEL             ....   36
Dispersion correction           -0.001885351
FINAL SINGLE POINT ENERGY      -231.466762722285
Dispersion correction           -0.000276601
FINAL SINGLE POINT ENERGY      -115.729464618954

CARTESIAN COORDINATES (ANGSTROEM)
---------------------------------
  C     -0.918051    9.986518   -4.696559
  O      0.482540    9.792273   -5.105386
  H      0.396491    9.328244   -5.962615
  H     -1.468727   10.746023   -5.246948
  H     -1.570204    9.126121   -4.893993
  H     -1.051724   10.273759   -3.662889
  C      0.868695    8.508452   -8.533140
  O     -0.149300    8.813113   -7.596964
  H     -0.601290    9.445401   -8.112834
  H      0.481763    8.301252   -9.515079
  H      1.649423    9.224078   -8.522058
  H      1.446349    7.609110   -8.255551

 Multiplicity           Mult            ....    1
 Number of Electrons    NEL             ....   18
 Basis Dimension        Dim             ....  172

ORBITAL ENERGIES
----------------

  NO   OCC          E(Eh)            E(eV)
   0   2.0000     -19.233092      -523.3590
   1   2.0000     -10.309339      -280.5314
   2   2.0000      -1.150105       -31.2959
   3   2.0000      -0.799413       -21.7531
   4   2.0000      -0.611388       -16.6367
   5   2.0000      -0.555097       -15.1050
   6   2.0000      -0.526690       -14.3320
   7   2.0000      -0.440526       -11.9873
   8   2.0000      -0.379461       -10.3257
   9   0.0000       0.098566         2.6821
  10   0.0000       0.128333         3.4921
  11   0.0000       0.154887         4.2147
  12   0.0000       0.186652         5.0790
  13   0.0000       0.201322         5.4783

MULLIKEN ATOMIC CHARGES
-----------------------
   0 C :    0.004184
   1 O :   -0.002133
   2 H :   -0.004865
   3 H :   -0.001949
   4 H :   -0.003373
   5 H :   -0.000213
   6 C :   -0.181656
   7 O :   -0.451876
   8 H :    0.311044
   9 H :    0.109855
  10 H :    0.108976
  11 H :    0.112005
Sum of atomic charges:   -0.0000000

LOEWDIN ATOMIC CHARGES
----------------------
   0 C :   -0.008547
   1 O :   -0.008096
   2 H :   -0.056081
   3 H :   -0.000728
   4 H :   -0.001722
   5 H :   -0.000104
   6 C :   -0.383814
   7 O :    0.001898
   8 H :    0.159353
   9 H :    0.095937
  10 H :    0.090105
  11 H :    0.111799

  Mayer bond orders larger than 0.1
B(  6-C ,  7-O ) :   0.9868 B(  6-C ,  9-H ) :   0.9753 B(  6-C , 10-H ) :   0.9786
B(  6-C , 11-H ) :   0.9796 B(  7-O ,  8-H ) :   0.9070

Dispersion correction           -0.000216901
FINAL SINGLE POINT ENERGY      -115.729595719335

DIPOLE MOMENT
-------------
                                X             Y             Z
Electronic contribution:     -1.36137       0.37293       1.28237
Nuclear contribution   :      1.49133      -0.12105      -1.97099
                        -----------------------------------------
Total Dipole Moment    :      0.12996       0.25188      -0.68862
                        -----------------------------------------
Magnitude (a.u.)       :      0.74467
Magnitude (Debye)      :      1.89279

Rotational constants in cm-1:     4.444124     0.837233     0.808296
Rotational constants in MHz : 133231.471757 25099.617779 24232.106483

                             ****ORCA TERMINATED NORMALLY****
TOTAL RUN TIME: 0 days 0 hours 1 minutes 9 seconds 638 msec
