                         Program Version 4.1.2  - RELEASE  -
|  1> #Run DFT-D3 single point of the dimer
|  2> ! wB97X-D3 def2-TZVP TIGHTSCF CHELPG PMODEL PAL8
|  3>
|  4> %base "9-180_DFT_AB"
|  5>
|  6> %scf
|  7> MaxIter 1000
|  8> end
|  9>
| 10> * xyz 0 1
| 11>   C                      -7.844242            -0.988290            -1.209791
| 12>   O                      -6.413111            -1.000022            -0.951601
| 13>   H                      -6.157595            -1.889049            -1.046544
| 14>   H                      -8.237133            0.054909             -1.327894
| 15>   H                      -8.068519            -1.457255            -2.187042
| 16>   H                      -8.488866            -1.463421            -0.452614
| 17>   C                      -4.128590            -1.843765            1.724450
| 18>   O                      -5.434455            -2.257634            1.790054
| 19>   H                      -5.983453            -1.607229            1.349417
| 20>   H                      -3.976567            -0.840677            2.180190
| 21>   H                      -3.509313            -2.598963            2.167333
| 22>   H                      -3.743851            -1.804597            0.667647
| 23> *
| 24>
| 25> #Run DFT-D3 single point of the molecule with dimer basis set
| 26> $new_job
| 27> %base "9-180_DFT_A"
| 28> ! wB97X-D3 def2-TZVP TIGHTSCF CHELPG PMODEL
| 29>
| 30> %scf
| 31> MaxIter 1000
| 32> end
| 33>
| 34> * xyz 0 1
| 35>   C                      -7.844242            -0.988290            -1.209791
| 36>   O                      -6.413111            -1.000022            -0.951601
| 37>   H                      -6.157595            -1.889049            -1.046544
| 38>   H                      -8.237133            0.054909             -1.327894
| 39>   H                      -8.068519            -1.457255            -2.187042
| 40>   H                      -8.488866            -1.463421            -0.452614
| 41>   C                    : -4.128590            -1.843765            1.724450
| 42>   O                    : -5.434455            -2.257634            1.790054
| 43>   H                    : -5.983453            -1.607229            1.349417
| 44>   H                    : -3.976567            -0.840677            2.180190
| 45>   H                    : -3.509313            -2.598963            2.167333
| 46>   H                    : -3.743851            -1.804597            0.667647
| 47> *
| 48>
| 49> #Run DFT-D3 single point of the particle with dimer basis set
| 50> $new_job
| 51> %base "9-180_DFT_B"
| 52> ! wB97X-D3 def2-TZVP TIGHTSCF CHELPG PMODEL
| 53>
| 54> %scf
| 55> MaxIter 1000
| 56> end
| 57>
| 58> * xyz 0 1
| 59>   C                    : -7.844242            -0.988290            -1.209791
| 60>   O                    : -6.413111            -1.000022            -0.951601
| 61>   H                    : -6.157595            -1.889049            -1.046544
| 62>   H                    : -8.237133            0.054909             -1.327894
| 63>   H                    : -8.068519            -1.457255            -2.187042
| 64>   H                    : -8.488866            -1.463421            -0.452614
| 65>   C                      -4.128590            -1.843765            1.724450
| 66>   O                      -5.434455            -2.257634            1.790054
| 67>   H                      -5.983453            -1.607229            1.349417
| 68>   H                      -3.976567            -0.840677            2.180190
| 69>   H                      -3.509313            -2.598963            2.167333
| 70>   H                      -3.743851            -1.804597            0.667647
| 71> *
| 72>
| 73>                          ****END OF INPUT****
 Total Charge           Charge          ....    0
 Multiplicity           Mult            ....    1
 Number of Electrons    NEL             ....   36
Dispersion correction           -0.001766665
FINAL SINGLE POINT ENERGY      -231.474304981193
Dispersion correction           -0.000270825
FINAL SINGLE POINT ENERGY      -115.733070248646

CARTESIAN COORDINATES (ANGSTROEM)
---------------------------------
  C     -7.844242   -0.988290   -1.209791
  O     -6.413111   -1.000022   -0.951601
  H     -6.157595   -1.889049   -1.046544
  H     -8.237133    0.054909   -1.327894
  H     -8.068519   -1.457255   -2.187042
  H     -8.488866   -1.463421   -0.452614
  C     -4.128590   -1.843765    1.724450
  O     -5.434455   -2.257634    1.790054
  H     -5.983453   -1.607229    1.349417
  H     -3.976567   -0.840677    2.180190
  H     -3.509313   -2.598963    2.167333
  H     -3.743851   -1.804597    0.667647

 Multiplicity           Mult            ....    1
 Number of Electrons    NEL             ....   18
 Basis Dimension        Dim             ....  172

ORBITAL ENERGIES
----------------

  NO   OCC          E(Eh)            E(eV)
   0   2.0000     -19.231860      -523.3255
   1   2.0000     -10.312232      -280.6101
   2   2.0000      -1.151498       -31.3339
   3   2.0000      -0.793428       -21.5903
   4   2.0000      -0.618696       -16.8356
   5   2.0000      -0.547589       -14.9006
   6   2.0000      -0.531394       -14.4600
   7   2.0000      -0.431765       -11.7489
   8   2.0000      -0.371045       -10.0966
   9   0.0000       0.074010         2.0139
  10   0.0000       0.126814         3.4508
  11   0.0000       0.154477         4.2035
  12   0.0000       0.168954         4.5975
  13   0.0000       0.193325         5.2606

MULLIKEN ATOMIC CHARGES
-----------------------
   0 C :   -0.000570
   1 O :   -0.002155
   2 H :   -0.002740
   3 H :    0.000079
   4 H :    0.000037
   5 H :   -0.000265
   6 C :   -0.160852
   7 O :   -0.458465
   8 H :    0.315788
   9 H :    0.098069
  10 H :    0.120557
  11 H :    0.090519
Sum of atomic charges:    0.0000000

LOEWDIN ATOMIC CHARGES
----------------------
   0 C :   -0.001858
   1 O :   -0.005896
   2 H :   -0.003805
   3 H :   -0.000017
   4 H :   -0.000027
   5 H :   -0.000268
   6 C :   -0.421932
   7 O :   -0.035092
   8 H :    0.172018
   9 H :    0.096126
  10 H :    0.104576
  11 H :    0.096173

  Mayer bond orders larger than 0.1
B(  6-C ,  7-O ) :   1.0119 B(  6-C ,  9-H ) :   0.9785 B(  6-C , 10-H ) :   0.9731
B(  6-C , 11-H ) :   0.9727 B(  7-O ,  8-H ) :   0.9001

Dispersion correction           -0.000228498
FINAL SINGLE POINT ENERGY      -115.735264816204

DIPOLE MOMENT
-------------
                                X             Y             Z
Electronic contribution:     -1.73013      -0.66334       0.26887
Nuclear contribution   :      1.86443       1.20160      -0.55949
                        -----------------------------------------
Total Dipole Moment    :      0.13430       0.53826      -0.29062
                        -----------------------------------------
Magnitude (a.u.)       :      0.62627
Magnitude (Debye)      :      1.59186

Rotational constants in cm-1:     4.258507     0.869435     0.839259
Rotational constants in MHz : 127666.818338 26064.991745 25160.360997

                             ****ORCA TERMINATED NORMALLY****
TOTAL RUN TIME: 0 days 0 hours 0 minutes 45 seconds 227 msec
