                         Program Version 4.1.2  - RELEASE  -
|  1> #Run DFT-D3 single point of the dimer
|  2> ! wB97X-D3 def2-TZVP TIGHTSCF CHELPG PMODEL PAL8
|  3>
|  4> %base "3-86_DFT_AB"
|  5>
|  6> %scf
|  7> MaxIter 1000
|  8> end
|  9>
| 10> * xyz 0 1
| 11>   C                      -1.179622            -0.680025            6.462159
| 12>   O                      -1.994517            0.038928             7.405688
| 13>   H                      -2.109912            0.907878             7.079844
| 14>   H                      -0.109920            -0.503745            6.727623
| 15>   H                      -1.354234            -1.756892            6.522703
| 16>   H                      -1.366128            -0.313220            5.402350
| 17>   C                      2.386429             2.995195             8.591899
| 18>   O                      1.849610             4.090954             7.926021
| 19>   H                      0.922716             3.954351             7.668493
| 20>   H                      3.472603             3.087747             8.957386
| 21>   H                      1.871403             2.819979             9.530052
| 22>   H                      2.375562             2.106276             7.946624
| 23> *
| 24>
| 25> #Run DFT-D3 single point of the molecule with dimer basis set
| 26> $new_job
| 27> %base "3-86_DFT_A"
| 28> ! wB97X-D3 def2-TZVP TIGHTSCF CHELPG PMODEL
| 29>
| 30> %scf
| 31> MaxIter 1000
| 32> end
| 33>
| 34> * xyz 0 1
| 35>   C                      -1.179622            -0.680025            6.462159
| 36>   O                      -1.994517            0.038928             7.405688
| 37>   H                      -2.109912            0.907878             7.079844
| 38>   H                      -0.109920            -0.503745            6.727623
| 39>   H                      -1.354234            -1.756892            6.522703
| 40>   H                      -1.366128            -0.313220            5.402350
| 41>   C                    : 2.386429             2.995195             8.591899
| 42>   O                    : 1.849610             4.090954             7.926021
| 43>   H                    : 0.922716             3.954351             7.668493
| 44>   H                    : 3.472603             3.087747             8.957386
| 45>   H                    : 1.871403             2.819979             9.530052
| 46>   H                    : 2.375562             2.106276             7.946624
| 47> *
| 48>
| 49> #Run DFT-D3 single point of the particle with dimer basis set
| 50> $new_job
| 51> %base "3-86_DFT_B"
| 52> ! wB97X-D3 def2-TZVP TIGHTSCF CHELPG PMODEL
| 53>
| 54> %scf
| 55> MaxIter 1000
| 56> end
| 57>
| 58> * xyz 0 1
| 59>   C                    : -1.179622            -0.680025            6.462159
| 60>   O                    : -1.994517            0.038928             7.405688
| 61>   H                    : -2.109912            0.907878             7.079844
| 62>   H                    : -0.109920            -0.503745            6.727623
| 63>   H                    : -1.354234            -1.756892            6.522703
| 64>   H                    : -1.366128            -0.313220            5.402350
| 65>   C                      2.386429             2.995195             8.591899
| 66>   O                      1.849610             4.090954             7.926021
| 67>   H                      0.922716             3.954351             7.668493
| 68>   H                      3.472603             3.087747             8.957386
| 69>   H                      1.871403             2.819979             9.530052
| 70>   H                      2.375562             2.106276             7.946624
| 71> *
| 72>
| 73>                          ****END OF INPUT****
 Total Charge           Charge          ....    0
 Multiplicity           Mult            ....    1
 Number of Electrons    NEL             ....   36
Dispersion correction           -0.000757089
FINAL SINGLE POINT ENERGY      -231.464369732179
Dispersion correction           -0.000253585
FINAL SINGLE POINT ENERGY      -115.733834872014

CARTESIAN COORDINATES (ANGSTROEM)
---------------------------------
  C     -1.179622   -0.680025    6.462159
  O     -1.994517    0.038928    7.405688
  H     -2.109912    0.907878    7.079844
  H     -0.109920   -0.503745    6.727623
  H     -1.354234   -1.756892    6.522703
  H     -1.366128   -0.313220    5.402350
  C      2.386429    2.995195    8.591899
  O      1.849610    4.090954    7.926021
  H      0.922716    3.954351    7.668493
  H      3.472603    3.087747    8.957386
  H      1.871403    2.819979    9.530052
  H      2.375562    2.106276    7.946624

 Multiplicity           Mult            ....    1
 Number of Electrons    NEL             ....   18
 Basis Dimension        Dim             ....  172

ORBITAL ENERGIES
----------------

  NO   OCC          E(Eh)            E(eV)
   0   2.0000     -19.230225      -523.2810
   1   2.0000     -10.316544      -280.7274
   2   2.0000      -1.139081       -30.9960
   3   2.0000      -0.792509       -21.5653
   4   2.0000      -0.613350       -16.6901
   5   2.0000      -0.549207       -14.9447
   6   2.0000      -0.526819       -14.3355
   7   2.0000      -0.416460       -11.3324
   8   2.0000      -0.373264       -10.1570
   9   0.0000       0.077352         2.1048
  10   0.0000       0.116844         3.1795
  11   0.0000       0.144206         3.9241
  12   0.0000       0.162559         4.4235
  13   0.0000       0.183526         4.9940

MULLIKEN ATOMIC CHARGES
-----------------------
   0 C :    0.000087
   1 O :   -0.000005
   2 H :   -0.000016
   3 H :   -0.000198
   4 H :   -0.000000
   5 H :   -0.000005
   6 C :   -0.153749
   7 O :   -0.484027
   8 H :    0.323633
   9 H :    0.113647
  10 H :    0.100804
  11 H :    0.099830
Sum of atomic charges:    0.0000000

LOEWDIN ATOMIC CHARGES
----------------------
   0 C :   -0.000030
   1 O :   -0.000002
   2 H :   -0.000018
   3 H :   -0.000134
   4 H :   -0.000000
   5 H :   -0.000001
   6 C :   -0.413099
   7 O :   -0.068972
   8 H :    0.179038
   9 H :    0.118830
  10 H :    0.090797
  11 H :    0.093590

  Mayer bond orders larger than 0.1
B(  6-C ,  7-O ) :   0.9966 B(  6-C ,  9-H ) :   0.9669 B(  6-C , 10-H ) :   0.9788
B(  6-C , 11-H ) :   0.9802 B(  7-O ,  8-H ) :   0.8872

Dispersion correction           -0.000251316
FINAL SINGLE POINT ENERGY      -115.730543019677

DIPOLE MOMENT
-------------
                                X             Y             Z
Electronic contribution:     -0.64997       1.53990      -0.91828
Nuclear contribution   :      0.26140      -2.05528       1.02553
                        -----------------------------------------
Total Dipole Moment    :     -0.38857      -0.51538       0.10725
                        -----------------------------------------
Magnitude (a.u.)       :      0.65429
Magnitude (Debye)      :      1.66308

Rotational constants in cm-1:     4.366271     0.832106     0.808997
Rotational constants in MHz : 130897.507086 24945.895788 24253.108085

                             ****ORCA TERMINATED NORMALLY****
TOTAL RUN TIME: 0 days 0 hours 6 minutes 15 seconds 407 msec
