                         Program Version 4.1.2  - RELEASE  -
|  1> #Run DFT-D3 single point of the dimer
|  2> ! wB97X-D3 def2-TZVP TIGHTSCF CHELPG PMODEL PAL8
|  3>
|  4> %base "19-18_DFT_AB"
|  5>
|  6> %scf
|  7> MaxIter 1000
|  8> end
|  9>
| 10> * xyz 0 1
| 11>   C                      9.121018             -8.002332            -6.658130
| 12>   O                      10.161908            -7.980103            -7.581041
| 13>   H                      10.228390            -8.853579            -7.970329
| 14>   H                      8.705024             -7.045005            -6.526222
| 15>   H                      8.234115             -8.471532            -7.034247
| 16>   H                      9.419755             -8.306082            -5.708888
| 17>   C                      7.735640             -3.628557            -5.394134
| 18>   O                      6.374040             -3.628548            -5.142410
| 19>   H                      5.933957             -4.477045            -5.105908
| 20>   H                      8.304852             -3.877057            -4.570331
| 21>   H                      7.857922             -4.475036            -6.074864
| 22>   H                      8.076524             -2.769222            -5.967372
| 23> *
| 24>
| 25> #Run DFT-D3 single point of the molecule with dimer basis set
| 26> $new_job
| 27> %base "19-18_DFT_A"
| 28> ! wB97X-D3 def2-TZVP TIGHTSCF CHELPG PMODEL
| 29>
| 30> %scf
| 31> MaxIter 1000
| 32> end
| 33>
| 34> * xyz 0 1
| 35>   C                      9.121018             -8.002332            -6.658130
| 36>   O                      10.161908            -7.980103            -7.581041
| 37>   H                      10.228390            -8.853579            -7.970329
| 38>   H                      8.705024             -7.045005            -6.526222
| 39>   H                      8.234115             -8.471532            -7.034247
| 40>   H                      9.419755             -8.306082            -5.708888
| 41>   C                    : 7.735640             -3.628557            -5.394134
| 42>   O                    : 6.374040             -3.628548            -5.142410
| 43>   H                    : 5.933957             -4.477045            -5.105908
| 44>   H                    : 8.304852             -3.877057            -4.570331
| 45>   H                    : 7.857922             -4.475036            -6.074864
| 46>   H                    : 8.076524             -2.769222            -5.967372
| 47> *
| 48>
| 49> #Run DFT-D3 single point of the particle with dimer basis set
| 50> $new_job
| 51> %base "19-18_DFT_B"
| 52> ! wB97X-D3 def2-TZVP TIGHTSCF CHELPG PMODEL
| 53>
| 54> %scf
| 55> MaxIter 1000
| 56> end
| 57>
| 58> * xyz 0 1
| 59>   C                    : 9.121018             -8.002332            -6.658130
| 60>   O                    : 10.161908            -7.980103            -7.581041
| 61>   H                    : 10.228390            -8.853579            -7.970329
| 62>   H                    : 8.705024             -7.045005            -6.526222
| 63>   H                    : 8.234115             -8.471532            -7.034247
| 64>   H                    : 9.419755             -8.306082            -5.708888
| 65>   C                      7.735640             -3.628557            -5.394134
| 66>   O                      6.374040             -3.628548            -5.142410
| 67>   H                      5.933957             -4.477045            -5.105908
| 68>   H                      8.304852             -3.877057            -4.570331
| 69>   H                      7.857922             -4.475036            -6.074864
| 70>   H                      8.076524             -2.769222            -5.967372
| 71> *
| 72>
| 73>                          ****END OF INPUT****
 Total Charge           Charge          ....    0
 Multiplicity           Mult            ....    1
 Number of Electrons    NEL             ....   36
Dispersion correction           -0.000953603
FINAL SINGLE POINT ENERGY      -231.454474177002
Dispersion correction           -0.000227595
FINAL SINGLE POINT ENERGY      -115.728990900277

CARTESIAN COORDINATES (ANGSTROEM)
---------------------------------
  C      9.121018   -8.002332   -6.658130
  O     10.161908   -7.980103   -7.581041
  H     10.228390   -8.853579   -7.970329
  H      8.705024   -7.045005   -6.526222
  H      8.234115   -8.471532   -7.034247
  H      9.419755   -8.306082   -5.708888
  C      7.735640   -3.628557   -5.394134
  O      6.374040   -3.628548   -5.142410
  H      5.933957   -4.477045   -5.105908
  H      8.304852   -3.877057   -4.570331
  H      7.857922   -4.475036   -6.074864
  H      8.076524   -2.769222   -5.967372

 Multiplicity           Mult            ....    1
 Number of Electrons    NEL             ....   18
 Basis Dimension        Dim             ....  172

ORBITAL ENERGIES
----------------

  NO   OCC          E(Eh)            E(eV)
   0   2.0000     -19.221029      -523.0308
   1   2.0000     -10.303795      -280.3805
   2   2.0000      -1.138143       -30.9705
   3   2.0000      -0.802918       -21.8485
   4   2.0000      -0.619101       -16.8466
   5   2.0000      -0.555183       -15.1073
   6   2.0000      -0.533953       -14.5296
   7   2.0000      -0.412871       -11.2348
   8   2.0000      -0.369505       -10.0547
   9   0.0000       0.081163         2.2086
  10   0.0000       0.115693         3.1482
  11   0.0000       0.152733         4.1561
  12   0.0000       0.172455         4.6927
  13   0.0000       0.186991         5.0883

MULLIKEN ATOMIC CHARGES
-----------------------
   0 C :   -0.000019
   1 O :    0.000034
   2 H :    0.000003
   3 H :   -0.000364
   4 H :   -0.000033
   5 H :   -0.000034
   6 C :   -0.138350
   7 O :   -0.498519
   8 H :    0.323132
   9 H :    0.104942
  10 H :    0.089912
  11 H :    0.119298
Sum of atomic charges:    0.0000000

LOEWDIN ATOMIC CHARGES
----------------------
   0 C :   -0.000661
   1 O :   -0.000006
   2 H :   -0.000000
   3 H :   -0.002449
   4 H :   -0.000008
   5 H :   -0.000010
   6 C :   -0.390383
   7 O :   -0.063084
   8 H :    0.166733
   9 H :    0.081610
  10 H :    0.099723
  11 H :    0.108536

  Mayer bond orders larger than 0.1
B(  6-C ,  7-O ) :   0.9924 B(  6-C ,  9-H ) :   0.9731 B(  6-C , 10-H ) :   1.0052
B(  6-C , 11-H ) :   0.9674 B(  7-O ,  8-H ) :   0.8900

Dispersion correction           -0.000222511
FINAL SINGLE POINT ENERGY      -115.725168832127

DIPOLE MOMENT
-------------
                                X             Y             Z
Electronic contribution:     -1.64463       0.30012       0.49000
Nuclear contribution   :      1.91069      -0.88863      -0.58615
                        -----------------------------------------
Total Dipole Moment    :      0.26605      -0.58851      -0.09615
                        -----------------------------------------
Magnitude (a.u.)       :      0.65297
Magnitude (Debye)      :      1.65973

Rotational constants in cm-1:     4.571324     0.857709     0.829274
Rotational constants in MHz : 137044.843062 25713.478159 24860.996534

                             ****ORCA TERMINATED NORMALLY****
TOTAL RUN TIME: 0 days 0 hours 1 minutes 33 seconds 455 msec
