                         Program Version 4.1.2  - RELEASE  -
|  1> #Run DFT-D3 single point of the dimer
|  2> ! wB97X-D3 def2-TZVP TIGHTSCF CHELPG PMODEL PAL8
|  3>
|  4> %base "14-31_DFT_AB"
|  5>
|  6> %scf
|  7> MaxIter 1000
|  8> end
|  9>
| 10> * xyz 0 1
| 11>   C                      -0.612086            2.931693             -2.166030
| 12>   O                      -1.917891            3.394526             -2.096503
| 13>   H                      -2.283379            3.362468             -1.200627
| 14>   H                      -0.456620            1.838111             -2.061463
| 15>   H                      -0.083063            3.269453             -3.069938
| 16>   H                      -0.006313            3.238354             -1.311755
| 17>   C                      -1.453790            3.205992             -5.926784
| 18>   O                      -1.457875            2.228123             -6.998101
| 19>   H                      -0.703341            1.666101             -6.898070
| 20>   H                      -1.332936            2.770356             -4.893537
| 21>   H                      -0.664551            4.000581             -6.041633
| 22>   H                      -2.377194            3.697130             -5.930275
| 23> *
| 24>
| 25> #Run DFT-D3 single point of the molecule with dimer basis set
| 26> $new_job
| 27> %base "14-31_DFT_A"
| 28> ! wB97X-D3 def2-TZVP TIGHTSCF CHELPG PMODEL
| 29>
| 30> %scf
| 31> MaxIter 1000
| 32> end
| 33>
| 34> * xyz 0 1
| 35>   C                      -0.612086            2.931693             -2.166030
| 36>   O                      -1.917891            3.394526             -2.096503
| 37>   H                      -2.283379            3.362468             -1.200627
| 38>   H                      -0.456620            1.838111             -2.061463
| 39>   H                      -0.083063            3.269453             -3.069938
| 40>   H                      -0.006313            3.238354             -1.311755
| 41>   C                    : -1.453790            3.205992             -5.926784
| 42>   O                    : -1.457875            2.228123             -6.998101
| 43>   H                    : -0.703341            1.666101             -6.898070
| 44>   H                    : -1.332936            2.770356             -4.893537
| 45>   H                    : -0.664551            4.000581             -6.041633
| 46>   H                    : -2.377194            3.697130             -5.930275
| 47> *
| 48>
| 49> #Run DFT-D3 single point of the particle with dimer basis set
| 50> $new_job
| 51> %base "14-31_DFT_B"
| 52> ! wB97X-D3 def2-TZVP TIGHTSCF CHELPG PMODEL
| 53>
| 54> %scf
| 55> MaxIter 1000
| 56> end
| 57>
| 58> * xyz 0 1
| 59>   C                    : -0.612086            2.931693             -2.166030
| 60>   O                    : -1.917891            3.394526             -2.096503
| 61>   H                    : -2.283379            3.362468             -1.200627
| 62>   H                    : -0.456620            1.838111             -2.061463
| 63>   H                    : -0.083063            3.269453             -3.069938
| 64>   H                    : -0.006313            3.238354             -1.311755
| 65>   C                      -1.453790            3.205992             -5.926784
| 66>   O                      -1.457875            2.228123             -6.998101
| 67>   H                      -0.703341            1.666101             -6.898070
| 68>   H                      -1.332936            2.770356             -4.893537
| 69>   H                      -0.664551            4.000581             -6.041633
| 70>   H                      -2.377194            3.697130             -5.930275
| 71> *
| 72>
| 73>                          ****END OF INPUT****
 Total Charge           Charge          ....    0
 Multiplicity           Mult            ....    1
 Number of Electrons    NEL             ....   36
Dispersion correction           -0.001590695
FINAL SINGLE POINT ENERGY      -231.466466273093
Dispersion correction           -0.000258881
FINAL SINGLE POINT ENERGY      -115.732189009192

CARTESIAN COORDINATES (ANGSTROEM)
---------------------------------
  C     -0.612086    2.931693   -2.166030
  O     -1.917891    3.394526   -2.096503
  H     -2.283379    3.362468   -1.200627
  H     -0.456620    1.838111   -2.061463
  H     -0.083063    3.269453   -3.069938
  H     -0.006313    3.238354   -1.311755
  C     -1.453790    3.205992   -5.926784
  O     -1.457875    2.228123   -6.998101
  H     -0.703341    1.666101   -6.898070
  H     -1.332936    2.770356   -4.893537
  H     -0.664551    4.000581   -6.041633
  H     -2.377194    3.697130   -5.930275

 Multiplicity           Mult            ....    1
 Number of Electrons    NEL             ....   18
 Basis Dimension        Dim             ....  172

ORBITAL ENERGIES
----------------

  NO   OCC          E(Eh)            E(eV)
   0   2.0000     -19.231649      -523.3198
   1   2.0000     -10.318255      -280.7740
   2   2.0000      -1.128824       -30.7169
   3   2.0000      -0.799606       -21.7584
   4   2.0000      -0.606042       -16.4912
   5   2.0000      -0.531126       -14.4527
   6   2.0000      -0.526306       -14.3215
   7   2.0000      -0.439222       -11.9518
   8   2.0000      -0.376596       -10.2477
   9   0.0000       0.081011         2.2044
  10   0.0000       0.119519         3.2523
  11   0.0000       0.150236         4.0881
  12   0.0000       0.163558         4.4507
  13   0.0000       0.184502         5.0205

MULLIKEN ATOMIC CHARGES
-----------------------
   0 C :    0.002101
   1 O :   -0.000104
   2 H :   -0.000042
   3 H :   -0.000427
   4 H :   -0.003900
   5 H :   -0.000176
   6 C :   -0.162000
   7 O :   -0.473703
   8 H :    0.311547
   9 H :    0.097044
  10 H :    0.102127
  11 H :    0.127533
Sum of atomic charges:   -0.0000000

LOEWDIN ATOMIC CHARGES
----------------------
   0 C :   -0.009369
   1 O :   -0.000963
   2 H :   -0.000070
   3 H :   -0.000367
   4 H :   -0.005340
   5 H :   -0.000107
   6 C :   -0.358848
   7 O :   -0.090037
   8 H :    0.156112
   9 H :    0.109365
  10 H :    0.101807
  11 H :    0.097818

  Mayer bond orders larger than 0.1
B(  6-C ,  7-O ) :   0.9995 B(  6-C ,  9-H ) :   0.9794 B(  6-C , 10-H ) :   0.9715
B(  6-C , 11-H ) :   0.9726 B(  7-O ,  8-H ) :   0.9042

Dispersion correction           -0.000278673
FINAL SINGLE POINT ENERGY      -115.733482146879

DIPOLE MOMENT
-------------
                                X             Y             Z
Electronic contribution:     -0.15955      -1.21451      -1.45348
Nuclear contribution   :      0.61182       1.25967       1.95326
                        -----------------------------------------
Total Dipole Moment    :      0.45227       0.04516       0.49978
                        -----------------------------------------
Magnitude (a.u.)       :      0.67555
Magnitude (Debye)      :      1.71711

Rotational constants in cm-1:     4.350811     0.786730     0.765921
Rotational constants in MHz : 130434.042241 23585.559563 22961.740696

                             ****ORCA TERMINATED NORMALLY****
TOTAL RUN TIME: 0 days 0 hours 1 minutes 10 seconds 41 msec
