                         Program Version 4.1.2  - RELEASE  -
|  1> #Run DFT-D3 single point of the dimer
|  2> ! wB97X-D3 def2-TZVP TIGHTSCF  CHELPG PAL8
|  3>
|  4> %base "141_charges"
|  5>
|  6> %scf
|  7> MaxIter 1000
|  8> end
|  9> %output
| 10>   Print[ P_Mayer ] 1
| 11>   Print[ P_NatPop ] 1
| 12>   Print[ P_Hirshfeld ] 1
| 13>   Print[ P_Mulliken ] 1
| 14>   Print [ P_Loewdin ] 1
| 15> end
| 16>
| 17> * xyz 0 1
| 18>   C                      2.144737             -1.328025            -7.359754
| 19>   O                      1.662647             -2.566735            -7.799575
| 20>   H                      1.120256             -2.920308            -7.102677
| 21>   H                      1.464912             -0.506210            -7.409826
| 22>   H                      2.408947             -1.353031            -6.285190
| 23>   H                      3.048631             -0.930215            -7.883937
| 24> *
| 25>
| 26>                          ****END OF INPUT****

CARTESIAN COORDINATES (ANGSTROEM)
---------------------------------
  C      2.144737   -1.328025   -7.359754
  O      1.662647   -2.566735   -7.799575
  H      1.120256   -2.920308   -7.102677
  H      1.464912   -0.506210   -7.409826
  H      2.408947   -1.353031   -6.285190
  H      3.048631   -0.930215   -7.883937

 Total Charge           Charge          ....    0
 Multiplicity           Mult            ....    1
 Number of Electrons    NEL             ....   18
 Basis Dimension        Dim             ....   86

ORBITAL ENERGIES
----------------

  NO   OCC          E(Eh)            E(eV)
   0   2.0000     -19.234222      -523.3898
   1   2.0000     -10.313222      -280.6370
   2   2.0000      -1.144928       -31.1551
   3   2.0000      -0.797581       -21.7033
   4   2.0000      -0.619995       -16.8709
   5   2.0000      -0.538446       -14.6519
   6   2.0000      -0.530326       -14.4309
   7   2.0000      -0.433198       -11.7879
   8   2.0000      -0.374334       -10.1861
   9   0.0000       0.115308         3.1377
  10   0.0000       0.150866         4.1053
  11   0.0000       0.202291         5.5046
  12   0.0000       0.211807         5.7636
  13   0.0000       0.229219         6.2374

MULLIKEN ATOMIC CHARGES
-----------------------
   0 C :   -0.168673
   1 O :   -0.462560
   2 H :    0.318510
   3 H :    0.100505
   4 H :    0.096917
   5 H :    0.115300
Sum of atomic charges:   -0.0000000

LOEWDIN ATOMIC CHARGES
----------------------
   0 C :   -0.405136
   1 O :   -0.058293
   2 H :    0.168524
   3 H :    0.086013
   4 H :    0.096607
   5 H :    0.112285

  Mayer bond orders larger than 0.1
B(  0-C ,  1-O ) :   1.0102 B(  0-C ,  3-H ) :   0.9706 B(  0-C ,  4-H ) :   0.9865
B(  0-C ,  5-H ) :   0.9734 B(  1-O ,  2-H ) :   0.8979

Dispersion correction           -0.000248665
FINAL SINGLE POINT ENERGY      -115.731899424377

DIPOLE MOMENT
-------------
                                X             Y             Z
Electronic contribution:     -0.62328      -1.73062      -0.81754
Nuclear contribution   :      0.46026       1.98595       1.44167
                        -----------------------------------------
Total Dipole Moment    :     -0.16302       0.25533       0.62413
                        -----------------------------------------
Magnitude (a.u.)       :      0.69376
Magnitude (Debye)      :      1.76340

Rotational constants in cm-1:     4.494086     0.832913     0.796775
Rotational constants in MHz : 134729.309424 24970.110546 23886.716040

                             ****ORCA TERMINATED NORMALLY****
TOTAL RUN TIME: 0 days 0 hours 0 minutes 40 seconds 118 msec
