                         Program Version 4.1.2  - RELEASE  -
|  1> #Run DFT-D3 single point of the dimer
|  2> ! wB97X-D3 def2-TZVP TIGHTSCF CHELPG PMODEL PAL8
|  3>
|  4> %base "9-103_DFT_AB"
|  5>
|  6> %scf
|  7> MaxIter 1000
|  8> end
|  9>
| 10> * xyz 0 1
| 11>   C                      6.482871             0.175619             -3.124092
| 12>   O                      5.876064             1.479061             -3.086430
| 13>   H                      5.127288             1.460981             -2.485195
| 14>   H                      6.305677             -0.243266            -2.102666
| 15>   H                      5.921835             -0.472918            -3.836024
| 16>   H                      7.590044             0.153542             -3.268757
| 17>   C                      3.170945             0.983623             -6.569867
| 18>   O                      4.280881             0.472252             -5.817686
| 19>   H                      4.458388             1.056046             -5.107771
| 20>   H                      3.371466             2.121854             -6.607864
| 21>   H                      3.348184             0.656798             -7.618752
| 22>   H                      2.126035             0.707362             -6.156423
| 23> *
| 24>
| 25> #Run DFT-D3 single point of the molecule with dimer basis set
| 26> $new_job
| 27> %base "9-103_DFT_A"
| 28> ! wB97X-D3 def2-TZVP TIGHTSCF CHELPG PMODEL
| 29>
| 30> %scf
| 31> MaxIter 1000
| 32> end
| 33>
| 34> * xyz 0 1
| 35>   C                      6.482871             0.175619             -3.124092
| 36>   O                      5.876064             1.479061             -3.086430
| 37>   H                      5.127288             1.460981             -2.485195
| 38>   H                      6.305677             -0.243266            -2.102666
| 39>   H                      5.921835             -0.472918            -3.836024
| 40>   H                      7.590044             0.153542             -3.268757
| 41>   C                    : 3.170945             0.983623             -6.569867
| 42>   O                    : 4.280881             0.472252             -5.817686
| 43>   H                    : 4.458388             1.056046             -5.107771
| 44>   H                    : 3.371466             2.121854             -6.607864
| 45>   H                    : 3.348184             0.656798             -7.618752
| 46>   H                    : 2.126035             0.707362             -6.156423
| 47> *
| 48>
| 49> #Run DFT-D3 single point of the particle with dimer basis set
| 50> $new_job
| 51> %base "9-103_DFT_B"
| 52> ! wB97X-D3 def2-TZVP TIGHTSCF CHELPG PMODEL
| 53>
| 54> %scf
| 55> MaxIter 1000
| 56> end
| 57>
| 58> * xyz 0 1
| 59>   C                    : 6.482871             0.175619             -3.124092
| 60>   O                    : 5.876064             1.479061             -3.086430
| 61>   H                    : 5.127288             1.460981             -2.485195
| 62>   H                    : 6.305677             -0.243266            -2.102666
| 63>   H                    : 5.921835             -0.472918            -3.836024
| 64>   H                    : 7.590044             0.153542             -3.268757
| 65>   C                      3.170945             0.983623             -6.569867
| 66>   O                      4.280881             0.472252             -5.817686
| 67>   H                      4.458388             1.056046             -5.107771
| 68>   H                      3.371466             2.121854             -6.607864
| 69>   H                      3.348184             0.656798             -7.618752
| 70>   H                      2.126035             0.707362             -6.156423
| 71> *
| 72>
| 73>                          ****END OF INPUT****
 Total Charge           Charge          ....    0
 Multiplicity           Mult            ....    1
 Number of Electrons    NEL             ....   36
Dispersion correction           -0.001627324
FINAL SINGLE POINT ENERGY      -231.463643766236
Dispersion correction           -0.000249290
FINAL SINGLE POINT ENERGY      -115.730710065626

CARTESIAN COORDINATES (ANGSTROEM)
---------------------------------
  C      6.482871    0.175619   -3.124092
  O      5.876064    1.479061   -3.086430
  H      5.127288    1.460981   -2.485195
  H      6.305677   -0.243266   -2.102666
  H      5.921835   -0.472918   -3.836024
  H      7.590044    0.153542   -3.268757
  C      3.170945    0.983623   -6.569867
  O      4.280881    0.472252   -5.817686
  H      4.458388    1.056046   -5.107771
  H      3.371466    2.121854   -6.607864
  H      3.348184    0.656798   -7.618752
  H      2.126035    0.707362   -6.156423

 Multiplicity           Mult            ....    1
 Number of Electrons    NEL             ....   18
 Basis Dimension        Dim             ....  172

ORBITAL ENERGIES
----------------

  NO   OCC          E(Eh)            E(eV)
   0   2.0000     -19.227058      -523.1949
   1   2.0000     -10.331750      -281.1412
   2   2.0000      -1.135161       -30.8893
   3   2.0000      -0.787836       -21.4381
   4   2.0000      -0.603292       -16.4164
   5   2.0000      -0.541576       -14.7370
   6   2.0000      -0.521293       -14.1851
   7   2.0000      -0.425207       -11.5705
   8   2.0000      -0.376065       -10.2333
   9   0.0000       0.080492         2.1903
  10   0.0000       0.124030         3.3750
  11   0.0000       0.153087         4.1657
  12   0.0000       0.172684         4.6990
  13   0.0000       0.187657         5.1064

MULLIKEN ATOMIC CHARGES
-----------------------
   0 C :   -0.000475
   1 O :    0.000756
   2 H :   -0.000430
   3 H :    0.000151
   4 H :   -0.005641
   5 H :    0.000024
   6 C :   -0.178600
   7 O :   -0.464073
   8 H :    0.310162
   9 H :    0.103766
  10 H :    0.125929
  11 H :    0.108429
Sum of atomic charges:    0.0000000

LOEWDIN ATOMIC CHARGES
----------------------
   0 C :   -0.004837
   1 O :   -0.003375
   2 H :   -0.000940
   3 H :   -0.000032
   4 H :   -0.005457
   5 H :   -0.000036
   6 C :   -0.383373
   7 O :   -0.079289
   8 H :    0.152163
   9 H :    0.107625
  10 H :    0.111125
  11 H :    0.106424

  Mayer bond orders larger than 0.1
B(  6-C ,  7-O ) :   0.9929 B(  6-C ,  9-H ) :   0.9880 B(  6-C , 10-H ) :   0.9735
B(  6-C , 11-H ) :   0.9558 B(  7-O ,  8-H ) :   0.9062

Dispersion correction           -0.000261784
FINAL SINGLE POINT ENERGY      -115.727652905973

DIPOLE MOMENT
-------------
                                X             Y             Z
Electronic contribution:      1.25980      -0.86481       0.88705
Nuclear contribution   :     -1.56313       1.45240      -0.75742
                        -----------------------------------------
Total Dipole Moment    :     -0.30332       0.58759       0.12963
                        -----------------------------------------
Magnitude (a.u.)       :      0.67385
Magnitude (Debye)      :      1.71279

Rotational constants in cm-1:     3.959218     0.805193     0.791118
Rotational constants in MHz : 118694.368942 24139.063877 23717.124898

                             ****ORCA TERMINATED NORMALLY****
TOTAL RUN TIME: 0 days 0 hours 0 minutes 40 seconds 754 msec
