                         Program Version 4.1.2  - RELEASE  -
|  1> #Run DFT-D3 single point of the dimer
|  2> ! wB97X-D3 def2-TZVP TIGHTSCF CHELPG PMODEL PAL8
|  3>
|  4> %base "4-7_DFT_AB"
|  5>
|  6> %scf
|  7> MaxIter 1000
|  8> end
|  9>
| 10> * xyz 0 1
| 11>   C                      9.510002             3.753170             -5.325528
| 12>   O                      9.876401             4.225670             -4.068210
| 13>   H                      10.364098            5.018810             -4.265636
| 14>   H                      8.978419             2.857762             -5.197583
| 15>   H                      8.779346             4.325251             -5.874902
| 16>   H                      10.363160            3.582555             -6.031037
| 17>   C                      10.617867            0.336756             -3.608992
| 18>   O                      11.777566            -0.433742            -3.701011
| 19>   H                      12.452453            0.202574             -3.976502
| 20>   H                      10.156272            0.244509             -2.655682
| 21>   H                      10.910703            1.349251             -3.675621
| 22>   H                      9.901700             0.017406             -4.360395
| 23> *
| 24>
| 25> #Run DFT-D3 single point of the molecule with dimer basis set
| 26> $new_job
| 27> %base "4-7_DFT_A"
| 28> ! wB97X-D3 def2-TZVP TIGHTSCF CHELPG PMODEL
| 29>
| 30> %scf
| 31> MaxIter 1000
| 32> end
| 33>
| 34> * xyz 0 1
| 35>   C                      9.510002             3.753170             -5.325528
| 36>   O                      9.876401             4.225670             -4.068210
| 37>   H                      10.364098            5.018810             -4.265636
| 38>   H                      8.978419             2.857762             -5.197583
| 39>   H                      8.779346             4.325251             -5.874902
| 40>   H                      10.363160            3.582555             -6.031037
| 41>   C                    : 10.617867            0.336756             -3.608992
| 42>   O                    : 11.777566            -0.433742            -3.701011
| 43>   H                    : 12.452453            0.202574             -3.976502
| 44>   H                    : 10.156272            0.244509             -2.655682
| 45>   H                    : 10.910703            1.349251             -3.675621
| 46>   H                    : 9.901700             0.017406             -4.360395
| 47> *
| 48>
| 49> #Run DFT-D3 single point of the particle with dimer basis set
| 50> $new_job
| 51> %base "4-7_DFT_B"
| 52> ! wB97X-D3 def2-TZVP TIGHTSCF CHELPG PMODEL
| 53>
| 54> %scf
| 55> MaxIter 1000
| 56> end
| 57>
| 58> * xyz 0 1
| 59>   C                    : 9.510002             3.753170             -5.325528
| 60>   O                    : 9.876401             4.225670             -4.068210
| 61>   H                    : 10.364098            5.018810             -4.265636
| 62>   H                    : 8.978419             2.857762             -5.197583
| 63>   H                    : 8.779346             4.325251             -5.874902
| 64>   H                    : 10.363160            3.582555             -6.031037
| 65>   C                      10.617867            0.336756             -3.608992
| 66>   O                      11.777566            -0.433742            -3.701011
| 67>   H                      12.452453            0.202574             -3.976502
| 68>   H                      10.156272            0.244509             -2.655682
| 69>   H                      10.910703            1.349251             -3.675621
| 70>   H                      9.901700             0.017406             -4.360395
| 71> *
| 72>
| 73>                          ****END OF INPUT****
 Total Charge           Charge          ....    0
 Multiplicity           Mult            ....    1
 Number of Electrons    NEL             ....   36
Dispersion correction           -0.001493395
FINAL SINGLE POINT ENERGY      -231.464926343893
Dispersion correction           -0.000233802
FINAL SINGLE POINT ENERGY      -115.732295563883

CARTESIAN COORDINATES (ANGSTROEM)
---------------------------------
  C      9.510002    3.753170   -5.325528
  O      9.876401    4.225670   -4.068210
  H     10.364098    5.018810   -4.265636
  H      8.978419    2.857762   -5.197583
  H      8.779346    4.325251   -5.874902
  H     10.363160    3.582555   -6.031037
  C     10.617867    0.336756   -3.608992
  O     11.777566   -0.433742   -3.701011
  H     12.452453    0.202574   -3.976502
  H     10.156272    0.244509   -2.655682
  H     10.910703    1.349251   -3.675621
  H      9.901700    0.017406   -4.360395

 Multiplicity           Mult            ....    1
 Number of Electrons    NEL             ....   18
 Basis Dimension        Dim             ....  172

ORBITAL ENERGIES
----------------

  NO   OCC          E(Eh)            E(eV)
   0   2.0000     -19.227958      -523.2193
   1   2.0000     -10.302276      -280.3392
   2   2.0000      -1.142637       -31.0927
   3   2.0000      -0.796172       -21.6649
   4   2.0000      -0.616360       -16.7720
   5   2.0000      -0.546741       -14.8776
   6   2.0000      -0.534730       -14.5508
   7   2.0000      -0.434767       -11.8306
   8   2.0000      -0.371694       -10.1143
   9   0.0000       0.078520         2.1366
  10   0.0000       0.114533         3.1166
  11   0.0000       0.152164         4.1406
  12   0.0000       0.164781         4.4839
  13   0.0000       0.193602         5.2682

MULLIKEN ATOMIC CHARGES
-----------------------
   0 C :   -0.000010
   1 O :    0.000063
   2 H :   -0.000018
   3 H :   -0.001730
   4 H :   -0.000137
   5 H :    0.000100
   6 C :   -0.158709
   7 O :   -0.465218
   8 H :    0.315667
   9 H :    0.106730
  10 H :    0.099272
  11 H :    0.103990
Sum of atomic charges:    0.0000000

LOEWDIN ATOMIC CHARGES
----------------------
   0 C :   -0.003830
   1 O :   -0.000725
   2 H :   -0.000068
   3 H :   -0.001672
   4 H :   -0.000042
   5 H :   -0.000234
   6 C :   -0.389082
   7 O :   -0.068395
   8 H :    0.177636
   9 H :    0.095008
  10 H :    0.092089
  11 H :    0.099315

  Mayer bond orders larger than 0.1
B(  6-C ,  7-O ) :   1.0177 B(  6-C ,  9-H ) :   0.9734 B(  6-C , 10-H ) :   0.9992
B(  6-C , 11-H ) :   0.9768 B(  7-O ,  8-H ) :   0.9044

Dispersion correction           -0.000214025
FINAL SINGLE POINT ENERGY      -115.730925959903

DIPOLE MOMENT
-------------
                                X             Y             Z
Electronic contribution:      1.37969      -1.10489      -0.09989
Nuclear contribution   :     -1.38603       1.82058      -0.01861
                        -----------------------------------------
Total Dipole Moment    :     -0.00635       0.71569      -0.11849
                        -----------------------------------------
Magnitude (a.u.)       :      0.72547
Magnitude (Debye)      :      1.84399

Rotational constants in cm-1:     4.360540     0.866211     0.832293
Rotational constants in MHz : 130725.701821 25968.366941 24951.505134

                             ****ORCA TERMINATED NORMALLY****
TOTAL RUN TIME: 0 days 0 hours 1 minutes 34 seconds 799 msec
