                         Program Version 4.1.2  - RELEASE  -
|  1> #Run DFT-D3 single point of the dimer
|  2> ! wB97X-D3 def2-TZVP TIGHTSCF CHELPG PMODEL PAL8
|  3>
|  4> %base "10-199_DFT_AB"
|  5>
|  6> %scf
|  7> MaxIter 1000
|  8> end
|  9>
| 10> * xyz 0 1
| 11>   C                      -6.367076            7.219084             4.384384
| 12>   O                      -6.531146            5.884104             4.062090
| 13>   H                      -7.046276            5.471730             4.776969
| 14>   H                      -5.481634            7.619671             3.840341
| 15>   H                      -7.226270            7.889155             4.174136
| 16>   H                      -6.196221            7.273434             5.470295
| 17>   C                      -6.628751            4.410598             1.237463
| 18>   O                      -6.240640            3.256132             1.916110
| 19>   H                      -6.294813            3.544461             2.875612
| 20>   H                      -7.445922            4.955824             1.738805
| 21>   H                      -5.770708            4.985715             1.059692
| 22>   H                      -6.850357            4.201028             0.178720
| 23> *
| 24>
| 25> #Run DFT-D3 single point of the molecule with dimer basis set
| 26> $new_job
| 27> %base "10-199_DFT_A"
| 28> ! wB97X-D3 def2-TZVP TIGHTSCF CHELPG PMODEL
| 29>
| 30> %scf
| 31> MaxIter 1000
| 32> end
| 33>
| 34> * xyz 0 1
| 35>   C                      -6.367076            7.219084             4.384384
| 36>   O                      -6.531146            5.884104             4.062090
| 37>   H                      -7.046276            5.471730             4.776969
| 38>   H                      -5.481634            7.619671             3.840341
| 39>   H                      -7.226270            7.889155             4.174136
| 40>   H                      -6.196221            7.273434             5.470295
| 41>   C                    : -6.628751            4.410598             1.237463
| 42>   O                    : -6.240640            3.256132             1.916110
| 43>   H                    : -6.294813            3.544461             2.875612
| 44>   H                    : -7.445922            4.955824             1.738805
| 45>   H                    : -5.770708            4.985715             1.059692
| 46>   H                    : -6.850357            4.201028             0.178720
| 47> *
| 48>
| 49> #Run DFT-D3 single point of the particle with dimer basis set
| 50> $new_job
| 51> %base "10-199_DFT_B"
| 52> ! wB97X-D3 def2-TZVP TIGHTSCF CHELPG PMODEL
| 53>
| 54> %scf
| 55> MaxIter 1000
| 56> end
| 57>
| 58> * xyz 0 1
| 59>   C                    : -6.367076            7.219084             4.384384
| 60>   O                    : -6.531146            5.884104             4.062090
| 61>   H                    : -7.046276            5.471730             4.776969
| 62>   H                    : -5.481634            7.619671             3.840341
| 63>   H                    : -7.226270            7.889155             4.174136
| 64>   H                    : -6.196221            7.273434             5.470295
| 65>   C                      -6.628751            4.410598             1.237463
| 66>   O                      -6.240640            3.256132             1.916110
| 67>   H                      -6.294813            3.544461             2.875612
| 68>   H                      -7.445922            4.955824             1.738805
| 69>   H                      -5.770708            4.985715             1.059692
| 70>   H                      -6.850357            4.201028             0.178720
| 71> *
| 72>
| 73>                          ****END OF INPUT****
 Total Charge           Charge          ....    0
 Multiplicity           Mult            ....    1
 Number of Electrons    NEL             ....   36
Dispersion correction           -0.001829041
FINAL SINGLE POINT ENERGY      -231.464882622948
Dispersion correction           -0.000232913
FINAL SINGLE POINT ENERGY      -115.734506377831

CARTESIAN COORDINATES (ANGSTROEM)
---------------------------------
  C     -6.367076    7.219084    4.384384
  O     -6.531146    5.884104    4.062090
  H     -7.046276    5.471730    4.776969
  H     -5.481634    7.619671    3.840341
  H     -7.226270    7.889155    4.174136
  H     -6.196221    7.273434    5.470295
  C     -6.628751    4.410598    1.237463
  O     -6.240640    3.256132    1.916110
  H     -6.294813    3.544461    2.875612
  H     -7.445922    4.955824    1.738805
  H     -5.770708    4.985715    1.059692
  H     -6.850357    4.201028    0.178720

 Multiplicity           Mult            ....    1
 Number of Electrons    NEL             ....   18
 Basis Dimension        Dim             ....  172

ORBITAL ENERGIES
----------------

  NO   OCC          E(Eh)            E(eV)
   0   2.0000     -19.233852      -523.3797
   1   2.0000     -10.306679      -280.4590
   2   2.0000      -1.138031       -30.9674
   3   2.0000      -0.792145       -21.5554
   4   2.0000      -0.606917       -16.5151
   5   2.0000      -0.552448       -15.0329
   6   2.0000      -0.525478       -14.2990
   7   2.0000      -0.435497       -11.8505
   8   2.0000      -0.368197       -10.0192
   9   0.0000       0.069565         1.8930
  10   0.0000       0.117440         3.1957
  11   0.0000       0.149664         4.0726
  12   0.0000       0.171393         4.6638
  13   0.0000       0.190056         5.1717

MULLIKEN ATOMIC CHARGES
-----------------------
   0 C :   -0.000191
   1 O :   -0.000338
   2 H :   -0.000193
   3 H :   -0.000069
   4 H :   -0.000064
   5 H :   -0.000008
   6 C :   -0.176131
   7 O :   -0.461929
   8 H :    0.316800
   9 H :    0.104169
  10 H :    0.107502
  11 H :    0.110453
Sum of atomic charges:    0.0000000

LOEWDIN ATOMIC CHARGES
----------------------
   0 C :   -0.001052
   1 O :   -0.006069
   2 H :   -0.000861
   3 H :   -0.000099
   4 H :   -0.000053
   5 H :   -0.000017
   6 C :   -0.408914
   7 O :   -0.078503
   8 H :    0.198493
   9 H :    0.099437
  10 H :    0.087982
  11 H :    0.109657

  Mayer bond orders larger than 0.1
B(  6-C ,  7-O ) :   1.0053 B(  6-C ,  9-H ) :   0.9800 B(  6-C , 10-H ) :   0.9822
B(  6-C , 11-H ) :   0.9742 B(  7-O ,  8-H ) :   0.8992

Dispersion correction           -0.000218725
FINAL SINGLE POINT ENERGY      -115.726781272906

DIPOLE MOMENT
-------------
                                X             Y             Z
Electronic contribution:      0.43898      -1.57895       0.83322
Nuclear contribution   :     -0.59878       2.19125      -0.52648
                        -----------------------------------------
Total Dipole Moment    :     -0.15980       0.61230       0.30674
                        -----------------------------------------
Magnitude (a.u.)       :      0.70323
Magnitude (Debye)      :      1.78748

Rotational constants in cm-1:     4.245798     0.865093     0.816504
Rotational constants in MHz : 127285.826750 25934.839850 24478.174498

                             ****ORCA TERMINATED NORMALLY****
TOTAL RUN TIME: 0 days 0 hours 1 minutes 8 seconds 592 msec
