                         Program Version 4.1.2  - RELEASE  -
|  1> #Run DFT-D3 single point of the dimer
|  2> ! wB97X-D3 def2-TZVP TIGHTSCF CHELPG PMODEL PAL8
|  3>
|  4> %base "5-70_DFT_AB"
|  5>
|  6> %scf
|  7> MaxIter 1000
|  8> end
|  9>
| 10> * xyz 0 1
| 11>   C                      0.496941             1.392049             5.026981
| 12>   O                      -0.494197            0.337308             5.082726
| 13>   H                      -0.689183            0.394878             4.127763
| 14>   H                      1.282604             1.248695             5.776744
| 15>   H                      1.032644             1.416140             4.066925
| 16>   H                      -0.013328            2.353019             5.225455
| 17>   C                      1.586198             3.064769             1.258012
| 18>   O                      2.942958             3.362784             1.580281
| 19>   H                      3.444564             3.670223             0.817226
| 20>   H                      1.019516             3.962641             1.026956
| 21>   H                      1.526199             2.411293             0.366586
| 22>   H                      0.905983             2.694856             2.019195
| 23> *
| 24>
| 25> #Run DFT-D3 single point of the molecule with dimer basis set
| 26> $new_job
| 27> %base "5-70_DFT_A"
| 28> ! wB97X-D3 def2-TZVP TIGHTSCF CHELPG PMODEL
| 29>
| 30> %scf
| 31> MaxIter 1000
| 32> end
| 33>
| 34> * xyz 0 1
| 35>   C                      0.496941             1.392049             5.026981
| 36>   O                      -0.494197            0.337308             5.082726
| 37>   H                      -0.689183            0.394878             4.127763
| 38>   H                      1.282604             1.248695             5.776744
| 39>   H                      1.032644             1.416140             4.066925
| 40>   H                      -0.013328            2.353019             5.225455
| 41>   C                    : 1.586198             3.064769             1.258012
| 42>   O                    : 2.942958             3.362784             1.580281
| 43>   H                    : 3.444564             3.670223             0.817226
| 44>   H                    : 1.019516             3.962641             1.026956
| 45>   H                    : 1.526199             2.411293             0.366586
| 46>   H                    : 0.905983             2.694856             2.019195
| 47> *
| 48>
| 49> #Run DFT-D3 single point of the particle with dimer basis set
| 50> $new_job
| 51> %base "5-70_DFT_B"
| 52> ! wB97X-D3 def2-TZVP TIGHTSCF CHELPG PMODEL
| 53>
| 54> %scf
| 55> MaxIter 1000
| 56> end
| 57>
| 58> * xyz 0 1
| 59>   C                    : 0.496941             1.392049             5.026981
| 60>   O                    : -0.494197            0.337308             5.082726
| 61>   H                    : -0.689183            0.394878             4.127763
| 62>   H                    : 1.282604             1.248695             5.776744
| 63>   H                    : 1.032644             1.416140             4.066925
| 64>   H                    : -0.013328            2.353019             5.225455
| 65>   C                      1.586198             3.064769             1.258012
| 66>   O                      2.942958             3.362784             1.580281
| 67>   H                      3.444564             3.670223             0.817226
| 68>   H                      1.019516             3.962641             1.026956
| 69>   H                      1.526199             2.411293             0.366586
| 70>   H                      0.905983             2.694856             2.019195
| 71> *
| 72>
| 73>                          ****END OF INPUT****
 Total Charge           Charge          ....    0
 Multiplicity           Mult            ....    1
 Number of Electrons    NEL             ....   36
Dispersion correction           -0.001246281
FINAL SINGLE POINT ENERGY      -231.457088573349
Dispersion correction           -0.000226452
FINAL SINGLE POINT ENERGY      -115.728787094517

CARTESIAN COORDINATES (ANGSTROEM)
---------------------------------
  C      0.496941    1.392049    5.026981
  O     -0.494197    0.337308    5.082726
  H     -0.689183    0.394878    4.127763
  H      1.282604    1.248695    5.776744
  H      1.032644    1.416140    4.066925
  H     -0.013328    2.353019    5.225455
  C      1.586198    3.064769    1.258012
  O      2.942958    3.362784    1.580281
  H      3.444564    3.670223    0.817226
  H      1.019516    3.962641    1.026956
  H      1.526199    2.411293    0.366586
  H      0.905983    2.694856    2.019195

 Multiplicity           Mult            ....    1
 Number of Electrons    NEL             ....   18
 Basis Dimension        Dim             ....  172

ORBITAL ENERGIES
----------------

  NO   OCC          E(Eh)            E(eV)
   0   2.0000     -19.230875      -523.2987
   1   2.0000     -10.314882      -280.6822
   2   2.0000      -1.129523       -30.7359
   3   2.0000      -0.801374       -21.8065
   4   2.0000      -0.611016       -16.6266
   5   2.0000      -0.544997       -14.8301
   6   2.0000      -0.523789       -14.2530
   7   2.0000      -0.424538       -11.5523
   8   2.0000      -0.372313       -10.1311
   9   0.0000       0.089480         2.4349
  10   0.0000       0.116586         3.1725
  11   0.0000       0.150330         4.0907
  12   0.0000       0.172971         4.7068
  13   0.0000       0.195406         5.3173

MULLIKEN ATOMIC CHARGES
-----------------------
   0 C :   -0.001633
   1 O :    0.000053
   2 H :   -0.000123
   3 H :    0.000050
   4 H :    0.003996
   5 H :   -0.000259
   6 C :   -0.172959
   7 O :   -0.486171
   8 H :    0.322403
   9 H :    0.103607
  10 H :    0.104290
  11 H :    0.126746
Sum of atomic charges:   -0.0000000

LOEWDIN ATOMIC CHARGES
----------------------
   0 C :   -0.002227
   1 O :   -0.000008
   2 H :   -0.000112
   3 H :   -0.000013
   4 H :   -0.003134
   5 H :   -0.000145
   6 C :   -0.381700
   7 O :   -0.087875
   8 H :    0.172072
   9 H :    0.094049
  10 H :    0.098402
  11 H :    0.110690

  Mayer bond orders larger than 0.1
B(  6-C ,  7-O ) :   0.9967 B(  6-C ,  9-H ) :   0.9782 B(  6-C , 10-H ) :   0.9836
B(  6-C , 11-H ) :   0.9692 B(  7-O ,  8-H ) :   0.8908

Dispersion correction           -0.000267075
FINAL SINGLE POINT ENERGY      -115.727742550680

DIPOLE MOMENT
-------------
                                X             Y             Z
Electronic contribution:      1.82459       0.25559       0.64452
Nuclear contribution   :     -2.08020      -0.16282      -1.25891
                        -----------------------------------------
Total Dipole Moment    :     -0.25562       0.09277      -0.61438
                        -----------------------------------------
Magnitude (a.u.)       :      0.67187
Magnitude (Debye)      :      1.70776

Rotational constants in cm-1:     4.565972     0.800397     0.773425
Rotational constants in MHz : 136884.400373 23995.305398 23186.710060

                             ****ORCA TERMINATED NORMALLY****
TOTAL RUN TIME: 0 days 0 hours 1 minutes 3 seconds 923 msec
