                         Program Version 4.1.2  - RELEASE  -
|  1> #Run DFT-D3 single point of the dimer
|  2> ! wB97X-D3 def2-TZVP TIGHTSCF CHELPG PMODEL PAL8
|  3>
|  4> %base "4-36_DFT_AB"
|  5>
|  6> %scf
|  7> MaxIter 1000
|  8> end
|  9>
| 10> * xyz 0 1
| 11>   C                      -5.192736            -2.225288            6.637700
| 12>   O                      -5.408181            -1.507434            5.386835
| 13>   H                      -4.517370            -1.420161            5.041826
| 14>   H                      -4.838058            -1.544956            7.408872
| 15>   H                      -6.004383            -2.688830            7.117625
| 16>   H                      -4.338427            -2.918640            6.592779
| 17>   C                      -3.154112            1.021255             8.295838
| 18>   O                      -2.076771            1.277094             7.378946
| 19>   H                      -1.328674            1.533873             7.973581
| 20>   H                      -3.482555            -0.035456            8.307757
| 21>   H                      -2.847816            1.249508             9.316630
| 22>   H                      -4.133166            1.517679             7.981497
| 23> *
| 24>
| 25> #Run DFT-D3 single point of the molecule with dimer basis set
| 26> $new_job
| 27> %base "4-36_DFT_A"
| 28> ! wB97X-D3 def2-TZVP TIGHTSCF CHELPG PMODEL
| 29>
| 30> %scf
| 31> MaxIter 1000
| 32> end
| 33>
| 34> * xyz 0 1
| 35>   C                      -5.192736            -2.225288            6.637700
| 36>   O                      -5.408181            -1.507434            5.386835
| 37>   H                      -4.517370            -1.420161            5.041826
| 38>   H                      -4.838058            -1.544956            7.408872
| 39>   H                      -6.004383            -2.688830            7.117625
| 40>   H                      -4.338427            -2.918640            6.592779
| 41>   C                    : -3.154112            1.021255             8.295838
| 42>   O                    : -2.076771            1.277094             7.378946
| 43>   H                    : -1.328674            1.533873             7.973581
| 44>   H                    : -3.482555            -0.035456            8.307757
| 45>   H                    : -2.847816            1.249508             9.316630
| 46>   H                    : -4.133166            1.517679             7.981497
| 47> *
| 48>
| 49> #Run DFT-D3 single point of the particle with dimer basis set
| 50> $new_job
| 51> %base "4-36_DFT_B"
| 52> ! wB97X-D3 def2-TZVP TIGHTSCF CHELPG PMODEL
| 53>
| 54> %scf
| 55> MaxIter 1000
| 56> end
| 57>
| 58> * xyz 0 1
| 59>   C                    : -5.192736            -2.225288            6.637700
| 60>   O                    : -5.408181            -1.507434            5.386835
| 61>   H                    : -4.517370            -1.420161            5.041826
| 62>   H                    : -4.838058            -1.544956            7.408872
| 63>   H                    : -6.004383            -2.688830            7.117625
| 64>   H                    : -4.338427            -2.918640            6.592779
| 65>   C                      -3.154112            1.021255             8.295838
| 66>   O                      -2.076771            1.277094             7.378946
| 67>   H                      -1.328674            1.533873             7.973581
| 68>   H                      -3.482555            -0.035456            8.307757
| 69>   H                      -2.847816            1.249508             9.316630
| 70>   H                      -4.133166            1.517679             7.981497
| 71> *
| 72>
| 73>                          ****END OF INPUT****
 Total Charge           Charge          ....    0
 Multiplicity           Mult            ....    1
 Number of Electrons    NEL             ....   36
Dispersion correction           -0.001404278
FINAL SINGLE POINT ENERGY      -231.457464883592
Dispersion correction           -0.000252548
FINAL SINGLE POINT ENERGY      -115.727022234840

CARTESIAN COORDINATES (ANGSTROEM)
---------------------------------
  C     -5.192736   -2.225288    6.637700
  O     -5.408181   -1.507434    5.386835
  H     -4.517370   -1.420161    5.041826
  H     -4.838058   -1.544956    7.408872
  H     -6.004383   -2.688830    7.117625
  H     -4.338427   -2.918640    6.592779
  C     -3.154112    1.021255    8.295838
  O     -2.076771    1.277094    7.378946
  H     -1.328674    1.533873    7.973581
  H     -3.482555   -0.035456    8.307757
  H     -2.847816    1.249508    9.316630
  H     -4.133166    1.517679    7.981497

 Multiplicity           Mult            ....    1
 Number of Electrons    NEL             ....   18
 Basis Dimension        Dim             ....  172

ORBITAL ENERGIES
----------------

  NO   OCC          E(Eh)            E(eV)
   0   2.0000     -19.236979      -523.4648
   1   2.0000     -10.321512      -280.8626
   2   2.0000      -1.128242       -30.7010
   3   2.0000      -0.789295       -21.4778
   4   2.0000      -0.606834       -16.5128
   5   2.0000      -0.532936       -14.5019
   6   2.0000      -0.520590       -14.1660
   7   2.0000      -0.442715       -12.0469
   8   2.0000      -0.370671       -10.0865
   9   0.0000       0.088588         2.4106
  10   0.0000       0.110187         2.9983
  11   0.0000       0.151467         4.1216
  12   0.0000       0.167663         4.5623
  13   0.0000       0.188562         5.1310

MULLIKEN ATOMIC CHARGES
-----------------------
   0 C :   -0.000145
   1 O :   -0.000061
   2 H :   -0.000066
   3 H :    0.002243
   4 H :    0.000285
   5 H :   -0.000442
   6 C :   -0.188109
   7 O :   -0.461503
   8 H :    0.318519
   9 H :    0.107056
  10 H :    0.112411
  11 H :    0.109811
Sum of atomic charges:    0.0000000

LOEWDIN ATOMIC CHARGES
----------------------
   0 C :   -0.002247
   1 O :   -0.000011
   2 H :   -0.000048
   3 H :   -0.006715
   4 H :   -0.000007
   5 H :   -0.000086
   6 C :   -0.384077
   7 O :   -0.104274
   8 H :    0.188433
   9 H :    0.102368
  10 H :    0.095386
  11 H :    0.111278

  Mayer bond orders larger than 0.1
B(  6-C ,  7-O ) :   1.0188 B(  6-C ,  9-H ) :   0.9647 B(  6-C , 10-H ) :   0.9833
B(  6-C , 11-H ) :   0.9767 B(  7-O ,  8-H ) :   0.8979

Dispersion correction           -0.000266515
FINAL SINGLE POINT ENERGY      -115.729365467116

DIPOLE MOMENT
-------------
                                X             Y             Z
Electronic contribution:      1.38787       0.37645      -1.29853
Nuclear contribution   :     -1.33513      -0.32947       2.03594
                        -----------------------------------------
Total Dipole Moment    :      0.05275       0.04698       0.73741
                        -----------------------------------------
Magnitude (a.u.)       :      0.74079
Magnitude (Debye)      :      1.88293

Rotational constants in cm-1:     4.171739     0.809083     0.766943
Rotational constants in MHz : 125065.593628 24255.683850 22992.369707

                             ****ORCA TERMINATED NORMALLY****
TOTAL RUN TIME: 0 days 0 hours 1 minutes 32 seconds 115 msec
