                         Program Version 4.1.2  - RELEASE  -
|  1> #Run DFT-D3 single point of the dimer
|  2> ! wB97X-D3 def2-TZVP TIGHTSCF CHELPG PMODEL PAL8
|  3>
|  4> %base "4-179_DFT_AB"
|  5>
|  6> %scf
|  7> MaxIter 1000
|  8> end
|  9>
| 10> * xyz 0 1
| 11>   C                      1.282036             -0.526095            -2.447714
| 12>   O                      0.667628             0.654097             -2.888777
| 13>   H                      -0.115765            0.328344             -3.366132
| 14>   H                      0.807238             -0.864721            -1.598369
| 15>   H                      1.260012             -1.403564            -3.131987
| 16>   H                      2.306597             -0.287448            -2.217805
| 17>   C                      1.894563             -0.448606            -6.696315
| 18>   O                      1.036595             -1.215132            -5.832134
| 19>   H                      0.100914             -1.153265            -6.088149
| 20>   H                      1.823900             -0.652552            -7.801693
| 21>   H                      1.867213             0.673488             -6.495648
| 22>   H                      2.991278             -0.743414            -6.465432
| 23> *
| 24>
| 25> #Run DFT-D3 single point of the molecule with dimer basis set
| 26> $new_job
| 27> %base "4-179_DFT_A"
| 28> ! wB97X-D3 def2-TZVP TIGHTSCF CHELPG PMODEL
| 29>
| 30> %scf
| 31> MaxIter 1000
| 32> end
| 33>
| 34> * xyz 0 1
| 35>   C                      1.282036             -0.526095            -2.447714
| 36>   O                      0.667628             0.654097             -2.888777
| 37>   H                      -0.115765            0.328344             -3.366132
| 38>   H                      0.807238             -0.864721            -1.598369
| 39>   H                      1.260012             -1.403564            -3.131987
| 40>   H                      2.306597             -0.287448            -2.217805
| 41>   C                    : 1.894563             -0.448606            -6.696315
| 42>   O                    : 1.036595             -1.215132            -5.832134
| 43>   H                    : 0.100914             -1.153265            -6.088149
| 44>   H                    : 1.823900             -0.652552            -7.801693
| 45>   H                    : 1.867213             0.673488             -6.495648
| 46>   H                    : 2.991278             -0.743414            -6.465432
| 47> *
| 48>
| 49> #Run DFT-D3 single point of the particle with dimer basis set
| 50> $new_job
| 51> %base "4-179_DFT_B"
| 52> ! wB97X-D3 def2-TZVP TIGHTSCF CHELPG PMODEL
| 53>
| 54> %scf
| 55> MaxIter 1000
| 56> end
| 57>
| 58> * xyz 0 1
| 59>   C                    : 1.282036             -0.526095            -2.447714
| 60>   O                    : 0.667628             0.654097             -2.888777
| 61>   H                    : -0.115765            0.328344             -3.366132
| 62>   H                    : 0.807238             -0.864721            -1.598369
| 63>   H                    : 1.260012             -1.403564            -3.131987
| 64>   H                    : 2.306597             -0.287448            -2.217805
| 65>   C                      1.894563             -0.448606            -6.696315
| 66>   O                      1.036595             -1.215132            -5.832134
| 67>   H                      0.100914             -1.153265            -6.088149
| 68>   H                      1.823900             -0.652552            -7.801693
| 69>   H                      1.867213             0.673488             -6.495648
| 70>   H                      2.991278             -0.743414            -6.465432
| 71> *
| 72>
| 73>                          ****END OF INPUT****
 Total Charge           Charge          ....    0
 Multiplicity           Mult            ....    1
 Number of Electrons    NEL             ....   36
Dispersion correction           -0.001846237
FINAL SINGLE POINT ENERGY      -231.463277840247
Dispersion correction           -0.000220104
FINAL SINGLE POINT ENERGY      -115.731289469618

CARTESIAN COORDINATES (ANGSTROEM)
---------------------------------
  C      1.282036   -0.526095   -2.447714
  O      0.667628    0.654097   -2.888777
  H     -0.115765    0.328344   -3.366132
  H      0.807238   -0.864721   -1.598369
  H      1.260012   -1.403564   -3.131987
  H      2.306597   -0.287448   -2.217805
  C      1.894563   -0.448606   -6.696315
  O      1.036595   -1.215132   -5.832134
  H      0.100914   -1.153265   -6.088149
  H      1.823900   -0.652552   -7.801693
  H      1.867213    0.673488   -6.495648
  H      2.991278   -0.743414   -6.465432

 Multiplicity           Mult            ....    1
 Number of Electrons    NEL             ....   18
 Basis Dimension        Dim             ....  172

ORBITAL ENERGIES
----------------

  NO   OCC          E(Eh)            E(eV)
   0   2.0000     -19.236762      -523.4589
   1   2.0000     -10.330987      -281.1204
   2   2.0000      -1.127102       -30.6700
   3   2.0000      -0.789027       -21.4705
   4   2.0000      -0.606448       -16.5023
   5   2.0000      -0.533903       -14.5283
   6   2.0000      -0.515262       -14.0210
   7   2.0000      -0.425162       -11.5692
   8   2.0000      -0.378543       -10.3007
   9   0.0000       0.093666         2.5488
  10   0.0000       0.127726         3.4756
  11   0.0000       0.140354         3.8192
  12   0.0000       0.173822         4.7299
  13   0.0000       0.190494         5.1836

MULLIKEN ATOMIC CHARGES
-----------------------
   0 C :    0.006133
   1 O :   -0.000729
   2 H :   -0.004872
   3 H :   -0.000310
   4 H :   -0.007188
   5 H :   -0.000394
   6 C :   -0.188498
   7 O :   -0.470638
   8 H :    0.318463
   9 H :    0.115101
  10 H :    0.112029
  11 H :    0.120901
Sum of atomic charges:   -0.0000000

LOEWDIN ATOMIC CHARGES
----------------------
   0 C :   -0.006755
   1 O :   -0.000973
   2 H :   -0.003131
   3 H :   -0.000061
   4 H :   -0.007707
   5 H :   -0.000118
   6 C :   -0.395070
   7 O :   -0.082797
   8 H :    0.173083
   9 H :    0.101051
  10 H :    0.102419
  11 H :    0.120060

  Mayer bond orders larger than 0.1
B(  6-C ,  7-O ) :   0.9991 B(  6-C ,  9-H ) :   0.9626 B(  6-C , 10-H ) :   0.9673
B(  6-C , 11-H ) :   0.9740 B(  7-O ,  8-H ) :   0.8917

Dispersion correction           -0.000310530
FINAL SINGLE POINT ENERGY      -115.730203899809

DIPOLE MOMENT
-------------
                                X             Y             Z
Electronic contribution:     -1.19206      -1.03900       1.13787
Nuclear contribution   :      0.94970       1.36397      -1.66670
                        -----------------------------------------
Total Dipole Moment    :     -0.24236       0.32497      -0.52884
                        -----------------------------------------
Magnitude (a.u.)       :      0.66634
Magnitude (Debye)      :      1.69371

Rotational constants in cm-1:     4.151997     0.779544     0.760070
Rotational constants in MHz : 124473.726689 23370.155186 22786.330209

                             ****ORCA TERMINATED NORMALLY****
TOTAL RUN TIME: 0 days 0 hours 1 minutes 35 seconds 319 msec
