                         Program Version 4.1.2  - RELEASE  -
|  1> #Run DFT-D3 single point of the dimer
|  2> ! wB97X-D3 def2-TZVP TIGHTSCF CHELPG PMODEL PAL8
|  3>
|  4> %base "17-204_DFT_AB"
|  5>
|  6> %scf
|  7> MaxIter 1000
|  8> end
|  9>
| 10> * xyz 0 1
| 11>   C                      -0.066139            -6.006657            6.636389
| 12>   O                      -0.752408            -5.862081            7.824022
| 13>   H                      -0.803631            -4.933314            7.990587
| 14>   H                      -0.008752            -5.147557            6.027307
| 15>   H                      0.898532             -6.436435            6.915708
| 16>   H                      -0.564332            -6.732301            5.985013
| 17>   C                      0.850529             -3.873660            10.870279
| 18>   O                      0.868618             -3.677440            9.450225
| 19>   H                      -0.073803            -3.332150            9.267791
| 20>   H                      0.716920             -2.973114            11.436462
| 21>   H                      -0.005009            -4.572064            11.182163
| 22>   H                      1.870404             -4.225057            11.212077
| 23> *
| 24>
| 25> #Run DFT-D3 single point of the molecule with dimer basis set
| 26> $new_job
| 27> %base "17-204_DFT_A"
| 28> ! wB97X-D3 def2-TZVP TIGHTSCF CHELPG PMODEL
| 29>
| 30> %scf
| 31> MaxIter 1000
| 32> end
| 33>
| 34> * xyz 0 1
| 35>   C                      -0.066139            -6.006657            6.636389
| 36>   O                      -0.752408            -5.862081            7.824022
| 37>   H                      -0.803631            -4.933314            7.990587
| 38>   H                      -0.008752            -5.147557            6.027307
| 39>   H                      0.898532             -6.436435            6.915708
| 40>   H                      -0.564332            -6.732301            5.985013
| 41>   C                    : 0.850529             -3.873660            10.870279
| 42>   O                    : 0.868618             -3.677440            9.450225
| 43>   H                    : -0.073803            -3.332150            9.267791
| 44>   H                    : 0.716920             -2.973114            11.436462
| 45>   H                    : -0.005009            -4.572064            11.182163
| 46>   H                    : 1.870404             -4.225057            11.212077
| 47> *
| 48>
| 49> #Run DFT-D3 single point of the particle with dimer basis set
| 50> $new_job
| 51> %base "17-204_DFT_B"
| 52> ! wB97X-D3 def2-TZVP TIGHTSCF CHELPG PMODEL
| 53>
| 54> %scf
| 55> MaxIter 1000
| 56> end
| 57>
| 58> * xyz 0 1
| 59>   C                    : -0.066139            -6.006657            6.636389
| 60>   O                    : -0.752408            -5.862081            7.824022
| 61>   H                    : -0.803631            -4.933314            7.990587
| 62>   H                    : -0.008752            -5.147557            6.027307
| 63>   H                    : 0.898532             -6.436435            6.915708
| 64>   H                    : -0.564332            -6.732301            5.985013
| 65>   C                      0.850529             -3.873660            10.870279
| 66>   O                      0.868618             -3.677440            9.450225
| 67>   H                      -0.073803            -3.332150            9.267791
| 68>   H                      0.716920             -2.973114            11.436462
| 69>   H                      -0.005009            -4.572064            11.182163
| 70>   H                      1.870404             -4.225057            11.212077
| 71> *
| 72>
| 73>                          ****END OF INPUT****
 Total Charge           Charge          ....    0
 Multiplicity           Mult            ....    1
 Number of Electrons    NEL             ....   36
Dispersion correction           -0.001626268
FINAL SINGLE POINT ENERGY      -231.459261079386
Dispersion correction           -0.000221586
FINAL SINGLE POINT ENERGY      -115.731410677083

CARTESIAN COORDINATES (ANGSTROEM)
---------------------------------
  C     -0.066139   -6.006657    6.636389
  O     -0.752408   -5.862081    7.824022
  H     -0.803631   -4.933314    7.990587
  H     -0.008752   -5.147557    6.027307
  H      0.898532   -6.436435    6.915708
  H     -0.564332   -6.732301    5.985013
  C      0.850529   -3.873660   10.870279
  O      0.868618   -3.677440    9.450225
  H     -0.073803   -3.332150    9.267791
  H      0.716920   -2.973114   11.436462
  H     -0.005009   -4.572064   11.182163
  H      1.870404   -4.225057   11.212077

 Multiplicity           Mult            ....    1
 Number of Electrons    NEL             ....   18
 Basis Dimension        Dim             ....  172

ORBITAL ENERGIES
----------------

  NO   OCC          E(Eh)            E(eV)
   0   2.0000     -19.241196      -523.5796
   1   2.0000     -10.322345      -280.8853
   2   2.0000      -1.125425       -30.6244
   3   2.0000      -0.786045       -21.3894
   4   2.0000      -0.601969       -16.3804
   5   2.0000      -0.538444       -14.6518
   6   2.0000      -0.515931       -14.0392
   7   2.0000      -0.440109       -11.9760
   8   2.0000      -0.374421       -10.1885
   9   0.0000       0.087433         2.3792
  10   0.0000       0.119245         3.2448
  11   0.0000       0.148655         4.0451
  12   0.0000       0.181756         4.9458
  13   0.0000       0.194315         5.2876

MULLIKEN ATOMIC CHARGES
-----------------------
   0 C :    0.001475
   1 O :    0.002713
   2 H :   -0.013606
   3 H :   -0.000231
   4 H :   -0.001118
   5 H :   -0.000205
   6 C :   -0.185177
   7 O :   -0.455322
   8 H :    0.317683
   9 H :    0.112084
  10 H :    0.103044
  11 H :    0.118661
Sum of atomic charges:    0.0000000

LOEWDIN ATOMIC CHARGES
----------------------
   0 C :   -0.003165
   1 O :   -0.003571
   2 H :   -0.011876
   3 H :   -0.000163
   4 H :   -0.000482
   5 H :   -0.000073
   6 C :   -0.393350
   7 O :   -0.099604
   8 H :    0.205654
   9 H :    0.087692
  10 H :    0.103609
  11 H :    0.115328

  Mayer bond orders larger than 0.1
B(  6-C ,  7-O ) :   1.0023 B(  6-C ,  9-H ) :   0.9696 B(  6-C , 10-H ) :   0.9726
B(  6-C , 11-H ) :   0.9734 B(  7-O ,  8-H ) :   0.8923

Dispersion correction           -0.000251419
FINAL SINGLE POINT ENERGY      -115.729019139896

DIPOLE MOMENT
-------------
                                X             Y             Z
Electronic contribution:      0.21829       0.21777      -1.87601
Nuclear contribution   :     -0.76621      -0.04471       2.33673
                        -----------------------------------------
Total Dipole Moment    :     -0.54792       0.17307       0.46072
                        -----------------------------------------
Magnitude (a.u.)       :      0.73650
Magnitude (Debye)      :      1.87203

Rotational constants in cm-1:     4.023831     0.814802     0.772975
Rotational constants in MHz : 120631.426767 24427.136864 23173.212042

                             ****ORCA TERMINATED NORMALLY****
TOTAL RUN TIME: 0 days 0 hours 1 minutes 7 seconds 68 msec
