                         Program Version 4.1.2  - RELEASE  -
|  1> #Run DFT-D3 single point of the dimer
|  2> ! wB97X-D3 def2-TZVP TIGHTSCF CHELPG PMODEL PAL8
|  3>
|  4> %base "20-45_DFT_AB"
|  5>
|  6> %scf
|  7> MaxIter 1000
|  8> end
|  9>
| 10> * xyz 0 1
| 11>   C                      10.369788            -1.022027            1.137112
| 12>   O                      9.385676             -0.662923            2.037067
| 13>   H                      8.915815             -1.406507            2.396030
| 14>   H                      9.951602             -1.529467            0.290434
| 15>   H                      10.979370            -0.132618            0.842871
| 16>   H                      10.919377            -1.856796            1.581003
| 17>   C                      9.233327             -0.528763            -4.361532
| 18>   O                      9.761373             -0.754829            -3.092881
| 19>   H                      10.513552            -0.142675            -2.990355
| 20>   H                      8.569565             -1.431907            -4.631356
| 21>   H                      8.690811             0.403372             -4.442943
| 22>   H                      10.105521            -0.462022            -5.026567
| 23> *
| 24>
| 25> #Run DFT-D3 single point of the molecule with dimer basis set
| 26> $new_job
| 27> %base "20-45_DFT_A"
| 28> ! wB97X-D3 def2-TZVP TIGHTSCF CHELPG PMODEL
| 29>
| 30> %scf
| 31> MaxIter 1000
| 32> end
| 33>
| 34> * xyz 0 1
| 35>   C                      10.369788            -1.022027            1.137112
| 36>   O                      9.385676             -0.662923            2.037067
| 37>   H                      8.915815             -1.406507            2.396030
| 38>   H                      9.951602             -1.529467            0.290434
| 39>   H                      10.979370            -0.132618            0.842871
| 40>   H                      10.919377            -1.856796            1.581003
| 41>   C                    : 9.233327             -0.528763            -4.361532
| 42>   O                    : 9.761373             -0.754829            -3.092881
| 43>   H                    : 10.513552            -0.142675            -2.990355
| 44>   H                    : 8.569565             -1.431907            -4.631356
| 45>   H                    : 8.690811             0.403372             -4.442943
| 46>   H                    : 10.105521            -0.462022            -5.026567
| 47> *
| 48>
| 49> #Run DFT-D3 single point of the particle with dimer basis set
| 50> $new_job
| 51> %base "20-45_DFT_B"
| 52> ! wB97X-D3 def2-TZVP TIGHTSCF CHELPG PMODEL
| 53>
| 54> %scf
| 55> MaxIter 1000
| 56> end
| 57>
| 58> * xyz 0 1
| 59>   C                    : 10.369788            -1.022027            1.137112
| 60>   O                    : 9.385676             -0.662923            2.037067
| 61>   H                    : 8.915815             -1.406507            2.396030
| 62>   H                    : 9.951602             -1.529467            0.290434
| 63>   H                    : 10.979370            -0.132618            0.842871
| 64>   H                    : 10.919377            -1.856796            1.581003
| 65>   C                      9.233327             -0.528763            -4.361532
| 66>   O                      9.761373             -0.754829            -3.092881
| 67>   H                      10.513552            -0.142675            -2.990355
| 68>   H                      8.569565             -1.431907            -4.631356
| 69>   H                      8.690811             0.403372             -4.442943
| 70>   H                      10.105521            -0.462022            -5.026567
| 71> *
| 72>
| 73>                          ****END OF INPUT****
 Total Charge           Charge          ....    0
 Multiplicity           Mult            ....    1
 Number of Electrons    NEL             ....   36
Dispersion correction           -0.000820231
FINAL SINGLE POINT ENERGY      -231.462272559287
Dispersion correction           -0.000216196
FINAL SINGLE POINT ENERGY      -115.729807638617

CARTESIAN COORDINATES (ANGSTROEM)
---------------------------------
  C     10.369788   -1.022027    1.137112
  O      9.385676   -0.662923    2.037067
  H      8.915815   -1.406507    2.396030
  H      9.951602   -1.529467    0.290434
  H     10.979370   -0.132618    0.842871
  H     10.919377   -1.856796    1.581003
  C      9.233327   -0.528763   -4.361532
  O      9.761373   -0.754829   -3.092881
  H     10.513552   -0.142675   -2.990355
  H      8.569565   -1.431907   -4.631356
  H      8.690811    0.403372   -4.442943
  H     10.105521   -0.462022   -5.026567

 Multiplicity           Mult            ....    1
 Number of Electrons    NEL             ....   18
 Basis Dimension        Dim             ....  172

ORBITAL ENERGIES
----------------

  NO   OCC          E(Eh)            E(eV)
   0   2.0000     -19.229443      -523.2598
   1   2.0000     -10.316422      -280.7241
   2   2.0000      -1.141352       -31.0578
   3   2.0000      -0.786596       -21.4044
   4   2.0000      -0.614161       -16.7122
   5   2.0000      -0.546297       -14.8655
   6   2.0000      -0.523995       -14.2586
   7   2.0000      -0.430757       -11.7215
   8   2.0000      -0.370126       -10.0716
   9   0.0000       0.091732         2.4961
  10   0.0000       0.113136         3.0786
  11   0.0000       0.152676         4.1545
  12   0.0000       0.176613         4.8059
  13   0.0000       0.192186         5.2296

MULLIKEN ATOMIC CHARGES
-----------------------
   0 C :    0.000449
   1 O :    0.000025
   2 H :   -0.000003
   3 H :   -0.002773
   4 H :    0.000013
   5 H :   -0.000123
   6 C :   -0.160697
   7 O :   -0.466975
   8 H :    0.314990
   9 H :    0.117433
  10 H :    0.101588
  11 H :    0.096074
Sum of atomic charges:   -0.0000000

LOEWDIN ATOMIC CHARGES
----------------------
   0 C :   -0.000769
   1 O :   -0.000011
   2 H :   -0.000000
   3 H :   -0.001376
   4 H :   -0.000067
   5 H :   -0.000010
   6 C :   -0.406959
   7 O :   -0.073303
   8 H :    0.179400
   9 H :    0.120098
  10 H :    0.088439
  11 H :    0.094558

  Mayer bond orders larger than 0.1
B(  6-C ,  7-O ) :   0.9950 B(  6-C ,  9-H ) :   0.9710 B(  6-C , 10-H ) :   0.9658
B(  6-C , 11-H ) :   0.9909 B(  7-O ,  8-H ) :   0.8960

Dispersion correction           -0.000218712
FINAL SINGLE POINT ENERGY      -115.731879540793

DIPOLE MOMENT
-------------
                                X             Y             Z
Electronic contribution:      0.49617      -0.34253       1.65394
Nuclear contribution   :     -0.21002       0.81685      -2.07687
                        -----------------------------------------
Total Dipole Moment    :      0.28615       0.47432      -0.42293
                        -----------------------------------------
Magnitude (a.u.)       :      0.69695
Magnitude (Debye)      :      1.77149

Rotational constants in cm-1:     4.073970     0.864318     0.821366
Rotational constants in MHz : 122134.553405 25911.610853 24623.925059

                             ****ORCA TERMINATED NORMALLY****
TOTAL RUN TIME: 0 days 0 hours 1 minutes 7 seconds 672 msec
