                         Program Version 4.1.2  - RELEASE  -
|  1> #Run DFT-D3 single point of the dimer
|  2> ! wB97X-D3 def2-TZVP TIGHTSCF CHELPG PMODEL PAL8
|  3>
|  4> %base "9-130_DFT_AB"
|  5>
|  6> %scf
|  7> MaxIter 1000
|  8> end
|  9>
| 10> * xyz 0 1
| 11>   C                      3.579629             8.937106             8.769352
| 12>   O                      4.024011             9.179831             7.436745
| 13>   H                      4.437202             8.392285             7.075693
| 14>   H                      3.770762             9.820385             9.402602
| 15>   H                      2.595479             8.630090             8.898085
| 16>   H                      4.210503             8.153010             9.170169
| 17>   C                      2.747052             4.964064             9.020605
| 18>   O                      1.538656             5.607522             9.392189
| 19>   H                      0.844922             4.994983             9.324849
| 20>   H                      2.598956             4.001863             8.533747
| 21>   H                      3.228808             5.527093             8.284292
| 22>   H                      3.457308             4.794355             9.816371
| 23> *
| 24>
| 25> #Run DFT-D3 single point of the molecule with dimer basis set
| 26> $new_job
| 27> %base "9-130_DFT_A"
| 28> ! wB97X-D3 def2-TZVP TIGHTSCF CHELPG PMODEL
| 29>
| 30> %scf
| 31> MaxIter 1000
| 32> end
| 33>
| 34> * xyz 0 1
| 35>   C                      3.579629             8.937106             8.769352
| 36>   O                      4.024011             9.179831             7.436745
| 37>   H                      4.437202             8.392285             7.075693
| 38>   H                      3.770762             9.820385             9.402602
| 39>   H                      2.595479             8.630090             8.898085
| 40>   H                      4.210503             8.153010             9.170169
| 41>   C                    : 2.747052             4.964064             9.020605
| 42>   O                    : 1.538656             5.607522             9.392189
| 43>   H                    : 0.844922             4.994983             9.324849
| 44>   H                    : 2.598956             4.001863             8.533747
| 45>   H                    : 3.228808             5.527093             8.284292
| 46>   H                    : 3.457308             4.794355             9.816371
| 47> *
| 48>
| 49> #Run DFT-D3 single point of the particle with dimer basis set
| 50> $new_job
| 51> %base "9-130_DFT_B"
| 52> ! wB97X-D3 def2-TZVP TIGHTSCF CHELPG PMODEL
| 53>
| 54> %scf
| 55> MaxIter 1000
| 56> end
| 57>
| 58> * xyz 0 1
| 59>   C                    : 3.579629             8.937106             8.769352
| 60>   O                    : 4.024011             9.179831             7.436745
| 61>   H                    : 4.437202             8.392285             7.075693
| 62>   H                    : 3.770762             9.820385             9.402602
| 63>   H                    : 2.595479             8.630090             8.898085
| 64>   H                    : 4.210503             8.153010             9.170169
| 65>   C                      2.747052             4.964064             9.020605
| 66>   O                      1.538656             5.607522             9.392189
| 67>   H                      0.844922             4.994983             9.324849
| 68>   H                      2.598956             4.001863             8.533747
| 69>   H                      3.228808             5.527093             8.284292
| 70>   H                      3.457308             4.794355             9.816371
| 71> *
| 72>
| 73>                          ****END OF INPUT****
 Total Charge           Charge          ....    0
 Multiplicity           Mult            ....    1
 Number of Electrons    NEL             ....   36
Dispersion correction           -0.001575428
FINAL SINGLE POINT ENERGY      -231.465141549408
Dispersion correction           -0.000244850
FINAL SINGLE POINT ENERGY      -115.731713519490

CARTESIAN COORDINATES (ANGSTROEM)
---------------------------------
  C      3.579629    8.937106    8.769352
  O      4.024011    9.179831    7.436745
  H      4.437202    8.392285    7.075693
  H      3.770762    9.820385    9.402602
  H      2.595479    8.630090    8.898085
  H      4.210503    8.153010    9.170169
  C      2.747052    4.964064    9.020605
  O      1.538656    5.607522    9.392189
  H      0.844922    4.994983    9.324849
  H      2.598956    4.001863    8.533747
  H      3.228808    5.527093    8.284292
  H      3.457308    4.794355    9.816371

 Multiplicity           Mult            ....    1
 Number of Electrons    NEL             ....   18
 Basis Dimension        Dim             ....  172

ORBITAL ENERGIES
----------------

  NO   OCC          E(Eh)            E(eV)
   0   2.0000     -19.228481      -523.2336
   1   2.0000     -10.305947      -280.4391
   2   2.0000      -1.141220       -31.0542
   3   2.0000      -0.806388       -21.9429
   4   2.0000      -0.617790       -16.8109
   5   2.0000      -0.543659       -14.7937
   6   2.0000      -0.529330       -14.4038
   7   2.0000      -0.434714       -11.8292
   8   2.0000      -0.377669       -10.2769
   9   0.0000       0.092872         2.5272
  10   0.0000       0.123326         3.3559
  11   0.0000       0.152734         4.1561
  12   0.0000       0.170046         4.6272
  13   0.0000       0.196080         5.3356

MULLIKEN ATOMIC CHARGES
-----------------------
   0 C :    0.002644
   1 O :   -0.000183
   2 H :   -0.000144
   3 H :    0.000053
   4 H :   -0.003822
   5 H :    0.000142
   6 C :   -0.177821
   7 O :   -0.465389
   8 H :    0.309836
   9 H :    0.108500
  10 H :    0.119725
  11 H :    0.106460
Sum of atomic charges:    0.0000000

LOEWDIN ATOMIC CHARGES
----------------------
   0 C :   -0.001501
   1 O :   -0.000033
   2 H :   -0.000293
   3 H :   -0.000003
   4 H :   -0.001775
   5 H :   -0.000688
   6 C :   -0.372916
   7 O :   -0.059026
   8 H :    0.148120
   9 H :    0.098413
  10 H :    0.093146
  11 H :    0.096556

  Mayer bond orders larger than 0.1
B(  6-C ,  7-O ) :   1.0099 B(  6-C ,  9-H ) :   0.9831 B(  6-C , 10-H ) :   0.9789
B(  6-C , 11-H ) :   0.9738 B(  7-O ,  8-H ) :   0.9076

Dispersion correction           -0.000250059
FINAL SINGLE POINT ENERGY      -115.732052895059

DIPOLE MOMENT
-------------
                                X             Y             Z
Electronic contribution:     -1.52216       0.96481       0.57254
Nuclear contribution   :      1.55188      -1.64188      -0.79446
                        -----------------------------------------
Total Dipole Moment    :      0.02972      -0.67707      -0.22192
                        -----------------------------------------
Magnitude (a.u.)       :      0.71313
Magnitude (Debye)      :      1.81263

Rotational constants in cm-1:     4.626310     0.822455     0.796792
Rotational constants in MHz : 138693.286826 24656.583625 23887.223774

                             ****ORCA TERMINATED NORMALLY****
TOTAL RUN TIME: 0 days 0 hours 0 minutes 42 seconds 511 msec
