                         Program Version 4.1.2  - RELEASE  -
|  1> #Run DFT-D3 single point of the dimer
|  2> ! wB97X-D3 def2-TZVP TIGHTSCF CHELPG PMODEL PAL8
|  3>
|  4> %base "12-14_DFT_AB"
|  5>
|  6> %scf
|  7> MaxIter 1000
|  8> end
|  9>
| 10> * xyz 0 1
| 11>   C                      7.783129             -4.327830            -2.139949
| 12>   O                      8.538829             -3.183352            -2.235793
| 13>   H                      9.186373             -3.113510            -1.593900
| 14>   H                      8.386808             -5.185219            -2.334048
| 15>   H                      7.505781             -4.489280            -1.123958
| 16>   H                      6.890016             -4.297037            -2.756172
| 17>   C                      6.899267             -3.826440            -6.158132
| 18>   O                      5.992380             -2.977941            -5.412868
| 19>   H                      6.206806             -2.101877            -5.713724
| 20>   H                      6.811481             -3.596181            -7.261637
| 21>   H                      7.912850             -3.696008            -5.921194
| 22>   H                      6.757874             -4.848951            -6.004020
| 23> *
| 24>
| 25> #Run DFT-D3 single point of the molecule with dimer basis set
| 26> $new_job
| 27> %base "12-14_DFT_A"
| 28> ! wB97X-D3 def2-TZVP TIGHTSCF CHELPG PMODEL
| 29>
| 30> %scf
| 31> MaxIter 1000
| 32> end
| 33>
| 34> * xyz 0 1
| 35>   C                      7.783129             -4.327830            -2.139949
| 36>   O                      8.538829             -3.183352            -2.235793
| 37>   H                      9.186373             -3.113510            -1.593900
| 38>   H                      8.386808             -5.185219            -2.334048
| 39>   H                      7.505781             -4.489280            -1.123958
| 40>   H                      6.890016             -4.297037            -2.756172
| 41>   C                    : 6.899267             -3.826440            -6.158132
| 42>   O                    : 5.992380             -2.977941            -5.412868
| 43>   H                    : 6.206806             -2.101877            -5.713724
| 44>   H                    : 6.811481             -3.596181            -7.261637
| 45>   H                    : 7.912850             -3.696008            -5.921194
| 46>   H                    : 6.757874             -4.848951            -6.004020
| 47> *
| 48>
| 49> #Run DFT-D3 single point of the particle with dimer basis set
| 50> $new_job
| 51> %base "12-14_DFT_B"
| 52> ! wB97X-D3 def2-TZVP TIGHTSCF CHELPG PMODEL
| 53>
| 54> %scf
| 55> MaxIter 1000
| 56> end
| 57>
| 58> * xyz 0 1
| 59>   C                    : 7.783129             -4.327830            -2.139949
| 60>   O                    : 8.538829             -3.183352            -2.235793
| 61>   H                    : 9.186373             -3.113510            -1.593900
| 62>   H                    : 8.386808             -5.185219            -2.334048
| 63>   H                    : 7.505781             -4.489280            -1.123958
| 64>   H                    : 6.890016             -4.297037            -2.756172
| 65>   C                      6.899267             -3.826440            -6.158132
| 66>   O                      5.992380             -2.977941            -5.412868
| 67>   H                      6.206806             -2.101877            -5.713724
| 68>   H                      6.811481             -3.596181            -7.261637
| 69>   H                      7.912850             -3.696008            -5.921194
| 70>   H                      6.757874             -4.848951            -6.004020
| 71> *
| 72>
| 73>                          ****END OF INPUT****
 Total Charge           Charge          ....    0
 Multiplicity           Mult            ....    1
 Number of Electrons    NEL             ....   36
Dispersion correction           -0.001447251
FINAL SINGLE POINT ENERGY      -231.461484245931
Dispersion correction           -0.000211017
FINAL SINGLE POINT ENERGY      -115.729778809984

CARTESIAN COORDINATES (ANGSTROEM)
---------------------------------
  C      7.783129   -4.327830   -2.139949
  O      8.538829   -3.183352   -2.235793
  H      9.186373   -3.113510   -1.593900
  H      8.386808   -5.185219   -2.334048
  H      7.505781   -4.489280   -1.123958
  H      6.890016   -4.297037   -2.756172
  C      6.899267   -3.826440   -6.158132
  O      5.992380   -2.977941   -5.412868
  H      6.206806   -2.101877   -5.713724
  H      6.811481   -3.596181   -7.261637
  H      7.912850   -3.696008   -5.921194
  H      6.757874   -4.848951   -6.004020

 Multiplicity           Mult            ....    1
 Number of Electrons    NEL             ....   18
 Basis Dimension        Dim             ....  172

ORBITAL ENERGIES
----------------

  NO   OCC          E(Eh)            E(eV)
   0   2.0000     -19.232586      -523.3453
   1   2.0000     -10.309958      -280.5482
   2   2.0000      -1.131324       -30.7849
   3   2.0000      -0.804582       -21.8938
   4   2.0000      -0.606224       -16.4962
   5   2.0000      -0.539485       -14.6801
   6   2.0000      -0.529285       -14.4026
   7   2.0000      -0.443337       -12.0638
   8   2.0000      -0.376009       -10.2317
   9   0.0000       0.088814         2.4168
  10   0.0000       0.120018         3.2659
  11   0.0000       0.150413         4.0929
  12   0.0000       0.170885         4.6500
  13   0.0000       0.194670         5.2972

MULLIKEN ATOMIC CHARGES
-----------------------
   0 C :    0.000853
   1 O :   -0.000313
   2 H :   -0.000026
   3 H :   -0.000220
   4 H :    0.000100
   5 H :   -0.002502
   6 C :   -0.196156
   7 O :   -0.469415
   8 H :    0.313143
   9 H :    0.110208
  10 H :    0.114834
  11 H :    0.129493
Sum of atomic charges:    0.0000000

LOEWDIN ATOMIC CHARGES
----------------------
   0 C :   -0.001699
   1 O :   -0.000161
   2 H :   -0.000011
   3 H :   -0.000039
   4 H :   -0.000005
   5 H :   -0.002820
   6 C :   -0.358213
   7 O :   -0.090531
   8 H :    0.163171
   9 H :    0.105881
  10 H :    0.086672
  11 H :    0.097755

  Mayer bond orders larger than 0.1
B(  6-C ,  7-O ) :   0.9869 B(  6-C ,  9-H ) :   0.9802 B(  6-C , 10-H ) :   0.9724
B(  6-C , 11-H ) :   0.9770 B(  7-O ,  8-H ) :   0.9036

Dispersion correction           -0.000241472
FINAL SINGLE POINT ENERGY      -115.730114633625

DIPOLE MOMENT
-------------
                                X             Y             Z
Electronic contribution:     -1.24551       0.89641       1.12676
Nuclear contribution   :      1.76795      -0.71253      -1.61065
                        -----------------------------------------
Total Dipole Moment    :      0.52244       0.18388      -0.48388
                        -----------------------------------------
Magnitude (a.u.)       :      0.73546
Magnitude (Debye)      :      1.86938

Rotational constants in cm-1:     4.479192     0.801923     0.771360
Rotational constants in MHz : 134282.800452 24041.056141 23124.793365

                             ****ORCA TERMINATED NORMALLY****
TOTAL RUN TIME: 0 days 0 hours 1 minutes 7 seconds 359 msec
