                         Program Version 4.1.2  - RELEASE  -
|  1> #Run DFT-D3 single point of the dimer
|  2> ! wB97X-D3 def2-TZVP TIGHTSCF CHELPG PMODEL PAL8
|  3>
|  4> %base "11-180_DFT_AB"
|  5>
|  6> %scf
|  7> MaxIter 1000
|  8> end
|  9>
| 10> * xyz 0 1
| 11>   C                      8.791782             -0.730577            4.408944
| 12>   O                      9.268081             -2.081288            4.514631
| 13>   H                      8.682510             -2.631129            4.036008
| 14>   H                      8.956816             -0.301256            3.481077
| 15>   H                      7.728045             -0.609651            4.653355
| 16>   H                      9.286766             -0.091580            5.141704
| 17>   C                      10.563372            -5.654747            3.505832
| 18>   O                      11.111717            -4.404740            3.040707
| 19>   H                      10.361361            -3.905842            2.783787
| 20>   H                      9.791847             -5.538091            4.269721
| 21>   H                      10.130539            -6.235199            2.589249
| 22>   H                      11.338688            -6.200359            3.990725
| 23> *
| 24>
| 25> #Run DFT-D3 single point of the molecule with dimer basis set
| 26> $new_job
| 27> %base "11-180_DFT_A"
| 28> ! wB97X-D3 def2-TZVP TIGHTSCF CHELPG PMODEL
| 29>
| 30> %scf
| 31> MaxIter 1000
| 32> end
| 33>
| 34> * xyz 0 1
| 35>   C                      8.791782             -0.730577            4.408944
| 36>   O                      9.268081             -2.081288            4.514631
| 37>   H                      8.682510             -2.631129            4.036008
| 38>   H                      8.956816             -0.301256            3.481077
| 39>   H                      7.728045             -0.609651            4.653355
| 40>   H                      9.286766             -0.091580            5.141704
| 41>   C                    : 10.563372            -5.654747            3.505832
| 42>   O                    : 11.111717            -4.404740            3.040707
| 43>   H                    : 10.361361            -3.905842            2.783787
| 44>   H                    : 9.791847             -5.538091            4.269721
| 45>   H                    : 10.130539            -6.235199            2.589249
| 46>   H                    : 11.338688            -6.200359            3.990725
| 47> *
| 48>
| 49> #Run DFT-D3 single point of the particle with dimer basis set
| 50> $new_job
| 51> %base "11-180_DFT_B"
| 52> ! wB97X-D3 def2-TZVP TIGHTSCF CHELPG PMODEL
| 53>
| 54> %scf
| 55> MaxIter 1000
| 56> end
| 57>
| 58> * xyz 0 1
| 59>   C                    : 8.791782             -0.730577            4.408944
| 60>   O                    : 9.268081             -2.081288            4.514631
| 61>   H                    : 8.682510             -2.631129            4.036008
| 62>   H                    : 8.956816             -0.301256            3.481077
| 63>   H                    : 7.728045             -0.609651            4.653355
| 64>   H                    : 9.286766             -0.091580            5.141704
| 65>   C                      10.563372            -5.654747            3.505832
| 66>   O                      11.111717            -4.404740            3.040707
| 67>   H                      10.361361            -3.905842            2.783787
| 68>   H                      9.791847             -5.538091            4.269721
| 69>   H                      10.130539            -6.235199            2.589249
| 70>   H                      11.338688            -6.200359            3.990725
| 71> *
| 72>
| 73>                          ****END OF INPUT****
 Total Charge           Charge          ....    0
 Multiplicity           Mult            ....    1
 Number of Electrons    NEL             ....   36
Dispersion correction           -0.001469292
FINAL SINGLE POINT ENERGY      -231.464422402982
Dispersion correction           -0.000251423
FINAL SINGLE POINT ENERGY      -115.733403969696

CARTESIAN COORDINATES (ANGSTROEM)
---------------------------------
  C      8.791782   -0.730577    4.408944
  O      9.268081   -2.081288    4.514631
  H      8.682510   -2.631129    4.036008
  H      8.956816   -0.301256    3.481077
  H      7.728045   -0.609651    4.653355
  H      9.286766   -0.091580    5.141704
  C     10.563372   -5.654747    3.505832
  O     11.111717   -4.404740    3.040707
  H     10.361361   -3.905842    2.783787
  H      9.791847   -5.538091    4.269721
  H     10.130539   -6.235199    2.589249
  H     11.338688   -6.200359    3.990725

 Multiplicity           Mult            ....    1
 Number of Electrons    NEL             ....   18
 Basis Dimension        Dim             ....  172

ORBITAL ENERGIES
----------------

  NO   OCC          E(Eh)            E(eV)
   0   2.0000     -19.230555      -523.2900
   1   2.0000     -10.320336      -280.8306
   2   2.0000      -1.136037       -30.9131
   3   2.0000      -0.795394       -21.6438
   4   2.0000      -0.606395       -16.5009
   5   2.0000      -0.539185       -14.6720
   6   2.0000      -0.522572       -14.2199
   7   2.0000      -0.442299       -12.0356
   8   2.0000      -0.375761       -10.2250
   9   0.0000       0.077751         2.1157
  10   0.0000       0.120480         3.2784
  11   0.0000       0.151787         4.1303
  12   0.0000       0.173710         4.7269
  13   0.0000       0.195957         5.3323

MULLIKEN ATOMIC CHARGES
-----------------------
   0 C :   -0.000544
   1 O :   -0.002249
   2 H :   -0.002090
   3 H :   -0.000056
   4 H :    0.000003
   5 H :    0.000086
   6 C :   -0.183012
   7 O :   -0.462563
   8 H :    0.310738
   9 H :    0.109372
  10 H :    0.103311
  11 H :    0.127003
Sum of atomic charges:    0.0000000

LOEWDIN ATOMIC CHARGES
----------------------
   0 C :   -0.000382
   1 O :   -0.003794
   2 H :   -0.002641
   3 H :   -0.000022
   4 H :   -0.000009
   5 H :   -0.000004
   6 C :   -0.368956
   7 O :   -0.079533
   8 H :    0.151287
   9 H :    0.093704
  10 H :    0.108927
  11 H :    0.101422

  Mayer bond orders larger than 0.1
B(  6-C ,  7-O ) :   1.0003 B(  6-C ,  9-H ) :   0.9676 B(  6-C , 10-H ) :   0.9776
B(  6-C , 11-H ) :   0.9746 B(  7-O ,  8-H ) :   0.9087

Dispersion correction           -0.000246596
FINAL SINGLE POINT ENERGY      -115.732441374010

DIPOLE MOMENT
-------------
                                X             Y             Z
Electronic contribution:      0.87117       1.54172      -0.48871
Nuclear contribution   :     -1.54066      -1.72684       0.54856
                        -----------------------------------------
Total Dipole Moment    :     -0.66949      -0.18513       0.05985
                        -----------------------------------------
Magnitude (a.u.)       :      0.69719
Magnitude (Debye)      :      1.77211

Rotational constants in cm-1:     4.169374     0.805552     0.784539
Rotational constants in MHz : 124994.694179 24149.843598 23519.892975

                             ****ORCA TERMINATED NORMALLY****
TOTAL RUN TIME: 0 days 0 hours 1 minutes 11 seconds 822 msec
