                         Program Version 4.1.2  - RELEASE  -
|  1> #Run DFT-D3 single point of the dimer
|  2> ! wB97X-D3 def2-TZVP TIGHTSCF CHELPG PMODEL PAL8
|  3>
|  4> %base "3-29_DFT_AB"
|  5>
|  6> %scf
|  7> MaxIter 1000
|  8> end
|  9>
| 10> * xyz 0 1
| 11>   C                      -4.983724            -1.861540            -7.037725
| 12>   O                      -5.308556            -0.500746            -6.993364
| 13>   H                      -5.230599            -0.272961            -7.890385
| 14>   H                      -4.141318            -2.148880            -7.659056
| 15>   H                      -4.764248            -2.337265            -6.067641
| 16>   H                      -5.873911            -2.396272            -7.501663
| 17>   C                      -4.944868            -6.379908            -6.736573
| 18>   O                      -6.142319            -5.643729            -6.610150
| 19>   H                      -6.328640            -5.442620            -7.501184
| 20>   H                      -4.130525            -5.985907            -6.044649
| 21>   H                      -5.172011            -7.357734            -6.328079
| 22>   H                      -4.478197            -6.584611            -7.685240
| 23> *
| 24>
| 25> #Run DFT-D3 single point of the molecule with dimer basis set
| 26> $new_job
| 27> %base "3-29_DFT_A"
| 28> ! wB97X-D3 def2-TZVP TIGHTSCF CHELPG PMODEL
| 29>
| 30> %scf
| 31> MaxIter 1000
| 32> end
| 33>
| 34> * xyz 0 1
| 35>   C                      -4.983724            -1.861540            -7.037725
| 36>   O                      -5.308556            -0.500746            -6.993364
| 37>   H                      -5.230599            -0.272961            -7.890385
| 38>   H                      -4.141318            -2.148880            -7.659056
| 39>   H                      -4.764248            -2.337265            -6.067641
| 40>   H                      -5.873911            -2.396272            -7.501663
| 41>   C                    : -4.944868            -6.379908            -6.736573
| 42>   O                    : -6.142319            -5.643729            -6.610150
| 43>   H                    : -6.328640            -5.442620            -7.501184
| 44>   H                    : -4.130525            -5.985907            -6.044649
| 45>   H                    : -5.172011            -7.357734            -6.328079
| 46>   H                    : -4.478197            -6.584611            -7.685240
| 47> *
| 48>
| 49> #Run DFT-D3 single point of the particle with dimer basis set
| 50> $new_job
| 51> %base "3-29_DFT_B"
| 52> ! wB97X-D3 def2-TZVP TIGHTSCF CHELPG PMODEL
| 53>
| 54> %scf
| 55> MaxIter 1000
| 56> end
| 57>
| 58> * xyz 0 1
| 59>   C                    : -4.983724            -1.861540            -7.037725
| 60>   O                    : -5.308556            -0.500746            -6.993364
| 61>   H                    : -5.230599            -0.272961            -7.890385
| 62>   H                    : -4.141318            -2.148880            -7.659056
| 63>   H                    : -4.764248            -2.337265            -6.067641
| 64>   H                    : -5.873911            -2.396272            -7.501663
| 65>   C                      -4.944868            -6.379908            -6.736573
| 66>   O                      -6.142319            -5.643729            -6.610150
| 67>   H                      -6.328640            -5.442620            -7.501184
| 68>   H                      -4.130525            -5.985907            -6.044649
| 69>   H                      -5.172011            -7.357734            -6.328079
| 70>   H                      -4.478197            -6.584611            -7.685240
| 71> *
| 72>
| 73>                          ****END OF INPUT****
 Total Charge           Charge          ....    0
 Multiplicity           Mult            ....    1
 Number of Electrons    NEL             ....   36
Dispersion correction           -0.001264797
FINAL SINGLE POINT ENERGY      -231.457223864560
Dispersion correction           -0.000226256
FINAL SINGLE POINT ENERGY      -115.729602425395

CARTESIAN COORDINATES (ANGSTROEM)
---------------------------------
  C     -4.983724   -1.861540   -7.037725
  O     -5.308556   -0.500746   -6.993364
  H     -5.230599   -0.272961   -7.890385
  H     -4.141318   -2.148880   -7.659056
  H     -4.764248   -2.337265   -6.067641
  H     -5.873911   -2.396272   -7.501663
  C     -4.944868   -6.379908   -6.736573
  O     -6.142319   -5.643729   -6.610150
  H     -6.328640   -5.442620   -7.501184
  H     -4.130525   -5.985907   -6.044649
  H     -5.172011   -7.357734   -6.328079
  H     -4.478197   -6.584611   -7.685240

 Multiplicity           Mult            ....    1
 Number of Electrons    NEL             ....   18
 Basis Dimension        Dim             ....  172

ORBITAL ENERGIES
----------------

  NO   OCC          E(Eh)            E(eV)
   0   2.0000     -19.234698      -523.4028
   1   2.0000     -10.313705      -280.6502
   2   2.0000      -1.150387       -31.3036
   3   2.0000      -0.796324       -21.6691
   4   2.0000      -0.621260       -16.9054
   5   2.0000      -0.534016       -14.5313
   6   2.0000      -0.522728       -14.2242
   7   2.0000      -0.450776       -12.2662
   8   2.0000      -0.371775       -10.1165
   9   0.0000       0.084991         2.3127
  10   0.0000       0.122508         3.3336
  11   0.0000       0.150050         4.0831
  12   0.0000       0.169498         4.6123
  13   0.0000       0.195610         5.3228

MULLIKEN ATOMIC CHARGES
-----------------------
   0 C :    0.000675
   1 O :   -0.000120
   2 H :   -0.000044
   3 H :   -0.000142
   4 H :   -0.000618
   5 H :   -0.004053
   6 C :   -0.196227
   7 O :   -0.446289
   8 H :    0.310746
   9 H :    0.107368
  10 H :    0.112298
  11 H :    0.116406
Sum of atomic charges:    0.0000000

LOEWDIN ATOMIC CHARGES
----------------------
   0 C :   -0.002716
   1 O :   -0.000025
   2 H :   -0.000010
   3 H :   -0.000059
   4 H :   -0.000585
   5 H :   -0.002075
   6 C :   -0.401714
   7 O :   -0.051186
   8 H :    0.155433
   9 H :    0.109258
  10 H :    0.099502
  11 H :    0.094175

  Mayer bond orders larger than 0.1
B(  6-C ,  7-O ) :   1.0109 B(  6-C ,  9-H ) :   0.9765 B(  6-C , 10-H ) :   0.9835
B(  6-C , 11-H ) :   0.9706 B(  7-O ,  8-H ) :   0.9081

Dispersion correction           -0.000252383
FINAL SINGLE POINT ENERGY      -115.727050721601

DIPOLE MOMENT
-------------
                                X             Y             Z
Electronic contribution:     -1.64520       1.07427       0.09860
Nuclear contribution   :      1.96448      -1.25205      -0.73829
                        -----------------------------------------
Total Dipole Moment    :      0.31928      -0.17778      -0.63968
                        -----------------------------------------
Magnitude (a.u.)       :      0.73671
Magnitude (Debye)      :      1.87256

Rotational constants in cm-1:     4.400304     0.832359     0.800224
Rotational constants in MHz : 131917.806377 24953.499390 23990.099253

                             ****ORCA TERMINATED NORMALLY****
TOTAL RUN TIME: 0 days 0 hours 6 minutes 24 seconds 616 msec
