                         Program Version 4.1.2  - RELEASE  -
|  1> #Run DFT-D3 single point of the dimer
|  2> ! wB97X-D3 def2-TZVP TIGHTSCF CHELPG PMODEL PAL8
|  3>
|  4> %base "7-189_DFT_AB"
|  5>
|  6> %scf
|  7> MaxIter 1000
|  8> end
|  9>
| 10> * xyz 0 1
| 11>   C                      4.184750             -3.207823            8.563290
| 12>   O                      4.112206             -1.905528            7.976050
| 13>   H                      4.339937             -1.929476            7.006148
| 14>   H                      5.218819             -3.450477            8.968318
| 15>   H                      3.369544             -3.401856            9.220381
| 16>   H                      3.951385             -3.901322            7.759760
| 17>   C                      5.433083             -0.164466            5.139578
| 18>   O                      4.435677             -1.192578            5.131222
| 19>   H                      3.708831             -0.760089            4.699284
| 20>   H                      5.218809             0.632496             4.407749
| 21>   H                      5.430330             0.409471             6.073263
| 22>   H                      6.494510             -0.553591            4.881932
| 23> *
| 24>
| 25> #Run DFT-D3 single point of the molecule with dimer basis set
| 26> $new_job
| 27> %base "7-189_DFT_A"
| 28> ! wB97X-D3 def2-TZVP TIGHTSCF CHELPG PMODEL
| 29>
| 30> %scf
| 31> MaxIter 1000
| 32> end
| 33>
| 34> * xyz 0 1
| 35>   C                      4.184750             -3.207823            8.563290
| 36>   O                      4.112206             -1.905528            7.976050
| 37>   H                      4.339937             -1.929476            7.006148
| 38>   H                      5.218819             -3.450477            8.968318
| 39>   H                      3.369544             -3.401856            9.220381
| 40>   H                      3.951385             -3.901322            7.759760
| 41>   C                    : 5.433083             -0.164466            5.139578
| 42>   O                    : 4.435677             -1.192578            5.131222
| 43>   H                    : 3.708831             -0.760089            4.699284
| 44>   H                    : 5.218809             0.632496             4.407749
| 45>   H                    : 5.430330             0.409471             6.073263
| 46>   H                    : 6.494510             -0.553591            4.881932
| 47> *
| 48>
| 49> #Run DFT-D3 single point of the particle with dimer basis set
| 50> $new_job
| 51> %base "7-189_DFT_B"
| 52> ! wB97X-D3 def2-TZVP TIGHTSCF CHELPG PMODEL
| 53>
| 54> %scf
| 55> MaxIter 1000
| 56> end
| 57>
| 58> * xyz 0 1
| 59>   C                    : 4.184750             -3.207823            8.563290
| 60>   O                    : 4.112206             -1.905528            7.976050
| 61>   H                    : 4.339937             -1.929476            7.006148
| 62>   H                    : 5.218819             -3.450477            8.968318
| 63>   H                    : 3.369544             -3.401856            9.220381
| 64>   H                    : 3.951385             -3.901322            7.759760
| 65>   C                      5.433083             -0.164466            5.139578
| 66>   O                      4.435677             -1.192578            5.131222
| 67>   H                      3.708831             -0.760089            4.699284
| 68>   H                      5.218809             0.632496             4.407749
| 69>   H                      5.430330             0.409471             6.073263
| 70>   H                      6.494510             -0.553591            4.881932
| 71> *
| 72>
| 73>                          ****END OF INPUT****
 Total Charge           Charge          ....    0
 Multiplicity           Mult            ....    1
 Number of Electrons    NEL             ....   36
Dispersion correction           -0.001588326
FINAL SINGLE POINT ENERGY      -231.467318921724
Dispersion correction           -0.000255390
FINAL SINGLE POINT ENERGY      -115.728447343634

CARTESIAN COORDINATES (ANGSTROEM)
---------------------------------
  C      4.184750   -3.207823    8.563290
  O      4.112206   -1.905528    7.976050
  H      4.339937   -1.929476    7.006148
  H      5.218819   -3.450477    8.968318
  H      3.369544   -3.401856    9.220381
  H      3.951385   -3.901322    7.759760
  C      5.433083   -0.164466    5.139578
  O      4.435677   -1.192578    5.131222
  H      3.708831   -0.760089    4.699284
  H      5.218809    0.632496    4.407749
  H      5.430330    0.409471    6.073263
  H      6.494510   -0.553591    4.881932

 Multiplicity           Mult            ....    1
 Number of Electrons    NEL             ....   18
 Basis Dimension        Dim             ....  172

ORBITAL ENERGIES
----------------

  NO   OCC          E(Eh)            E(eV)
   0   2.0000     -19.235187      -523.4161
   1   2.0000     -10.323445      -280.9152
   2   2.0000      -1.139329       -31.0027
   3   2.0000      -0.790522       -21.5112
   4   2.0000      -0.612902       -16.6779
   5   2.0000      -0.536845       -14.6083
   6   2.0000      -0.519472       -14.1356
   7   2.0000      -0.439669       -11.9640
   8   2.0000      -0.377422       -10.2702
   9   0.0000       0.098731         2.6866
  10   0.0000       0.117894         3.2081
  11   0.0000       0.148617         4.0441
  12   0.0000       0.183626         4.9967
  13   0.0000       0.193384         5.2623

MULLIKEN ATOMIC CHARGES
-----------------------
   0 C :   -0.000013
   1 O :   -0.003481
   2 H :   -0.000926
   3 H :    0.000006
   4 H :    0.000000
   5 H :   -0.000634
   6 C :   -0.193725
   7 O :   -0.455893
   8 H :    0.314950
   9 H :    0.108535
  10 H :    0.113913
  11 H :    0.117269
Sum of atomic charges:   -0.0000000

LOEWDIN ATOMIC CHARGES
----------------------
   0 C :   -0.000627
   1 O :   -0.004724
   2 H :   -0.034906
   3 H :   -0.000007
   4 H :   -0.000007
   5 H :   -0.000177
   6 C :   -0.386939
   7 O :   -0.049579
   8 H :    0.165611
   9 H :    0.097746
  10 H :    0.097146
  11 H :    0.116462

  Mayer bond orders larger than 0.1
B(  6-C ,  7-O ) :   0.9958 B(  6-C ,  9-H ) :   0.9797 B(  6-C , 10-H ) :   0.9711
B(  6-C , 11-H ) :   0.9706 B(  7-O ,  8-H ) :   0.9022

Dispersion correction           -0.000256948
FINAL SINGLE POINT ENERGY      -115.730263901861

DIPOLE MOMENT
-------------
                                X             Y             Z
Electronic contribution:     -1.23154      -1.53525       0.09560
Nuclear contribution   :      1.14035       2.23535      -0.39102
                        -----------------------------------------
Total Dipole Moment    :     -0.09118       0.70010      -0.29542
                        -----------------------------------------
Magnitude (a.u.)       :      0.76533
Magnitude (Debye)      :      1.94532

Rotational constants in cm-1:     4.181940     0.809419     0.778646
Rotational constants in MHz : 125371.398372 24265.765679 23343.229149

                             ****ORCA TERMINATED NORMALLY****
TOTAL RUN TIME: 0 days 0 hours 1 minutes 12 seconds 701 msec
