                         Program Version 4.1.2  - RELEASE  -
|  1> #Run DFT-D3 single point of the dimer
|  2> ! wB97X-D3 def2-TZVP TIGHTSCF CHELPG PMODEL PAL8
|  3>
|  4> %base "16-72_DFT_AB"
|  5>
|  6> %scf
|  7> MaxIter 1000
|  8> end
|  9>
| 10> * xyz 0 1
| 11>   C                      1.882657             -5.473259            -4.311445
| 12>   O                      1.200089             -6.616802            -4.829966
| 13>   H                      0.588911             -6.281126            -5.540718
| 14>   H                      2.877696             -5.712606            -3.843402
| 15>   H                      2.170245             -4.752331            -5.142988
| 16>   H                      1.250145             -4.869591            -3.657311
| 17>   C                      0.741644             -9.961062            -5.985418
| 18>   O                      -0.296424            -10.858472           -5.471608
| 19>   H                      -0.946359            -10.348229           -4.948801
| 20>   H                      1.510999             -10.492507           -6.512257
| 21>   H                      0.381211             -9.186542            -6.686297
| 22>   H                      1.110891             -9.255089            -5.188916
| 23> *
| 24>
| 25> #Run DFT-D3 single point of the molecule with dimer basis set
| 26> $new_job
| 27> %base "16-72_DFT_A"
| 28> ! wB97X-D3 def2-TZVP TIGHTSCF CHELPG PMODEL
| 29>
| 30> %scf
| 31> MaxIter 1000
| 32> end
| 33>
| 34> * xyz 0 1
| 35>   C                      1.882657             -5.473259            -4.311445
| 36>   O                      1.200089             -6.616802            -4.829966
| 37>   H                      0.588911             -6.281126            -5.540718
| 38>   H                      2.877696             -5.712606            -3.843402
| 39>   H                      2.170245             -4.752331            -5.142988
| 40>   H                      1.250145             -4.869591            -3.657311
| 41>   C                    : 0.741644             -9.961062            -5.985418
| 42>   O                    : -0.296424            -10.858472           -5.471608
| 43>   H                    : -0.946359            -10.348229           -4.948801
| 44>   H                    : 1.510999             -10.492507           -6.512257
| 45>   H                    : 0.381211             -9.186542            -6.686297
| 46>   H                    : 1.110891             -9.255089            -5.188916
| 47> *
| 48>
| 49> #Run DFT-D3 single point of the particle with dimer basis set
| 50> $new_job
| 51> %base "16-72_DFT_B"
| 52> ! wB97X-D3 def2-TZVP TIGHTSCF CHELPG PMODEL
| 53>
| 54> %scf
| 55> MaxIter 1000
| 56> end
| 57>
| 58> * xyz 0 1
| 59>   C                    : 1.882657             -5.473259            -4.311445
| 60>   O                    : 1.200089             -6.616802            -4.829966
| 61>   H                    : 0.588911             -6.281126            -5.540718
| 62>   H                    : 2.877696             -5.712606            -3.843402
| 63>   H                    : 2.170245             -4.752331            -5.142988
| 64>   H                    : 1.250145             -4.869591            -3.657311
| 65>   C                      0.741644             -9.961062            -5.985418
| 66>   O                      -0.296424            -10.858472           -5.471608
| 67>   H                      -0.946359            -10.348229           -4.948801
| 68>   H                      1.510999             -10.492507           -6.512257
| 69>   H                      0.381211             -9.186542            -6.686297
| 70>   H                      1.110891             -9.255089            -5.188916
| 71> *
| 72>
| 73>                          ****END OF INPUT****
 Total Charge           Charge          ....    0
 Multiplicity           Mult            ....    1
 Number of Electrons    NEL             ....   36
Dispersion correction           -0.001385262
FINAL SINGLE POINT ENERGY      -231.462275399361
Dispersion correction           -0.000260539
FINAL SINGLE POINT ENERGY      -115.731383620658

CARTESIAN COORDINATES (ANGSTROEM)
---------------------------------
  C      1.882657   -5.473259   -4.311445
  O      1.200089   -6.616802   -4.829966
  H      0.588911   -6.281126   -5.540718
  H      2.877696   -5.712606   -3.843402
  H      2.170245   -4.752331   -5.142988
  H      1.250145   -4.869591   -3.657311
  C      0.741644   -9.961062   -5.985418
  O     -0.296424  -10.858472   -5.471608
  H     -0.946359  -10.348229   -4.948801
  H      1.510999  -10.492507   -6.512257
  H      0.381211   -9.186542   -6.686297
  H      1.110891   -9.255089   -5.188916

 Multiplicity           Mult            ....    1
 Number of Electrons    NEL             ....   18
 Basis Dimension        Dim             ....  172

ORBITAL ENERGIES
----------------

  NO   OCC          E(Eh)            E(eV)
   0   2.0000     -19.233884      -523.3806
   1   2.0000     -10.321191      -280.8539
   2   2.0000      -1.117814       -30.4173
   3   2.0000      -0.797796       -21.7091
   4   2.0000      -0.606063       -16.4918
   5   2.0000      -0.532929       -14.5017
   6   2.0000      -0.514047       -13.9879
   7   2.0000      -0.442247       -12.0342
   8   2.0000      -0.370429       -10.0799
   9   0.0000       0.078011         2.1228
  10   0.0000       0.113257         3.0819
  11   0.0000       0.140165         3.8141
  12   0.0000       0.169510         4.6126
  13   0.0000       0.186452         5.0736

MULLIKEN ATOMIC CHARGES
-----------------------
   0 C :   -0.000476
   1 O :   -0.000604
   2 H :   -0.000335
   3 H :   -0.000001
   4 H :    0.000001
   5 H :    0.000007
   6 C :   -0.176349
   7 O :   -0.483488
   8 H :    0.316278
   9 H :    0.133289
  10 H :    0.105501
  11 H :    0.106176
Sum of atomic charges:   -0.0000000

LOEWDIN ATOMIC CHARGES
----------------------
   0 C :   -0.000415
   1 O :   -0.003960
   2 H :   -0.000854
   3 H :   -0.000026
   4 H :   -0.000009
   5 H :   -0.000011
   6 C :   -0.357944
   7 O :   -0.118863
   8 H :    0.175430
   9 H :    0.104724
  10 H :    0.097523
  11 H :    0.104405

  Mayer bond orders larger than 0.1
B(  6-C ,  7-O ) :   0.9945 B(  6-C ,  9-H ) :   0.9700 B(  6-C , 10-H ) :   0.9693
B(  6-C , 11-H ) :   0.9778 B(  7-O ,  8-H ) :   0.8958

Dispersion correction           -0.000282302
FINAL SINGLE POINT ENERGY      -115.728855486530

DIPOLE MOMENT
-------------
                                X             Y             Z
Electronic contribution:     -1.17095      -1.42706       0.56067
Nuclear contribution   :      1.19167       2.13545      -0.46274
                        -----------------------------------------
Total Dipole Moment    :      0.02072       0.70838       0.09793
                        -----------------------------------------
Magnitude (a.u.)       :      0.71542
Magnitude (Debye)      :      1.81846

Rotational constants in cm-1:     4.323356     0.778971     0.739280
Rotational constants in MHz : 129610.945176 23352.966325 22163.070741

                             ****ORCA TERMINATED NORMALLY****
TOTAL RUN TIME: 0 days 0 hours 1 minutes 0 seconds 467 msec
