                         Program Version 4.1.2  - RELEASE  -
|  1> #Run DFT-D3 single point of the dimer
|  2> ! wB97X-D3 def2-TZVP TIGHTSCF CHELPG PMODEL PAL8
|  3>
|  4> %base "13-28_DFT_AB"
|  5>
|  6> %scf
|  7> MaxIter 1000
|  8> end
|  9>
| 10> * xyz 0 1
| 11>   C                      8.730308             3.899226             2.149717
| 12>   O                      8.727510             4.515731             3.391171
| 13>   H                      8.971102             3.845364             4.096785
| 14>   H                      7.977863             3.093714             1.981061
| 15>   H                      8.611493             4.563490             1.375801
| 16>   H                      9.723099             3.443428             1.923112
| 17>   C                      6.036947             3.383647             -0.342479
| 18>   O                      5.610807             4.428076             0.518269
| 19>   H                      4.849778             4.837852             0.163086
| 20>   H                      5.238734             2.718864             -0.665978
| 21>   H                      6.621581             3.647716             -1.249709
| 22>   H                      6.628781             2.660241             0.162012
| 23> *
| 24>
| 25> #Run DFT-D3 single point of the molecule with dimer basis set
| 26> $new_job
| 27> %base "13-28_DFT_A"
| 28> ! wB97X-D3 def2-TZVP TIGHTSCF CHELPG PMODEL
| 29>
| 30> %scf
| 31> MaxIter 1000
| 32> end
| 33>
| 34> * xyz 0 1
| 35>   C                      8.730308             3.899226             2.149717
| 36>   O                      8.727510             4.515731             3.391171
| 37>   H                      8.971102             3.845364             4.096785
| 38>   H                      7.977863             3.093714             1.981061
| 39>   H                      8.611493             4.563490             1.375801
| 40>   H                      9.723099             3.443428             1.923112
| 41>   C                    : 6.036947             3.383647             -0.342479
| 42>   O                    : 5.610807             4.428076             0.518269
| 43>   H                    : 4.849778             4.837852             0.163086
| 44>   H                    : 5.238734             2.718864             -0.665978
| 45>   H                    : 6.621581             3.647716             -1.249709
| 46>   H                    : 6.628781             2.660241             0.162012
| 47> *
| 48>
| 49> #Run DFT-D3 single point of the particle with dimer basis set
| 50> $new_job
| 51> %base "13-28_DFT_B"
| 52> ! wB97X-D3 def2-TZVP TIGHTSCF CHELPG PMODEL
| 53>
| 54> %scf
| 55> MaxIter 1000
| 56> end
| 57>
| 58> * xyz 0 1
| 59>   C                    : 8.730308             3.899226             2.149717
| 60>   O                    : 8.727510             4.515731             3.391171
| 61>   H                    : 8.971102             3.845364             4.096785
| 62>   H                    : 7.977863             3.093714             1.981061
| 63>   H                    : 8.611493             4.563490             1.375801
| 64>   H                    : 9.723099             3.443428             1.923112
| 65>   C                      6.036947             3.383647             -0.342479
| 66>   O                      5.610807             4.428076             0.518269
| 67>   H                      4.849778             4.837852             0.163086
| 68>   H                      5.238734             2.718864             -0.665978
| 69>   H                      6.621581             3.647716             -1.249709
| 70>   H                      6.628781             2.660241             0.162012
| 71> *
| 72>
| 73>                          ****END OF INPUT****
 Total Charge           Charge          ....    0
 Multiplicity           Mult            ....    1
 Number of Electrons    NEL             ....   36
Dispersion correction           -0.001791963
FINAL SINGLE POINT ENERGY      -231.461698638867
Dispersion correction           -0.000250196
FINAL SINGLE POINT ENERGY      -115.730102784134

CARTESIAN COORDINATES (ANGSTROEM)
---------------------------------
  C      8.730308    3.899226    2.149717
  O      8.727510    4.515731    3.391171
  H      8.971102    3.845364    4.096785
  H      7.977863    3.093714    1.981061
  H      8.611493    4.563490    1.375801
  H      9.723099    3.443428    1.923112
  C      6.036947    3.383647   -0.342479
  O      5.610807    4.428076    0.518269
  H      4.849778    4.837852    0.163086
  H      5.238734    2.718864   -0.665978
  H      6.621581    3.647716   -1.249709
  H      6.628781    2.660241    0.162012

 Multiplicity           Mult            ....    1
 Number of Electrons    NEL             ....   18
 Basis Dimension        Dim             ....  172

ORBITAL ENERGIES
----------------

  NO   OCC          E(Eh)            E(eV)
   0   2.0000     -19.233191      -523.3617
   1   2.0000     -10.311575      -280.5922
   2   2.0000      -1.140950       -31.0468
   3   2.0000      -0.805227       -21.9113
   4   2.0000      -0.617739       -16.8095
   5   2.0000      -0.539558       -14.6821
   6   2.0000      -0.527929       -14.3657
   7   2.0000      -0.430435       -11.7127
   8   2.0000      -0.380145       -10.3443
   9   0.0000       0.096041         2.6134
  10   0.0000       0.124711         3.3936
  11   0.0000       0.147186         4.0051
  12   0.0000       0.180864         4.9216
  13   0.0000       0.195381         5.3166

MULLIKEN ATOMIC CHARGES
-----------------------
   0 C :    0.000431
   1 O :    0.000158
   2 H :    0.000016
   3 H :    0.000892
   4 H :   -0.001927
   5 H :    0.000182
   6 C :   -0.177674
   7 O :   -0.466808
   8 H :    0.312271
   9 H :    0.108346
  10 H :    0.104414
  11 H :    0.119699
Sum of atomic charges:   -0.0000000

LOEWDIN ATOMIC CHARGES
----------------------
   0 C :   -0.005681
   1 O :   -0.000030
   2 H :   -0.000003
   3 H :   -0.004314
   4 H :   -0.001693
   5 H :   -0.000036
   6 C :   -0.385058
   7 O :   -0.056535
   8 H :    0.153079
   9 H :    0.097033
  10 H :    0.099230
  11 H :    0.104007

  Mayer bond orders larger than 0.1
B(  6-C ,  7-O ) :   1.0075 B(  6-C ,  9-H ) :   0.9747 B(  6-C , 10-H ) :   0.9736
B(  6-C , 11-H ) :   0.9758 B(  7-O ,  8-H ) :   0.9030

Dispersion correction           -0.000272480
FINAL SINGLE POINT ENERGY      -115.731402228234

DIPOLE MOMENT
-------------
                                X             Y             Z
Electronic contribution:     -0.47330       1.49113       1.23268
Nuclear contribution   :      0.13230      -1.67874      -1.78735
                        -----------------------------------------
Total Dipole Moment    :     -0.34100      -0.18761      -0.55467
                        -----------------------------------------
Magnitude (a.u.)       :      0.67760
Magnitude (Debye)      :      1.72231

Rotational constants in cm-1:     4.638714     0.804351     0.788650
Rotational constants in MHz : 139065.149030 24113.831311 23643.117293

                             ****ORCA TERMINATED NORMALLY****
TOTAL RUN TIME: 0 days 0 hours 1 minutes 12 seconds 238 msec
