                         Program Version 4.1.2  - RELEASE  -
|  1> #Run DFT-D3 single point of the dimer
|  2> ! wB97X-D3 def2-TZVP TIGHTSCF CHELPG PMODEL PAL8
|  3>
|  4> %base "10-44_DFT_AB"
|  5>
|  6> %scf
|  7> MaxIter 1000
|  8> end
|  9>
| 10> * xyz 0 1
| 11>   C                      6.640702             1.118679             1.001048
| 12>   O                      7.266035             -0.143782            1.123999
| 13>   H                      7.994274             -0.063849            0.473445
| 14>   H                      5.730766             1.058960             0.469523
| 15>   H                      6.333335             1.429739             2.003741
| 16>   H                      7.222567             1.942048             0.618447
| 17>   C                      5.015185             2.098689             -2.292997
| 18>   O                      4.811069             3.184856             -1.427389
| 19>   H                      4.689620             2.836388             -0.561679
| 20>   H                      5.319712             2.430071             -3.330601
| 21>   H                      5.797498             1.483168             -1.938380
| 22>   H                      4.220047             1.414178             -2.445597
| 23> *
| 24>
| 25> #Run DFT-D3 single point of the molecule with dimer basis set
| 26> $new_job
| 27> %base "10-44_DFT_A"
| 28> ! wB97X-D3 def2-TZVP TIGHTSCF CHELPG PMODEL
| 29>
| 30> %scf
| 31> MaxIter 1000
| 32> end
| 33>
| 34> * xyz 0 1
| 35>   C                      6.640702             1.118679             1.001048
| 36>   O                      7.266035             -0.143782            1.123999
| 37>   H                      7.994274             -0.063849            0.473445
| 38>   H                      5.730766             1.058960             0.469523
| 39>   H                      6.333335             1.429739             2.003741
| 40>   H                      7.222567             1.942048             0.618447
| 41>   C                    : 5.015185             2.098689             -2.292997
| 42>   O                    : 4.811069             3.184856             -1.427389
| 43>   H                    : 4.689620             2.836388             -0.561679
| 44>   H                    : 5.319712             2.430071             -3.330601
| 45>   H                    : 5.797498             1.483168             -1.938380
| 46>   H                    : 4.220047             1.414178             -2.445597
| 47> *
| 48>
| 49> #Run DFT-D3 single point of the particle with dimer basis set
| 50> $new_job
| 51> %base "10-44_DFT_B"
| 52> ! wB97X-D3 def2-TZVP TIGHTSCF CHELPG PMODEL
| 53>
| 54> %scf
| 55> MaxIter 1000
| 56> end
| 57>
| 58> * xyz 0 1
| 59>   C                    : 6.640702             1.118679             1.001048
| 60>   O                    : 7.266035             -0.143782            1.123999
| 61>   H                    : 7.994274             -0.063849            0.473445
| 62>   H                    : 5.730766             1.058960             0.469523
| 63>   H                    : 6.333335             1.429739             2.003741
| 64>   H                    : 7.222567             1.942048             0.618447
| 65>   C                      5.015185             2.098689             -2.292997
| 66>   O                      4.811069             3.184856             -1.427389
| 67>   H                      4.689620             2.836388             -0.561679
| 68>   H                      5.319712             2.430071             -3.330601
| 69>   H                      5.797498             1.483168             -1.938380
| 70>   H                      4.220047             1.414178             -2.445597
| 71> *
| 72>
| 73>                          ****END OF INPUT****
 Total Charge           Charge          ....    0
 Multiplicity           Mult            ....    1
 Number of Electrons    NEL             ....   36
Dispersion correction           -0.001889207
FINAL SINGLE POINT ENERGY      -231.463999821959
Dispersion correction           -0.000239590
FINAL SINGLE POINT ENERGY      -115.731305850209

CARTESIAN COORDINATES (ANGSTROEM)
---------------------------------
  C      6.640702    1.118679    1.001048
  O      7.266035   -0.143782    1.123999
  H      7.994274   -0.063849    0.473445
  H      5.730766    1.058960    0.469523
  H      6.333335    1.429739    2.003741
  H      7.222567    1.942048    0.618447
  C      5.015185    2.098689   -2.292997
  O      4.811069    3.184856   -1.427389
  H      4.689620    2.836388   -0.561679
  H      5.319712    2.430071   -3.330601
  H      5.797498    1.483168   -1.938380
  H      4.220047    1.414178   -2.445597

 Multiplicity           Mult            ....    1
 Number of Electrons    NEL             ....   18
 Basis Dimension        Dim             ....  172

ORBITAL ENERGIES
----------------

  NO   OCC          E(Eh)            E(eV)
   0   2.0000     -19.232323      -523.3381
   1   2.0000     -10.308725      -280.5147
   2   2.0000      -1.145186       -31.1621
   3   2.0000      -0.801826       -21.8188
   4   2.0000      -0.622395       -16.9362
   5   2.0000      -0.543188       -14.7809
   6   2.0000      -0.526053       -14.3146
   7   2.0000      -0.436071       -11.8661
   8   2.0000      -0.376003       -10.2316
   9   0.0000       0.073792         2.0080
  10   0.0000       0.134080         3.6485
  11   0.0000       0.147449         4.0123
  12   0.0000       0.176130         4.7927
  13   0.0000       0.190871         5.1939

MULLIKEN ATOMIC CHARGES
-----------------------
   0 C :   -0.001389
   1 O :   -0.000026
   2 H :   -0.000094
   3 H :   -0.001512
   4 H :    0.000015
   5 H :   -0.000234
   6 C :   -0.170508
   7 O :   -0.463565
   8 H :    0.312567
   9 H :    0.115123
  10 H :    0.103278
  11 H :    0.106344
Sum of atomic charges:    0.0000000

LOEWDIN ATOMIC CHARGES
----------------------
   0 C :   -0.007036
   1 O :   -0.000050
   2 H :   -0.000089
   3 H :   -0.004533
   4 H :   -0.000067
   5 H :   -0.001031
   6 C :   -0.389233
   7 O :   -0.049769
   8 H :    0.158851
   9 H :    0.117095
  10 H :    0.088874
  11 H :    0.086986

  Mayer bond orders larger than 0.1
B(  6-C ,  7-O ) :   0.9990 B(  6-C ,  9-H ) :   0.9761 B(  6-C , 10-H ) :   0.9826
B(  6-C , 11-H ) :   0.9737 B(  7-O ,  8-H ) :   0.9058

Dispersion correction           -0.000238763
FINAL SINGLE POINT ENERGY      -115.731821972595

DIPOLE MOMENT
-------------
                                X             Y             Z
Electronic contribution:     -0.34581       1.55208       1.10295
Nuclear contribution   :      0.35320      -2.21649      -0.88135
                        -----------------------------------------
Total Dipole Moment    :      0.00739      -0.66442       0.22160
                        -----------------------------------------
Magnitude (a.u.)       :      0.70043
Magnitude (Debye)      :      1.78036

Rotational constants in cm-1:     4.556977     0.837473     0.800093
Rotational constants in MHz : 136614.726374 25106.822696 23986.172258

                             ****ORCA TERMINATED NORMALLY****
TOTAL RUN TIME: 0 days 0 hours 1 minutes 6 seconds 794 msec
