                         Program Version 4.1.2  - RELEASE  -
|  1> #Run DFT-D3 single point of the dimer
|  2> ! wB97X-D3 def2-TZVP TIGHTSCF CHELPG PMODEL PAL8
|  3>
|  4> %base "16-66_DFT_AB"
|  5>
|  6> %scf
|  7> MaxIter 1000
|  8> end
|  9>
| 10> * xyz 0 1
| 11>   C                      8.058946             -9.033042            0.461038
| 12>   O                      8.872390             -8.090761            1.090432
| 13>   H                      8.823240             -8.265778            1.999192
| 14>   H                      7.747471             -8.809037            -0.550858
| 15>   H                      8.601848             -9.949009            0.269711
| 16>   H                      7.118040             -9.192842            0.968932
| 17>   C                      3.434464             -6.323335            -0.905216
| 18>   O                      4.164704             -7.455818            -1.326360
| 19>   H                      3.560411             -8.224098            -1.348252
| 20>   H                      4.097257             -5.507385            -0.597335
| 21>   H                      2.775232             -6.025212            -1.737524
| 22>   H                      2.795566             -6.570912            -0.068298
| 23> *
| 24>
| 25> #Run DFT-D3 single point of the molecule with dimer basis set
| 26> $new_job
| 27> %base "16-66_DFT_A"
| 28> ! wB97X-D3 def2-TZVP TIGHTSCF CHELPG PMODEL
| 29>
| 30> %scf
| 31> MaxIter 1000
| 32> end
| 33>
| 34> * xyz 0 1
| 35>   C                      8.058946             -9.033042            0.461038
| 36>   O                      8.872390             -8.090761            1.090432
| 37>   H                      8.823240             -8.265778            1.999192
| 38>   H                      7.747471             -8.809037            -0.550858
| 39>   H                      8.601848             -9.949009            0.269711
| 40>   H                      7.118040             -9.192842            0.968932
| 41>   C                    : 3.434464             -6.323335            -0.905216
| 42>   O                    : 4.164704             -7.455818            -1.326360
| 43>   H                    : 3.560411             -8.224098            -1.348252
| 44>   H                    : 4.097257             -5.507385            -0.597335
| 45>   H                    : 2.775232             -6.025212            -1.737524
| 46>   H                    : 2.795566             -6.570912            -0.068298
| 47> *
| 48>
| 49> #Run DFT-D3 single point of the particle with dimer basis set
| 50> $new_job
| 51> %base "16-66_DFT_B"
| 52> ! wB97X-D3 def2-TZVP TIGHTSCF CHELPG PMODEL
| 53>
| 54> %scf
| 55> MaxIter 1000
| 56> end
| 57>
| 58> * xyz 0 1
| 59>   C                    : 8.058946             -9.033042            0.461038
| 60>   O                    : 8.872390             -8.090761            1.090432
| 61>   H                    : 8.823240             -8.265778            1.999192
| 62>   H                    : 7.747471             -8.809037            -0.550858
| 63>   H                    : 8.601848             -9.949009            0.269711
| 64>   H                    : 7.118040             -9.192842            0.968932
| 65>   C                      3.434464             -6.323335            -0.905216
| 66>   O                      4.164704             -7.455818            -1.326360
| 67>   H                      3.560411             -8.224098            -1.348252
| 68>   H                      4.097257             -5.507385            -0.597335
| 69>   H                      2.775232             -6.025212            -1.737524
| 70>   H                      2.795566             -6.570912            -0.068298
| 71> *
| 72>
| 73>                          ****END OF INPUT****
 Total Charge           Charge          ....    0
 Multiplicity           Mult            ....    1
 Number of Electrons    NEL             ....   36
Dispersion correction           -0.000744522
FINAL SINGLE POINT ENERGY      -231.466336455054
Dispersion correction           -0.000234318
FINAL SINGLE POINT ENERGY      -115.730624058072

CARTESIAN COORDINATES (ANGSTROEM)
---------------------------------
  C      8.058946   -9.033042    0.461038
  O      8.872390   -8.090761    1.090432
  H      8.823240   -8.265778    1.999192
  H      7.747471   -8.809037   -0.550858
  H      8.601848   -9.949009    0.269711
  H      7.118040   -9.192842    0.968932
  C      3.434464   -6.323335   -0.905216
  O      4.164704   -7.455818   -1.326360
  H      3.560411   -8.224098   -1.348252
  H      4.097257   -5.507385   -0.597335
  H      2.775232   -6.025212   -1.737524
  H      2.795566   -6.570912   -0.068298

 Multiplicity           Mult            ....    1
 Number of Electrons    NEL             ....   18
 Basis Dimension        Dim             ....  172

ORBITAL ENERGIES
----------------

  NO   OCC          E(Eh)            E(eV)
   0   2.0000     -19.228880      -523.2444
   1   2.0000     -10.312385      -280.6143
   2   2.0000      -1.132456       -30.8157
   3   2.0000      -0.792810       -21.5735
   4   2.0000      -0.608940       -16.5701
   5   2.0000      -0.542979       -14.7752
   6   2.0000      -0.528404       -14.3786
   7   2.0000      -0.432613       -11.7720
   8   2.0000      -0.369916       -10.0659
   9   0.0000       0.094567         2.5733
  10   0.0000       0.113720         3.0945
  11   0.0000       0.154904         4.2152
  12   0.0000       0.175140         4.7658
  13   0.0000       0.196594         5.3496

MULLIKEN ATOMIC CHARGES
-----------------------
   0 C :    0.000447
   1 O :    0.000014
   2 H :    0.000001
   3 H :   -0.001303
   4 H :   -0.000122
   5 H :   -0.000794
   6 C :   -0.163606
   7 O :   -0.479969
   8 H :    0.316372
   9 H :    0.123467
  10 H :    0.101586
  11 H :    0.103907
Sum of atomic charges:   -0.0000000

LOEWDIN ATOMIC CHARGES
----------------------
   0 C :   -0.000646
   1 O :   -0.000010
   2 H :   -0.000000
   3 H :   -0.000532
   4 H :   -0.000008
   5 H :   -0.000357
   6 C :   -0.386286
   7 O :   -0.088577
   8 H :    0.179177
   9 H :    0.109056
  10 H :    0.096689
  11 H :    0.091495

  Mayer bond orders larger than 0.1
B(  6-C ,  7-O ) :   0.9886 B(  6-C ,  9-H ) :   0.9699 B(  6-C , 10-H ) :   0.9788
B(  6-C , 11-H ) :   0.9798 B(  7-O ,  8-H ) :   0.8952

Dispersion correction           -0.000227648
FINAL SINGLE POINT ENERGY      -115.735330834988

DIPOLE MOMENT
-------------
                                X             Y             Z
Electronic contribution:      1.10151      -1.29771      -0.50681
Nuclear contribution   :     -1.78042       1.26589       0.67901
                        -----------------------------------------
Total Dipole Moment    :     -0.67892      -0.03182       0.17219
                        -----------------------------------------
Magnitude (a.u.)       :      0.70114
Magnitude (Debye)      :      1.78214

Rotational constants in cm-1:     4.237884     0.837100     0.804613
Rotational constants in MHz : 127048.569542 25095.638613 24121.684387

                             ****ORCA TERMINATED NORMALLY****
TOTAL RUN TIME: 0 days 0 hours 1 minutes 0 seconds 526 msec
