                         Program Version 4.1.2  - RELEASE  -
|  1> #Run DFT-D3 single point of the dimer
|  2> ! wB97X-D3 def2-TZVP TIGHTSCF CHELPG PMODEL PAL8
|  3>
|  4> %base "21-88_DFT_AB"
|  5>
|  6> %scf
|  7> MaxIter 1000
|  8> end
|  9>
| 10> * xyz 0 1
| 11>   C                      -0.279772            8.880130             -5.984317
| 12>   O                      0.783245             8.630714             -6.886738
| 13>   H                      0.274807             8.473379             -7.649880
| 14>   H                      -0.903684            9.718744             -6.263217
| 15>   H                      -0.970593            8.024726             -5.917269
| 16>   H                      0.085905             9.093486             -4.943612
| 17>   C                      -0.476332            5.228080             -3.863871
| 18>   O                      0.558869             4.308490             -3.545075
| 19>   H                      0.259840             3.888630             -2.740243
| 20>   H                      -0.393640            5.740900             -4.847753
| 21>   H                      -1.548750            4.885884             -3.895985
| 22>   H                      -0.448631            6.086702             -3.136892
| 23> *
| 24>
| 25> #Run DFT-D3 single point of the molecule with dimer basis set
| 26> $new_job
| 27> %base "21-88_DFT_A"
| 28> ! wB97X-D3 def2-TZVP TIGHTSCF CHELPG PMODEL
| 29>
| 30> %scf
| 31> MaxIter 1000
| 32> end
| 33>
| 34> * xyz 0 1
| 35>   C                      -0.279772            8.880130             -5.984317
| 36>   O                      0.783245             8.630714             -6.886738
| 37>   H                      0.274807             8.473379             -7.649880
| 38>   H                      -0.903684            9.718744             -6.263217
| 39>   H                      -0.970593            8.024726             -5.917269
| 40>   H                      0.085905             9.093486             -4.943612
| 41>   C                    : -0.476332            5.228080             -3.863871
| 42>   O                    : 0.558869             4.308490             -3.545075
| 43>   H                    : 0.259840             3.888630             -2.740243
| 44>   H                    : -0.393640            5.740900             -4.847753
| 45>   H                    : -1.548750            4.885884             -3.895985
| 46>   H                    : -0.448631            6.086702             -3.136892
| 47> *
| 48>
| 49> #Run DFT-D3 single point of the particle with dimer basis set
| 50> $new_job
| 51> %base "21-88_DFT_B"
| 52> ! wB97X-D3 def2-TZVP TIGHTSCF CHELPG PMODEL
| 53>
| 54> %scf
| 55> MaxIter 1000
| 56> end
| 57>
| 58> * xyz 0 1
| 59>   C                    : -0.279772            8.880130             -5.984317
| 60>   O                    : 0.783245             8.630714             -6.886738
| 61>   H                    : 0.274807             8.473379             -7.649880
| 62>   H                    : -0.903684            9.718744             -6.263217
| 63>   H                    : -0.970593            8.024726             -5.917269
| 64>   H                    : 0.085905             9.093486             -4.943612
| 65>   C                      -0.476332            5.228080             -3.863871
| 66>   O                      0.558869             4.308490             -3.545075
| 67>   H                      0.259840             3.888630             -2.740243
| 68>   H                      -0.393640            5.740900             -4.847753
| 69>   H                      -1.548750            4.885884             -3.895985
| 70>   H                      -0.448631            6.086702             -3.136892
| 71> *
| 72>
| 73>                          ****END OF INPUT****
 Total Charge           Charge          ....    0
 Multiplicity           Mult            ....    1
 Number of Electrons    NEL             ....   36
Dispersion correction           -0.001289034
FINAL SINGLE POINT ENERGY      -231.462190886137
Dispersion correction           -0.000223180
FINAL SINGLE POINT ENERGY      -115.731920927532

CARTESIAN COORDINATES (ANGSTROEM)
---------------------------------
  C     -0.279772    8.880130   -5.984317
  O      0.783245    8.630714   -6.886738
  H      0.274807    8.473379   -7.649880
  H     -0.903684    9.718744   -6.263217
  H     -0.970593    8.024726   -5.917269
  H      0.085905    9.093486   -4.943612
  C     -0.476332    5.228080   -3.863871
  O      0.558869    4.308490   -3.545075
  H      0.259840    3.888630   -2.740243
  H     -0.393640    5.740900   -4.847753
  H     -1.548750    4.885884   -3.895985
  H     -0.448631    6.086702   -3.136892

 Multiplicity           Mult            ....    1
 Number of Electrons    NEL             ....   18
 Basis Dimension        Dim             ....  172

ORBITAL ENERGIES
----------------

  NO   OCC          E(Eh)            E(eV)
   0   2.0000     -19.238376      -523.5028
   1   2.0000     -10.322980      -280.9026
   2   2.0000      -1.141202       -31.0537
   3   2.0000      -0.792103       -21.5542
   4   2.0000      -0.611578       -16.6419
   5   2.0000      -0.535588       -14.5741
   6   2.0000      -0.525639       -14.3034
   7   2.0000      -0.435064       -11.8387
   8   2.0000      -0.376238       -10.2379
   9   0.0000       0.083969         2.2849
  10   0.0000       0.117290         3.1916
  11   0.0000       0.144997         3.9456
  12   0.0000       0.166861         4.5405
  13   0.0000       0.186331         5.0703

MULLIKEN ATOMIC CHARGES
-----------------------
   0 C :   -0.000432
   1 O :   -0.000004
   2 H :   -0.000024
   3 H :   -0.000021
   4 H :    0.000106
   5 H :   -0.000052
   6 C :   -0.192642
   7 O :   -0.456903
   8 H :    0.318680
   9 H :    0.123233
  10 H :    0.104885
  11 H :    0.103173
Sum of atomic charges:   -0.0000000

LOEWDIN ATOMIC CHARGES
----------------------
   0 C :   -0.002229
   1 O :   -0.000022
   2 H :   -0.000018
   3 H :   -0.000011
   4 H :   -0.002175
   5 H :   -0.000282
   6 C :   -0.405204
   7 O :   -0.072770
   8 H :    0.170857
   9 H :    0.112489
  10 H :    0.099971
  11 H :    0.099395

  Mayer bond orders larger than 0.1
B(  6-C ,  7-O ) :   1.0095 B(  6-C ,  9-H ) :   0.9725 B(  6-C , 10-H ) :   0.9632
B(  6-C , 11-H ) :   0.9810 B(  7-O ,  8-H ) :   0.8985

Dispersion correction           -0.000272320
FINAL SINGLE POINT ENERGY      -115.730015750618

DIPOLE MOMENT
-------------
                                X             Y             Z
Electronic contribution:      1.53658      -1.37256       0.27692
Nuclear contribution   :     -2.11719       1.46204       0.08910
                        -----------------------------------------
Total Dipole Moment    :     -0.58061       0.08947       0.36602
                        -----------------------------------------
Magnitude (a.u.)       :      0.69216
Magnitude (Debye)      :      1.75933

Rotational constants in cm-1:     4.339773     0.803215     0.778991
Rotational constants in MHz : 130103.124568 24079.771208 23353.570006

                             ****ORCA TERMINATED NORMALLY****
TOTAL RUN TIME: 0 days 0 hours 1 minutes 4 seconds 616 msec
