                         Program Version 4.1.2  - RELEASE  -
|  1> #Run DFT-D3 single point of the dimer
|  2> ! wB97X-D3 def2-TZVP TIGHTSCF CHELPG PMODEL PAL8
|  3>
|  4> %base "2-171_DFT_AB"
|  5>
|  6> %scf
|  7> MaxIter 1000
|  8> end
|  9>
| 10> * xyz 0 1
| 11>   C                      -5.024703            -0.475523            -9.681912
| 12>   O                      -5.610899            -0.556094            -8.404248
| 13>   H                      -6.295084            0.138355             -8.425728
| 14>   H                      -5.727918            -0.348094            -10.497416
| 15>   H                      -4.225119            0.281107             -9.772922
| 16>   H                      -4.465926            -1.431594            -9.972453
| 17>   C                      -2.866709            -1.732096            -7.792511
| 18>   O                      -1.882492            -0.847643            -8.037824
| 19>   H                      -2.306953            -0.201311            -8.558337
| 20>   H                      -2.673539            -2.573280            -7.102756
| 21>   H                      -3.749176            -1.283830            -7.288081
| 22>   H                      -3.200218            -2.183942            -8.691541
| 23> *
| 24>
| 25> #Run DFT-D3 single point of the molecule with dimer basis set
| 26> $new_job
| 27> %base "2-171_DFT_A"
| 28> ! wB97X-D3 def2-TZVP TIGHTSCF CHELPG PMODEL
| 29>
| 30> %scf
| 31> MaxIter 1000
| 32> end
| 33>
| 34> * xyz 0 1
| 35>   C                      -5.024703            -0.475523            -9.681912
| 36>   O                      -5.610899            -0.556094            -8.404248
| 37>   H                      -6.295084            0.138355             -8.425728
| 38>   H                      -5.727918            -0.348094            -10.497416
| 39>   H                      -4.225119            0.281107             -9.772922
| 40>   H                      -4.465926            -1.431594            -9.972453
| 41>   C                    : -2.866709            -1.732096            -7.792511
| 42>   O                    : -1.882492            -0.847643            -8.037824
| 43>   H                    : -2.306953            -0.201311            -8.558337
| 44>   H                    : -2.673539            -2.573280            -7.102756
| 45>   H                    : -3.749176            -1.283830            -7.288081
| 46>   H                    : -3.200218            -2.183942            -8.691541
| 47> *
| 48>
| 49> #Run DFT-D3 single point of the particle with dimer basis set
| 50> $new_job
| 51> %base "2-171_DFT_B"
| 52> ! wB97X-D3 def2-TZVP TIGHTSCF CHELPG PMODEL
| 53>
| 54> %scf
| 55> MaxIter 1000
| 56> end
| 57>
| 58> * xyz 0 1
| 59>   C                    : -5.024703            -0.475523            -9.681912
| 60>   O                    : -5.610899            -0.556094            -8.404248
| 61>   H                    : -6.295084            0.138355             -8.425728
| 62>   H                    : -5.727918            -0.348094            -10.497416
| 63>   H                    : -4.225119            0.281107             -9.772922
| 64>   H                    : -4.465926            -1.431594            -9.972453
| 65>   C                      -2.866709            -1.732096            -7.792511
| 66>   O                      -1.882492            -0.847643            -8.037824
| 67>   H                      -2.306953            -0.201311            -8.558337
| 68>   H                      -2.673539            -2.573280            -7.102756
| 69>   H                      -3.749176            -1.283830            -7.288081
| 70>   H                      -3.200218            -2.183942            -8.691541
| 71> *
| 72>
| 73>                          ****END OF INPUT****
 Total Charge           Charge          ....    0
 Multiplicity           Mult            ....    1
 Number of Electrons    NEL             ....   36
Dispersion correction           -0.002407771
FINAL SINGLE POINT ENERGY      -231.457035103068
Dispersion correction           -0.000255476
FINAL SINGLE POINT ENERGY      -115.732628841605

CARTESIAN COORDINATES (ANGSTROEM)
---------------------------------
  C     -5.024703   -0.475523   -9.681912
  O     -5.610899   -0.556094   -8.404248
  H     -6.295084    0.138355   -8.425728
  H     -5.727918   -0.348094  -10.497416
  H     -4.225119    0.281107   -9.772922
  H     -4.465926   -1.431594   -9.972453
  C     -2.866709   -1.732096   -7.792511
  O     -1.882492   -0.847643   -8.037824
  H     -2.306953   -0.201311   -8.558337
  H     -2.673539   -2.573280   -7.102756
  H     -3.749176   -1.283830   -7.288081
  H     -3.200218   -2.183942   -8.691541

 Multiplicity           Mult            ....    1
 Number of Electrons    NEL             ....   18
 Basis Dimension        Dim             ....  172

ORBITAL ENERGIES
----------------

  NO   OCC          E(Eh)            E(eV)
   0   2.0000     -19.232147      -523.3333
   1   2.0000     -10.306733      -280.4605
   2   2.0000      -1.170537       -31.8519
   3   2.0000      -0.795725       -21.6528
   4   2.0000      -0.628885       -17.1128
   5   2.0000      -0.556446       -15.1417
   6   2.0000      -0.539865       -14.6905
   7   2.0000      -0.427319       -11.6279
   8   2.0000      -0.373134       -10.1535
   9   0.0000       0.075486         2.0541
  10   0.0000       0.134431         3.6581
  11   0.0000       0.152532         4.1506
  12   0.0000       0.159632         4.3438
  13   0.0000       0.200553         5.4573

MULLIKEN ATOMIC CHARGES
-----------------------
   0 C :   -0.000095
   1 O :   -0.001026
   2 H :   -0.000424
   3 H :    0.000233
   4 H :   -0.001655
   5 H :   -0.000429
   6 C :   -0.160331
   7 O :   -0.440942
   8 H :    0.316165
   9 H :    0.115700
  10 H :    0.085494
  11 H :    0.087311
Sum of atomic charges:   -0.0000000

LOEWDIN ATOMIC CHARGES
----------------------
   0 C :   -0.021977
   1 O :   -0.014000
   2 H :   -0.000745
   3 H :   -0.000165
   4 H :   -0.002782
   5 H :   -0.011796
   6 C :   -0.425426
   7 O :   -0.000959
   8 H :    0.165115
   9 H :    0.110783
  10 H :    0.105873
  11 H :    0.096078

  Mayer bond orders larger than 0.1
B(  6-C ,  7-O ) :   1.0121 B(  6-C ,  9-H ) :   0.9658 B(  6-C , 10-H ) :   0.9861
B(  6-C , 11-H ) :   0.9858 B(  7-O ,  8-H ) :   0.9060

Dispersion correction           -0.000204652
FINAL SINGLE POINT ENERGY      -115.727127687941

DIPOLE MOMENT
-------------
                                X             Y             Z
Electronic contribution:      1.61283       1.17756      -0.31381
Nuclear contribution   :     -2.21646      -1.08842       0.07206
                        -----------------------------------------
Total Dipole Moment    :     -0.60362       0.08914      -0.24175
                        -----------------------------------------
Magnitude (a.u.)       :      0.65631
Magnitude (Debye)      :      1.66822

Rotational constants in cm-1:     4.526184     0.891178     0.863008
Rotational constants in MHz : 135691.585785 26716.849009 25872.319184

                             ****ORCA TERMINATED NORMALLY****
TOTAL RUN TIME: 0 days 0 hours 6 minutes 26 seconds 925 msec
