                         Program Version 4.1.2  - RELEASE  -
|  1> #Run DFT-D3 single point of the dimer
|  2> ! wB97X-D3 def2-TZVP TIGHTSCF CHELPG PMODEL PAL8
|  3>
|  4> %base "18-132_DFT_AB"
|  5>
|  6> %scf
|  7> MaxIter 1000
|  8> end
|  9>
| 10> * xyz 0 1
| 11>   C                      8.975860             6.983749             0.416720
| 12>   O                      8.086384             7.854023             -0.264035
| 13>   H                      8.109435             8.661414             0.109359
| 14>   H                      8.587323             5.946020             0.290470
| 15>   H                      9.905775             7.007106             -0.095493
| 16>   H                      9.124228             7.255210             1.408441
| 17>   C                      5.638624             6.367757             -2.213332
| 18>   O                      6.093119             5.789280             -1.037597
| 19>   H                      6.847326             6.324056             -0.734142
| 20>   H                      6.284579             6.177200             -3.036976
| 21>   H                      4.635614             6.023966             -2.427776
| 22>   H                      5.511094             7.430852             -2.117926
| 23> *
| 24>
| 25> #Run DFT-D3 single point of the molecule with dimer basis set
| 26> $new_job
| 27> %base "18-132_DFT_A"
| 28> ! wB97X-D3 def2-TZVP TIGHTSCF CHELPG PMODEL
| 29>
| 30> %scf
| 31> MaxIter 1000
| 32> end
| 33>
| 34> * xyz 0 1
| 35>   C                      8.975860             6.983749             0.416720
| 36>   O                      8.086384             7.854023             -0.264035
| 37>   H                      8.109435             8.661414             0.109359
| 38>   H                      8.587323             5.946020             0.290470
| 39>   H                      9.905775             7.007106             -0.095493
| 40>   H                      9.124228             7.255210             1.408441
| 41>   C                    : 5.638624             6.367757             -2.213332
| 42>   O                    : 6.093119             5.789280             -1.037597
| 43>   H                    : 6.847326             6.324056             -0.734142
| 44>   H                    : 6.284579             6.177200             -3.036976
| 45>   H                    : 4.635614             6.023966             -2.427776
| 46>   H                    : 5.511094             7.430852             -2.117926
| 47> *
| 48>
| 49> #Run DFT-D3 single point of the particle with dimer basis set
| 50> $new_job
| 51> %base "18-132_DFT_B"
| 52> ! wB97X-D3 def2-TZVP TIGHTSCF CHELPG PMODEL
| 53>
| 54> %scf
| 55> MaxIter 1000
| 56> end
| 57>
| 58> * xyz 0 1
| 59>   C                    : 8.975860             6.983749             0.416720
| 60>   O                    : 8.086384             7.854023             -0.264035
| 61>   H                    : 8.109435             8.661414             0.109359
| 62>   H                    : 8.587323             5.946020             0.290470
| 63>   H                    : 9.905775             7.007106             -0.095493
| 64>   H                    : 9.124228             7.255210             1.408441
| 65>   C                      5.638624             6.367757             -2.213332
| 66>   O                      6.093119             5.789280             -1.037597
| 67>   H                      6.847326             6.324056             -0.734142
| 68>   H                      6.284579             6.177200             -3.036976
| 69>   H                      4.635614             6.023966             -2.427776
| 70>   H                      5.511094             7.430852             -2.117926
| 71> *
| 72>
| 73>                          ****END OF INPUT****
 Total Charge           Charge          ....    0
 Multiplicity           Mult            ....    1
 Number of Electrons    NEL             ....   36
Dispersion correction           -0.001824657
FINAL SINGLE POINT ENERGY      -231.469772057076
Dispersion correction           -0.000223001
FINAL SINGLE POINT ENERGY      -115.727788997230

CARTESIAN COORDINATES (ANGSTROEM)
---------------------------------
  C      8.975860    6.983749    0.416720
  O      8.086384    7.854023   -0.264035
  H      8.109435    8.661414    0.109359
  H      8.587323    5.946020    0.290470
  H      9.905775    7.007106   -0.095493
  H      9.124228    7.255210    1.408441
  C      5.638624    6.367757   -2.213332
  O      6.093119    5.789280   -1.037597
  H      6.847326    6.324056   -0.734142
  H      6.284579    6.177200   -3.036976
  H      4.635614    6.023966   -2.427776
  H      5.511094    7.430852   -2.117926

 Multiplicity           Mult            ....    1
 Number of Electrons    NEL             ....   18
 Basis Dimension        Dim             ....  172

ORBITAL ENERGIES
----------------

  NO   OCC          E(Eh)            E(eV)
   0   2.0000     -19.231798      -523.3238
   1   2.0000     -10.303109      -280.3619
   2   2.0000      -1.143241       -31.1092
   3   2.0000      -0.797693       -21.7063
   4   2.0000      -0.615907       -16.7597
   5   2.0000      -0.552561       -15.0360
   6   2.0000      -0.528951       -14.3935
   7   2.0000      -0.431575       -11.7438
   8   2.0000      -0.374532       -10.1915
   9   0.0000       0.070094         1.9074
  10   0.0000       0.134925         3.6715
  11   0.0000       0.157757         4.2928
  12   0.0000       0.165437         4.5018
  13   0.0000       0.196359         5.3432

MULLIKEN ATOMIC CHARGES
-----------------------
   0 C :   -0.002481
   1 O :   -0.002790
   2 H :   -0.000278
   3 H :   -0.002908
   4 H :    0.000594
   5 H :    0.000061
   6 C :   -0.157877
   7 O :   -0.465508
   8 H :    0.316655
   9 H :    0.100870
  10 H :    0.112467
  11 H :    0.101196
Sum of atomic charges:   -0.0000000

LOEWDIN ATOMIC CHARGES
----------------------
   0 C :   -0.009921
   1 O :   -0.014389
   2 H :   -0.000728
   3 H :   -0.005143
   4 H :   -0.000136
   5 H :   -0.000156
   6 C :   -0.400221
   7 O :   -0.048072
   8 H :    0.190982
   9 H :    0.088682
  10 H :    0.107018
  11 H :    0.092084

  Mayer bond orders larger than 0.1
B(  6-C ,  7-O ) :   0.9966 B(  6-C ,  9-H ) :   0.9755 B(  6-C , 10-H ) :   0.9748
B(  6-C , 11-H ) :   0.9833 B(  7-O ,  8-H ) :   0.9051

Dispersion correction           -0.000218739
FINAL SINGLE POINT ENERGY      -115.735231482814

DIPOLE MOMENT
-------------
                                X             Y             Z
Electronic contribution:      0.53176      -0.90775       1.49340
Nuclear contribution   :     -0.25473       1.47722      -1.75461
                        -----------------------------------------
Total Dipole Moment    :      0.27703       0.56947      -0.26120
                        -----------------------------------------
Magnitude (a.u.)       :      0.68503
Magnitude (Debye)      :      1.74122

Rotational constants in cm-1:     4.420602     0.860194     0.830298
Rotational constants in MHz : 132526.302907 25787.968156 24891.696570

                             ****ORCA TERMINATED NORMALLY****
TOTAL RUN TIME: 0 days 0 hours 1 minutes 2 seconds 229 msec
