                         Program Version 4.1.2  - RELEASE  -
|  1> #Run DFT-D3 single point of the dimer
|  2> ! wB97X-D3 def2-TZVP TIGHTSCF CHELPG PMODEL PAL8
|  3>
|  4> %base "1-92_DFT_AB"
|  5>
|  6> %scf
|  7> MaxIter 1000
|  8> end
|  9>
| 10> * xyz 0 1
| 11>   C                      -7.546642            5.310844             -2.485952
| 12>   O                      -6.537382            4.702897             -1.704250
| 13>   H                      -6.634103            3.799627             -2.072274
| 14>   H                      -7.343214            5.297082             -3.570693
| 15>   H                      -8.497672            4.889586             -2.433377
| 16>   H                      -7.670592            6.410111             -2.234567
| 17>   C                      -9.593795            6.421997             1.860807
| 18>   O                      -8.919152            7.603379             1.407641
| 19>   H                      -8.969946            8.183983             2.182862
| 20>   H                      -10.596336           6.613754             2.209113
| 21>   H                      -9.696216            5.722641             1.078866
| 22>   H                      -8.993842            5.906567             2.658352
| 23> *
| 24>
| 25> #Run DFT-D3 single point of the molecule with dimer basis set
| 26> $new_job
| 27> %base "1-92_DFT_A"
| 28> ! wB97X-D3 def2-TZVP TIGHTSCF CHELPG PMODEL
| 29>
| 30> %scf
| 31> MaxIter 1000
| 32> end
| 33>
| 34> * xyz 0 1
| 35>   C                      -7.546642            5.310844             -2.485952
| 36>   O                      -6.537382            4.702897             -1.704250
| 37>   H                      -6.634103            3.799627             -2.072274
| 38>   H                      -7.343214            5.297082             -3.570693
| 39>   H                      -8.497672            4.889586             -2.433377
| 40>   H                      -7.670592            6.410111             -2.234567
| 41>   C                    : -9.593795            6.421997             1.860807
| 42>   O                    : -8.919152            7.603379             1.407641
| 43>   H                    : -8.969946            8.183983             2.182862
| 44>   H                    : -10.596336           6.613754             2.209113
| 45>   H                    : -9.696216            5.722641             1.078866
| 46>   H                    : -8.993842            5.906567             2.658352
| 47> *
| 48>
| 49> #Run DFT-D3 single point of the particle with dimer basis set
| 50> $new_job
| 51> %base "1-92_DFT_B"
| 52> ! wB97X-D3 def2-TZVP TIGHTSCF CHELPG PMODEL
| 53>
| 54> %scf
| 55> MaxIter 1000
| 56> end
| 57>
| 58> * xyz 0 1
| 59>   C                    : -7.546642            5.310844             -2.485952
| 60>   O                    : -6.537382            4.702897             -1.704250
| 61>   H                    : -6.634103            3.799627             -2.072274
| 62>   H                    : -7.343214            5.297082             -3.570693
| 63>   H                    : -8.497672            4.889586             -2.433377
| 64>   H                    : -7.670592            6.410111             -2.234567
| 65>   C                      -9.593795            6.421997             1.860807
| 66>   O                      -8.919152            7.603379             1.407641
| 67>   H                      -8.969946            8.183983             2.182862
| 68>   H                      -10.596336           6.613754             2.209113
| 69>   H                      -9.696216            5.722641             1.078866
| 70>   H                      -8.993842            5.906567             2.658352
| 71> *
| 72>
| 73>                          ****END OF INPUT****
 Total Charge           Charge          ....    0
 Multiplicity           Mult            ....    1
 Number of Electrons    NEL             ....   36
Dispersion correction           -0.000863161
FINAL SINGLE POINT ENERGY      -231.462425282562
Dispersion correction           -0.000227655
FINAL SINGLE POINT ENERGY      -115.728003510600

CARTESIAN COORDINATES (ANGSTROEM)
---------------------------------
  C     -7.546642    5.310844   -2.485952
  O     -6.537382    4.702897   -1.704250
  H     -6.634103    3.799627   -2.072274
  H     -7.343214    5.297082   -3.570693
  H     -8.497672    4.889586   -2.433377
  H     -7.670592    6.410111   -2.234567
  C     -9.593795    6.421997    1.860807
  O     -8.919152    7.603379    1.407641
  H     -8.969946    8.183983    2.182862
  H    -10.596336    6.613754    2.209113
  H     -9.696216    5.722641    1.078866
  H     -8.993842    5.906567    2.658352

 Multiplicity           Mult            ....    1
 Number of Electrons    NEL             ....   18
 Basis Dimension        Dim             ....  172

ORBITAL ENERGIES
----------------

  NO   OCC          E(Eh)            E(eV)
   0   2.0000     -19.233407      -523.3676
   1   2.0000     -10.311776      -280.5977
   2   2.0000      -1.131947       -30.8018
   3   2.0000      -0.797124       -21.6908
   4   2.0000      -0.603642       -16.4259
   5   2.0000      -0.541217       -14.7273
   6   2.0000      -0.527890       -14.3646
   7   2.0000      -0.440635       -11.9903
   8   2.0000      -0.375616       -10.2210
   9   0.0000       0.089498         2.4354
  10   0.0000       0.116098         3.1592
  11   0.0000       0.153143         4.1672
  12   0.0000       0.172028         4.6811
  13   0.0000       0.186906         5.0860

MULLIKEN ATOMIC CHARGES
-----------------------
   0 C :    0.000347
   1 O :   -0.000012
   2 H :   -0.000007
   3 H :   -0.000014
   4 H :   -0.000174
   5 H :   -0.000648
   6 C :   -0.173453
   7 O :   -0.468472
   8 H :    0.314163
   9 H :    0.105692
  10 H :    0.122415
  11 H :    0.100162
Sum of atomic charges:   -0.0000000

LOEWDIN ATOMIC CHARGES
----------------------
   0 C :   -0.000139
   1 O :   -0.000008
   2 H :   -0.000002
   3 H :   -0.000003
   4 H :   -0.000067
   5 H :   -0.000211
   6 C :   -0.373553
   7 O :   -0.093331
   8 H :    0.175824
   9 H :    0.092173
  10 H :    0.098067
  11 H :    0.101251

  Mayer bond orders larger than 0.1
B(  6-C ,  7-O ) :   1.0015 B(  6-C ,  9-H ) :   0.9749 B(  6-C , 10-H ) :   0.9754
B(  6-C , 11-H ) :   0.9774 B(  7-O ,  8-H ) :   0.9020

Dispersion correction           -0.000236163
FINAL SINGLE POINT ENERGY      -115.734243301633

DIPOLE MOMENT
-------------
                                X             Y             Z
Electronic contribution:      0.84624       1.47849      -0.77398
Nuclear contribution   :     -1.16173      -1.59921       1.40803
                        -----------------------------------------
Total Dipole Moment    :     -0.31548      -0.12072       0.63405
                        -----------------------------------------
Magnitude (a.u.)       :      0.71842
Magnitude (Debye)      :      1.82607

Rotational constants in cm-1:     4.306959     0.813509     0.790399
Rotational constants in MHz : 129119.391846 24388.399807 23695.559448

                             ****ORCA TERMINATED NORMALLY****
TOTAL RUN TIME: 0 days 0 hours 4 minutes 46 seconds 451 msec
