                         Program Version 4.1.2  - RELEASE  -
|  1> #Run DFT-D3 single point of the dimer
|  2> ! wB97X-D3 def2-TZVP TIGHTSCF CHELPG PMODEL PAL8
|  3>
|  4> %base "14-196_DFT_AB"
|  5>
|  6> %scf
|  7> MaxIter 1000
|  8> end
|  9>
| 10> * xyz 0 1
| 11>   C                      -11.198574           2.196297             -8.663899
| 12>   O                      -9.934511            2.627828             -9.106042
| 13>   H                      -9.437128            2.008321             -9.679980
| 14>   H                      -11.242939           1.426187             -7.873173
| 15>   H                      -11.747869           3.026897             -8.234249
| 16>   H                      -11.859639           1.793048             -9.379719
| 17>   C                      -10.706522           6.481199             -10.450285
| 18>   O                      -10.367520           5.533214             -9.410338
| 19>   H                      -10.340371           4.603225             -9.772060
| 20>   H                      -10.510110           7.522585             -10.104017
| 21>   H                      -10.092340           6.379709             -11.337776
| 22>   H                      -11.765790           6.426384             -10.878272
| 23> *
| 24>
| 25> #Run DFT-D3 single point of the molecule with dimer basis set
| 26> $new_job
| 27> %base "14-196_DFT_A"
| 28> ! wB97X-D3 def2-TZVP TIGHTSCF CHELPG PMODEL
| 29>
| 30> %scf
| 31> MaxIter 1000
| 32> end
| 33>
| 34> * xyz 0 1
| 35>   C                      -11.198574           2.196297             -8.663899
| 36>   O                      -9.934511            2.627828             -9.106042
| 37>   H                      -9.437128            2.008321             -9.679980
| 38>   H                      -11.242939           1.426187             -7.873173
| 39>   H                      -11.747869           3.026897             -8.234249
| 40>   H                      -11.859639           1.793048             -9.379719
| 41>   C                    : -10.706522           6.481199             -10.450285
| 42>   O                    : -10.367520           5.533214             -9.410338
| 43>   H                    : -10.340371           4.603225             -9.772060
| 44>   H                    : -10.510110           7.522585             -10.104017
| 45>   H                    : -10.092340           6.379709             -11.337776
| 46>   H                    : -11.765790           6.426384             -10.878272
| 47> *
| 48>
| 49> #Run DFT-D3 single point of the particle with dimer basis set
| 50> $new_job
| 51> %base "14-196_DFT_B"
| 52> ! wB97X-D3 def2-TZVP TIGHTSCF CHELPG PMODEL
| 53>
| 54> %scf
| 55> MaxIter 1000
| 56> end
| 57>
| 58> * xyz 0 1
| 59>   C                    : -11.198574           2.196297             -8.663899
| 60>   O                    : -9.934511            2.627828             -9.106042
| 61>   H                    : -9.437128            2.008321             -9.679980
| 62>   H                    : -11.242939           1.426187             -7.873173
| 63>   H                    : -11.747869           3.026897             -8.234249
| 64>   H                    : -11.859639           1.793048             -9.379719
| 65>   C                      -10.706522           6.481199             -10.450285
| 66>   O                      -10.367520           5.533214             -9.410338
| 67>   H                      -10.340371           4.603225             -9.772060
| 68>   H                      -10.510110           7.522585             -10.104017
| 69>   H                      -10.092340           6.379709             -11.337776
| 70>   H                      -11.765790           6.426384             -10.878272
| 71> *
| 72>
| 73>                          ****END OF INPUT****
 Total Charge           Charge          ....    0
 Multiplicity           Mult            ....    1
 Number of Electrons    NEL             ....   36
Dispersion correction           -0.001654390
FINAL SINGLE POINT ENERGY      -231.467489351059
Dispersion correction           -0.000286011
FINAL SINGLE POINT ENERGY      -115.730654225607

CARTESIAN COORDINATES (ANGSTROEM)
---------------------------------
  C    -11.198574    2.196297   -8.663899
  O     -9.934511    2.627828   -9.106042
  H     -9.437128    2.008321   -9.679980
  H    -11.242939    1.426187   -7.873173
  H    -11.747869    3.026897   -8.234249
  H    -11.859639    1.793048   -9.379719
  C    -10.706522    6.481199  -10.450285
  O    -10.367520    5.533214   -9.410338
  H    -10.340371    4.603225   -9.772060
  H    -10.510110    7.522585  -10.104017
  H    -10.092340    6.379709  -11.337776
  H    -11.765790    6.426384  -10.878272

 Multiplicity           Mult            ....    1
 Number of Electrons    NEL             ....   18
 Basis Dimension        Dim             ....  172

ORBITAL ENERGIES
----------------

  NO   OCC          E(Eh)            E(eV)
   0   2.0000     -19.238432      -523.5043
   1   2.0000     -10.323129      -280.9066
   2   2.0000      -1.120077       -30.4788
   3   2.0000      -0.793067       -21.5804
   4   2.0000      -0.605901       -16.4874
   5   2.0000      -0.526848       -14.3363
   6   2.0000      -0.520712       -14.1693
   7   2.0000      -0.434653       -11.8275
   8   2.0000      -0.375211       -10.2100
   9   0.0000       0.073251         1.9933
  10   0.0000       0.129546         3.5251
  11   0.0000       0.144985         3.9452
  12   0.0000       0.164119         4.4659
  13   0.0000       0.197847         5.3837

MULLIKEN ATOMIC CHARGES
-----------------------
   0 C :   -0.002149
   1 O :    0.000922
   2 H :   -0.000092
   3 H :   -0.000411
   4 H :   -0.003862
   5 H :    0.000430
   6 C :   -0.178432
   7 O :   -0.472307
   8 H :    0.315759
   9 H :    0.126145
  10 H :    0.111982
  11 H :    0.102016
Sum of atomic charges:    0.0000000

LOEWDIN ATOMIC CHARGES
----------------------
   0 C :   -0.007049
   1 O :   -0.010936
   2 H :   -0.000793
   3 H :   -0.000118
   4 H :   -0.003103
   5 H :   -0.000138
   6 C :   -0.377665
   7 O :   -0.103820
   8 H :    0.196033
   9 H :    0.113553
  10 H :    0.091661
  11 H :    0.102375

  Mayer bond orders larger than 0.1
B(  6-C ,  7-O ) :   1.0024 B(  6-C ,  9-H ) :   0.9724 B(  6-C , 10-H ) :   0.9758
B(  6-C , 11-H ) :   0.9655 B(  7-O ,  8-H ) :   0.8933

Dispersion correction           -0.000295584
FINAL SINGLE POINT ENERGY      -115.730984726598

DIPOLE MOMENT
-------------
                                X             Y             Z
Electronic contribution:      0.45496      -1.13499       1.50977
Nuclear contribution   :     -0.53641       0.95546      -2.17943
                        -----------------------------------------
Total Dipole Moment    :     -0.08146      -0.17953      -0.66966
                        -----------------------------------------
Magnitude (a.u.)       :      0.69808
Magnitude (Debye)      :      1.77438

Rotational constants in cm-1:     4.268836     0.781760     0.751303
Rotational constants in MHz : 127976.496695 23436.563352 22523.492968

                             ****ORCA TERMINATED NORMALLY****
TOTAL RUN TIME: 0 days 0 hours 1 minutes 9 seconds 35 msec
