                         Program Version 4.1.2  - RELEASE  -
|  1> #Run DFT-D3 single point of the dimer
|  2> ! wB97X-D3 def2-TZVP TIGHTSCF CHELPG PMODEL PAL8
|  3>
|  4> %base "14-223_DFT_AB"
|  5>
|  6> %scf
|  7> MaxIter 1000
|  8> end
|  9>
| 10> * xyz 0 1
| 11>   C                      0.387438             7.211846             -3.550846
| 12>   O                      1.792564             7.463747             -3.620765
| 13>   H                      2.049877             7.318178             -2.693924
| 14>   H                      0.212305             6.111345             -3.715045
| 15>   H                      -0.024939            7.621403             -2.647262
| 16>   H                      -0.201617            7.672835             -4.356984
| 17>   C                      2.863150             7.744078             -6.929804
| 18>   O                      2.217452             6.588471             -6.509607
| 19>   H                      1.930361             6.680088             -5.611710
| 20>   H                      3.641672             7.552157             -7.665934
| 21>   H                      2.103435             8.484738             -7.333405
| 22>   H                      3.349563             8.173691             -6.102497
| 23> *
| 24>
| 25> #Run DFT-D3 single point of the molecule with dimer basis set
| 26> $new_job
| 27> %base "14-223_DFT_A"
| 28> ! wB97X-D3 def2-TZVP TIGHTSCF CHELPG PMODEL
| 29>
| 30> %scf
| 31> MaxIter 1000
| 32> end
| 33>
| 34> * xyz 0 1
| 35>   C                      0.387438             7.211846             -3.550846
| 36>   O                      1.792564             7.463747             -3.620765
| 37>   H                      2.049877             7.318178             -2.693924
| 38>   H                      0.212305             6.111345             -3.715045
| 39>   H                      -0.024939            7.621403             -2.647262
| 40>   H                      -0.201617            7.672835             -4.356984
| 41>   C                    : 2.863150             7.744078             -6.929804
| 42>   O                    : 2.217452             6.588471             -6.509607
| 43>   H                    : 1.930361             6.680088             -5.611710
| 44>   H                    : 3.641672             7.552157             -7.665934
| 45>   H                    : 2.103435             8.484738             -7.333405
| 46>   H                    : 3.349563             8.173691             -6.102497
| 47> *
| 48>
| 49> #Run DFT-D3 single point of the particle with dimer basis set
| 50> $new_job
| 51> %base "14-223_DFT_B"
| 52> ! wB97X-D3 def2-TZVP TIGHTSCF CHELPG PMODEL
| 53>
| 54> %scf
| 55> MaxIter 1000
| 56> end
| 57>
| 58> * xyz 0 1
| 59>   C                    : 0.387438             7.211846             -3.550846
| 60>   O                    : 1.792564             7.463747             -3.620765
| 61>   H                    : 2.049877             7.318178             -2.693924
| 62>   H                    : 0.212305             6.111345             -3.715045
| 63>   H                    : -0.024939            7.621403             -2.647262
| 64>   H                    : -0.201617            7.672835             -4.356984
| 65>   C                      2.863150             7.744078             -6.929804
| 66>   O                      2.217452             6.588471             -6.509607
| 67>   H                      1.930361             6.680088             -5.611710
| 68>   H                      3.641672             7.552157             -7.665934
| 69>   H                      2.103435             8.484738             -7.333405
| 70>   H                      3.349563             8.173691             -6.102497
| 71> *
| 72>
| 73>                          ****END OF INPUT****
 Total Charge           Charge          ....    0
 Multiplicity           Mult            ....    1
 Number of Electrons    NEL             ....   36
Dispersion correction           -0.001896815
FINAL SINGLE POINT ENERGY      -231.471145661359
Dispersion correction           -0.000236749
FINAL SINGLE POINT ENERGY      -115.731460856202

CARTESIAN COORDINATES (ANGSTROEM)
---------------------------------
  C      0.387438    7.211846   -3.550846
  O      1.792564    7.463747   -3.620765
  H      2.049877    7.318178   -2.693924
  H      0.212305    6.111345   -3.715045
  H     -0.024939    7.621403   -2.647262
  H     -0.201617    7.672835   -4.356984
  C      2.863150    7.744078   -6.929804
  O      2.217452    6.588471   -6.509607
  H      1.930361    6.680088   -5.611710
  H      3.641672    7.552157   -7.665934
  H      2.103435    8.484738   -7.333405
  H      3.349563    8.173691   -6.102497

 Multiplicity           Mult            ....    1
 Number of Electrons    NEL             ....   18
 Basis Dimension        Dim             ....  172

ORBITAL ENERGIES
----------------

  NO   OCC          E(Eh)            E(eV)
   0   2.0000     -19.227065      -523.1950
   1   2.0000     -10.310129      -280.5529
   2   2.0000      -1.145271       -31.1644
   3   2.0000      -0.797041       -21.6886
   4   2.0000      -0.619263       -16.8510
   5   2.0000      -0.543960       -14.8019
   6   2.0000      -0.534668       -14.5490
   7   2.0000      -0.428425       -11.6580
   8   2.0000      -0.371640       -10.1128
   9   0.0000       0.069153         1.8817
  10   0.0000       0.136123         3.7041
  11   0.0000       0.154192         4.1958
  12   0.0000       0.157795         4.2938
  13   0.0000       0.192453         5.2369

MULLIKEN ATOMIC CHARGES
-----------------------
   0 C :   -0.005037
   1 O :   -0.002593
   2 H :   -0.000208
   3 H :    0.000719
   4 H :   -0.000303
   5 H :   -0.000566
   6 C :   -0.155765
   7 O :   -0.468658
   8 H :    0.313555
   9 H :    0.119362
  10 H :    0.094408
  11 H :    0.105086
Sum of atomic charges:    0.0000000

LOEWDIN ATOMIC CHARGES
----------------------
   0 C :   -0.008470
   1 O :   -0.010398
   2 H :   -0.000405
   3 H :   -0.000698
   4 H :   -0.000159
   5 H :   -0.001196
   6 C :   -0.396224
   7 O :   -0.044313
   8 H :    0.166739
   9 H :    0.105616
  10 H :    0.102429
  11 H :    0.087078

  Mayer bond orders larger than 0.1
B(  6-C ,  7-O ) :   0.9880 B(  6-C ,  9-H ) :   0.9730 B(  6-C , 10-H ) :   0.9740
B(  6-C , 11-H ) :   0.9874 B(  7-O ,  8-H ) :   0.9110

Dispersion correction           -0.000228216
FINAL SINGLE POINT ENERGY      -115.733081900833

DIPOLE MOMENT
-------------
                                X             Y             Z
Electronic contribution:     -0.74817      -1.58606       0.40273
Nuclear contribution   :      0.85465       2.08660       0.04006
                        -----------------------------------------
Total Dipole Moment    :      0.10648       0.50054       0.44279
                        -----------------------------------------
Magnitude (a.u.)       :      0.67671
Magnitude (Debye)      :      1.72006

Rotational constants in cm-1:     4.347937     0.851453     0.830442
Rotational constants in MHz : 130347.878909 25525.912113 24896.029498

                             ****ORCA TERMINATED NORMALLY****
TOTAL RUN TIME: 0 days 0 hours 1 minutes 9 seconds 939 msec
