                         Program Version 4.1.2  - RELEASE  -
|  1> #Run DFT-D3 single point of the dimer
|  2> ! wB97X-D3 def2-TZVP TIGHTSCF CHELPG PMODEL PAL8
|  3>
|  4> %base "14-169_DFT_AB"
|  5>
|  6> %scf
|  7> MaxIter 1000
|  8> end
|  9>
| 10> * xyz 0 1
| 11>   C                      -2.110928            11.390825            7.574175
| 12>   O                      -1.303257            10.316187            7.707575
| 13>   H                      -1.872668            9.562282             7.848446
| 14>   H                      -1.498166            12.268386            7.471384
| 15>   H                      -2.755923            11.272451            6.697372
| 16>   H                      -2.764465            11.399083            8.410064
| 17>   C                      0.420741             10.623479            11.305474
| 18>   O                      0.797643             9.738341             10.295396
| 19>   H                      0.225182             9.836223             9.508148
| 20>   H                      0.955184             10.412358            12.187692
| 21>   H                      0.691266             11.632230            10.996081
| 22>   H                      -0.674842            10.649295            11.323613
| 23> *
| 24>
| 25> #Run DFT-D3 single point of the molecule with dimer basis set
| 26> $new_job
| 27> %base "14-169_DFT_A"
| 28> ! wB97X-D3 def2-TZVP TIGHTSCF CHELPG PMODEL
| 29>
| 30> %scf
| 31> MaxIter 1000
| 32> end
| 33>
| 34> * xyz 0 1
| 35>   C                      -2.110928            11.390825            7.574175
| 36>   O                      -1.303257            10.316187            7.707575
| 37>   H                      -1.872668            9.562282             7.848446
| 38>   H                      -1.498166            12.268386            7.471384
| 39>   H                      -2.755923            11.272451            6.697372
| 40>   H                      -2.764465            11.399083            8.410064
| 41>   C                    : 0.420741             10.623479            11.305474
| 42>   O                    : 0.797643             9.738341             10.295396
| 43>   H                    : 0.225182             9.836223             9.508148
| 44>   H                    : 0.955184             10.412358            12.187692
| 45>   H                    : 0.691266             11.632230            10.996081
| 46>   H                    : -0.674842            10.649295            11.323613
| 47> *
| 48>
| 49> #Run DFT-D3 single point of the particle with dimer basis set
| 50> $new_job
| 51> %base "14-169_DFT_B"
| 52> ! wB97X-D3 def2-TZVP TIGHTSCF CHELPG PMODEL
| 53>
| 54> %scf
| 55> MaxIter 1000
| 56> end
| 57>
| 58> * xyz 0 1
| 59>   C                    : -2.110928            11.390825            7.574175
| 60>   O                    : -1.303257            10.316187            7.707575
| 61>   H                    : -1.872668            9.562282             7.848446
| 62>   H                    : -1.498166            12.268386            7.471384
| 63>   H                    : -2.755923            11.272451            6.697372
| 64>   H                    : -2.764465            11.399083            8.410064
| 65>   C                      0.420741             10.623479            11.305474
| 66>   O                      0.797643             9.738341             10.295396
| 67>   H                      0.225182             9.836223             9.508148
| 68>   H                      0.955184             10.412358            12.187692
| 69>   H                      0.691266             11.632230            10.996081
| 70>   H                      -0.674842            10.649295            11.323613
| 71> *
| 72>
| 73>                          ****END OF INPUT****
 Total Charge           Charge          ....    0
 Multiplicity           Mult            ....    1
 Number of Electrons    NEL             ....   36
Dispersion correction           -0.001497299
FINAL SINGLE POINT ENERGY      -231.467794545837
Dispersion correction           -0.000183336
FINAL SINGLE POINT ENERGY      -115.730917623786

CARTESIAN COORDINATES (ANGSTROEM)
---------------------------------
  C     -2.110928   11.390825    7.574175
  O     -1.303257   10.316187    7.707575
  H     -1.872668    9.562282    7.848446
  H     -1.498166   12.268386    7.471384
  H     -2.755923   11.272451    6.697372
  H     -2.764465   11.399083    8.410064
  C      0.420741   10.623479   11.305474
  O      0.797643    9.738341   10.295396
  H      0.225182    9.836223    9.508148
  H      0.955184   10.412358   12.187692
  H      0.691266   11.632230   10.996081
  H     -0.674842   10.649295   11.323613

 Multiplicity           Mult            ....    1
 Number of Electrons    NEL             ....   18
 Basis Dimension        Dim             ....  172

ORBITAL ENERGIES
----------------

  NO   OCC          E(Eh)            E(eV)
   0   2.0000     -19.225609      -523.1554
   1   2.0000     -10.307250      -280.4745
   2   2.0000      -1.135329       -30.8939
   3   2.0000      -0.796251       -21.6671
   4   2.0000      -0.613779       -16.7018
   5   2.0000      -0.545937       -14.8557
   6   2.0000      -0.532668       -14.4946
   7   2.0000      -0.432454       -11.7677
   8   2.0000      -0.363656        -9.8956
   9   0.0000       0.065660         1.7867
  10   0.0000       0.129178         3.5151
  11   0.0000       0.147773         4.0211
  12   0.0000       0.167811         4.5664
  13   0.0000       0.188706         5.1350

MULLIKEN ATOMIC CHARGES
-----------------------
   0 C :   -0.000994
   1 O :   -0.000646
   2 H :   -0.000469
   3 H :    0.000057
   4 H :   -0.000011
   5 H :    0.000022
   6 C :   -0.144488
   7 O :   -0.483094
   8 H :    0.313667
   9 H :    0.125995
  10 H :    0.090482
  11 H :    0.099478
Sum of atomic charges:    0.0000000

LOEWDIN ATOMIC CHARGES
----------------------
   0 C :   -0.001208
   1 O :   -0.005835
   2 H :   -0.001114
   3 H :   -0.000048
   4 H :   -0.000035
   5 H :   -0.000087
   6 C :   -0.387491
   7 O :   -0.074407
   8 H :    0.180568
   9 H :    0.100596
  10 H :    0.091981
  11 H :    0.097080

  Mayer bond orders larger than 0.1
B(  6-C ,  7-O ) :   0.9846 B(  6-C ,  9-H ) :   0.9715 B(  6-C , 10-H ) :   0.9810
B(  6-C , 11-H ) :   0.9860 B(  7-O ,  8-H ) :   0.9018

Dispersion correction           -0.000212448
FINAL SINGLE POINT ENERGY      -115.730853782233

DIPOLE MOMENT
-------------
                                X             Y             Z
Electronic contribution:      0.59898      -1.26389      -0.99489
Nuclear contribution   :     -1.10193       1.68166       0.89638
                        -----------------------------------------
Total Dipole Moment    :     -0.50295       0.41777      -0.09851
                        -----------------------------------------
Magnitude (a.u.)       :      0.66121
Magnitude (Debye)      :      1.68066

Rotational constants in cm-1:     4.294604     0.865720     0.820883
Rotational constants in MHz : 128748.975070 25953.623141 24609.445094

                             ****ORCA TERMINATED NORMALLY****
TOTAL RUN TIME: 0 days 0 hours 1 minutes 9 seconds 793 msec
