                         Program Version 4.1.2  - RELEASE  -
|  1> #Run DFT-D3 single point of the dimer
|  2> ! wB97X-D3 def2-TZVP TIGHTSCF CHELPG PMODEL PAL8
|  3>
|  4> %base "19-211_DFT_AB"
|  5>
|  6> %scf
|  7> MaxIter 1000
|  8> end
|  9>
| 10> * xyz 0 1
| 11>   C                      -1.171793            5.934240             5.579448
| 12>   O                      -0.309131            4.850648             5.364397
| 13>   H                      -0.566829            4.437277             4.482448
| 14>   H                      -1.154150            6.680770             4.732149
| 15>   H                      -2.241465            5.558941             5.543396
| 16>   H                      -0.988504            6.613440             6.458835
| 17>   C                      -2.210150            4.309729             2.179350
| 18>   O                      -2.099163            3.474252             3.360581
| 19>   H                      -2.770289            2.741984             3.380769
| 20>   H                      -1.626261            3.910436             1.350685
| 21>   H                      -3.312350            4.480102             1.869655
| 22>   H                      -1.674488            5.251024             2.293240
| 23> *
| 24>
| 25> #Run DFT-D3 single point of the molecule with dimer basis set
| 26> $new_job
| 27> %base "19-211_DFT_A"
| 28> ! wB97X-D3 def2-TZVP TIGHTSCF CHELPG PMODEL
| 29>
| 30> %scf
| 31> MaxIter 1000
| 32> end
| 33>
| 34> * xyz 0 1
| 35>   C                      -1.171793            5.934240             5.579448
| 36>   O                      -0.309131            4.850648             5.364397
| 37>   H                      -0.566829            4.437277             4.482448
| 38>   H                      -1.154150            6.680770             4.732149
| 39>   H                      -2.241465            5.558941             5.543396
| 40>   H                      -0.988504            6.613440             6.458835
| 41>   C                    : -2.210150            4.309729             2.179350
| 42>   O                    : -2.099163            3.474252             3.360581
| 43>   H                    : -2.770289            2.741984             3.380769
| 44>   H                    : -1.626261            3.910436             1.350685
| 45>   H                    : -3.312350            4.480102             1.869655
| 46>   H                    : -1.674488            5.251024             2.293240
| 47> *
| 48>
| 49> #Run DFT-D3 single point of the particle with dimer basis set
| 50> $new_job
| 51> %base "19-211_DFT_B"
| 52> ! wB97X-D3 def2-TZVP TIGHTSCF CHELPG PMODEL
| 53>
| 54> %scf
| 55> MaxIter 1000
| 56> end
| 57>
| 58> * xyz 0 1
| 59>   C                    : -1.171793            5.934240             5.579448
| 60>   O                    : -0.309131            4.850648             5.364397
| 61>   H                    : -0.566829            4.437277             4.482448
| 62>   H                    : -1.154150            6.680770             4.732149
| 63>   H                    : -2.241465            5.558941             5.543396
| 64>   H                    : -0.988504            6.613440             6.458835
| 65>   C                      -2.210150            4.309729             2.179350
| 66>   O                      -2.099163            3.474252             3.360581
| 67>   H                      -2.770289            2.741984             3.380769
| 68>   H                      -1.626261            3.910436             1.350685
| 69>   H                      -3.312350            4.480102             1.869655
| 70>   H                      -1.674488            5.251024             2.293240
| 71> *
| 72>
| 73>                          ****END OF INPUT****
 Total Charge           Charge          ....    0
 Multiplicity           Mult            ....    1
 Number of Electrons    NEL             ....   36
Dispersion correction           -0.002164674
FINAL SINGLE POINT ENERGY      -231.462122319064
Dispersion correction           -0.000251791
FINAL SINGLE POINT ENERGY      -115.726845990977

CARTESIAN COORDINATES (ANGSTROEM)
---------------------------------
  C     -1.171793    5.934240    5.579448
  O     -0.309131    4.850648    5.364397
  H     -0.566829    4.437277    4.482448
  H     -1.154150    6.680770    4.732149
  H     -2.241465    5.558941    5.543396
  H     -0.988504    6.613440    6.458835
  C     -2.210150    4.309729    2.179350
  O     -2.099163    3.474252    3.360581
  H     -2.770289    2.741984    3.380769
  H     -1.626261    3.910436    1.350685
  H     -3.312350    4.480102    1.869655
  H     -1.674488    5.251024    2.293240

 Multiplicity           Mult            ....    1
 Number of Electrons    NEL             ....   18
 Basis Dimension        Dim             ....  172

ORBITAL ENERGIES
----------------

  NO   OCC          E(Eh)            E(eV)
   0   2.0000     -19.233248      -523.3633
   1   2.0000     -10.322759      -280.8966
   2   2.0000      -1.116613       -30.3846
   3   2.0000      -0.795006       -21.6332
   4   2.0000      -0.597654       -16.2630
   5   2.0000      -0.538858       -14.6631
   6   2.0000      -0.520509       -14.1638
   7   2.0000      -0.427643       -11.6368
   8   2.0000      -0.372089       -10.1250
   9   0.0000       0.095870         2.6088
  10   0.0000       0.122136         3.3235
  11   0.0000       0.145707         3.9649
  12   0.0000       0.186030         5.0621
  13   0.0000       0.195509         5.3201

MULLIKEN ATOMIC CHARGES
-----------------------
   0 C :    0.006410
   1 O :    0.000745
   2 H :   -0.006830
   3 H :   -0.001173
   4 H :   -0.006915
   5 H :   -0.000092
   6 C :   -0.170756
   7 O :   -0.483859
   8 H :    0.318003
   9 H :    0.110134
  10 H :    0.106576
  11 H :    0.127759
Sum of atomic charges:    0.0000000

LOEWDIN ATOMIC CHARGES
----------------------
   0 C :   -0.005233
   1 O :   -0.003166
   2 H :   -0.023581
   3 H :   -0.000887
   4 H :   -0.003546
   5 H :   -0.000035
   6 C :   -0.366541
   7 O :   -0.093954
   8 H :    0.184088
   9 H :    0.095196
  10 H :    0.109237
  11 H :    0.108422

  Mayer bond orders larger than 0.1
B(  6-C ,  7-O ) :   0.9951 B(  6-C ,  9-H ) :   0.9729 B(  6-C , 10-H ) :   0.9718
B(  6-C , 11-H ) :   0.9747 B(  7-O ,  8-H ) :   0.8889

Dispersion correction           -0.000290635
FINAL SINGLE POINT ENERGY      -115.728252891420

DIPOLE MOMENT
-------------
                                X             Y             Z
Electronic contribution:      0.20763      -0.96747       1.56305
Nuclear contribution   :     -0.65204       0.85820      -2.05958
                        -----------------------------------------
Total Dipole Moment    :     -0.44441      -0.10926      -0.49653
                        -----------------------------------------
Magnitude (a.u.)       :      0.67526
Magnitude (Debye)      :      1.71637

Rotational constants in cm-1:     4.238192     0.785574     0.750063
Rotational constants in MHz : 127057.789511 23550.920674 22486.332797

                             ****ORCA TERMINATED NORMALLY****
TOTAL RUN TIME: 0 days 0 hours 0 minutes 51 seconds 864 msec
