                         Program Version 4.1.2  - RELEASE  -
|  1> #Run DFT-D3 single point of the dimer
|  2> ! wB97X-D3 def2-TZVP TIGHTSCF CHELPG PMODEL PAL8
|  3>
|  4> %base "1-60_DFT_AB"
|  5>
|  6> %scf
|  7> MaxIter 1000
|  8> end
|  9>
| 10> * xyz 0 1
| 11>   C                      -2.795325            9.217840             5.555766
| 12>   O                      -3.946272            9.686863             6.213946
| 13>   H                      -3.969267            9.351075             7.120477
| 14>   H                      -2.991524            9.209093             4.464861
| 15>   H                      -1.885058            9.769403             5.855998
| 16>   H                      -2.593840            8.207868             5.831886
| 17>   C                      -1.583089            3.679909             6.660968
| 18>   O                      -0.254133            3.169443             6.910270
| 19>   H                      0.284704             3.991523             7.033717
| 20>   H                      -2.256427            2.861545             6.519312
| 21>   H                      -1.990052            4.306250             7.423567
| 22>   H                      -1.570682            4.192405             5.731349
| 23> *
| 24>
| 25> #Run DFT-D3 single point of the molecule with dimer basis set
| 26> $new_job
| 27> %base "1-60_DFT_A"
| 28> ! wB97X-D3 def2-TZVP TIGHTSCF CHELPG PMODEL
| 29>
| 30> %scf
| 31> MaxIter 1000
| 32> end
| 33>
| 34> * xyz 0 1
| 35>   C                      -2.795325            9.217840             5.555766
| 36>   O                      -3.946272            9.686863             6.213946
| 37>   H                      -3.969267            9.351075             7.120477
| 38>   H                      -2.991524            9.209093             4.464861
| 39>   H                      -1.885058            9.769403             5.855998
| 40>   H                      -2.593840            8.207868             5.831886
| 41>   C                    : -1.583089            3.679909             6.660968
| 42>   O                    : -0.254133            3.169443             6.910270
| 43>   H                    : 0.284704             3.991523             7.033717
| 44>   H                    : -2.256427            2.861545             6.519312
| 45>   H                    : -1.990052            4.306250             7.423567
| 46>   H                    : -1.570682            4.192405             5.731349
| 47> *
| 48>
| 49> #Run DFT-D3 single point of the particle with dimer basis set
| 50> $new_job
| 51> %base "1-60_DFT_B"
| 52> ! wB97X-D3 def2-TZVP TIGHTSCF CHELPG PMODEL
| 53>
| 54> %scf
| 55> MaxIter 1000
| 56> end
| 57>
| 58> * xyz 0 1
| 59>   C                    : -2.795325            9.217840             5.555766
| 60>   O                    : -3.946272            9.686863             6.213946
| 61>   H                    : -3.969267            9.351075             7.120477
| 62>   H                    : -2.991524            9.209093             4.464861
| 63>   H                    : -1.885058            9.769403             5.855998
| 64>   H                    : -2.593840            8.207868             5.831886
| 65>   C                      -1.583089            3.679909             6.660968
| 66>   O                      -0.254133            3.169443             6.910270
| 67>   H                      0.284704             3.991523             7.033717
| 68>   H                      -2.256427            2.861545             6.519312
| 69>   H                      -1.990052            4.306250             7.423567
| 70>   H                      -1.570682            4.192405             5.731349
| 71> *
| 72>
| 73>                          ****END OF INPUT****
 Total Charge           Charge          ....    0
 Multiplicity           Mult            ....    1
 Number of Electrons    NEL             ....   36
Dispersion correction           -0.000617941
FINAL SINGLE POINT ENERGY      -231.467316432827
Dispersion correction           -0.000237326
FINAL SINGLE POINT ENERGY      -115.734568546791

CARTESIAN COORDINATES (ANGSTROEM)
---------------------------------
  C     -2.795325    9.217840    5.555766
  O     -3.946272    9.686863    6.213946
  H     -3.969267    9.351075    7.120477
  H     -2.991524    9.209093    4.464861
  H     -1.885058    9.769403    5.855998
  H     -2.593840    8.207868    5.831886
  C     -1.583089    3.679909    6.660968
  O     -0.254133    3.169443    6.910270
  H      0.284704    3.991523    7.033717
  H     -2.256427    2.861545    6.519312
  H     -1.990052    4.306250    7.423567
  H     -1.570682    4.192405    5.731349

 Multiplicity           Mult            ....    1
 Number of Electrons    NEL             ....   18
 Basis Dimension        Dim             ....  172

ORBITAL ENERGIES
----------------

  NO   OCC          E(Eh)            E(eV)
   0   2.0000     -19.233077      -523.3586
   1   2.0000     -10.305316      -280.4219
   2   2.0000      -1.123065       -30.5602
   3   2.0000      -0.799802       -21.7637
   4   2.0000      -0.600720       -16.3464
   5   2.0000      -0.546091       -14.8599
   6   2.0000      -0.522266       -14.2116
   7   2.0000      -0.440528       -11.9874
   8   2.0000      -0.375364       -10.2142
   9   0.0000       0.081316         2.2127
  10   0.0000       0.112528         3.0620
  11   0.0000       0.147300         4.0082
  12   0.0000       0.161974         4.4075
  13   0.0000       0.193066         5.2536

MULLIKEN ATOMIC CHARGES
-----------------------
   0 C :    0.000080
   1 O :   -0.000001
   2 H :   -0.000002
   3 H :   -0.000003
   4 H :   -0.000004
   5 H :   -0.000191
   6 C :   -0.177453
   7 O :   -0.475433
   8 H :    0.313533
   9 H :    0.118327
  10 H :    0.110561
  11 H :    0.110586
Sum of atomic charges:   -0.0000000

LOEWDIN ATOMIC CHARGES
----------------------
   0 C :   -0.000013
   1 O :   -0.000001
   2 H :   -0.000001
   3 H :   -0.000000
   4 H :   -0.000000
   5 H :   -0.000063
   6 C :   -0.360792
   7 O :   -0.111264
   8 H :    0.185348
   9 H :    0.104407
  10 H :    0.090844
  11 H :    0.091535

  Mayer bond orders larger than 0.1
B(  6-C ,  7-O ) :   0.9993 B(  6-C ,  9-H ) :   0.9753 B(  6-C , 10-H ) :   0.9704
B(  6-C , 11-H ) :   0.9826 B(  7-O ,  8-H ) :   0.9003

Dispersion correction           -0.000233389
FINAL SINGLE POINT ENERGY      -115.732846530410

DIPOLE MOMENT
-------------
                                X             Y             Z
Electronic contribution:      1.59410      -0.76784       0.37334
Nuclear contribution   :     -1.82468       1.47081      -0.41277
                        -----------------------------------------
Total Dipole Moment    :     -0.23059       0.70297      -0.03943
                        -----------------------------------------
Magnitude (a.u.)       :      0.74087
Magnitude (Debye)      :      1.88315

Rotational constants in cm-1:     4.387907     0.809876     0.780358
Rotational constants in MHz : 131546.154271 24279.470371 23394.553126

                             ****ORCA TERMINATED NORMALLY****
TOTAL RUN TIME: 0 days 0 hours 5 minutes 40 seconds 895 msec
