                         Program Version 4.1.2  - RELEASE  -
|  1> #Run DFT-D3 single point of the dimer
|  2> ! wB97X-D3 def2-TZVP TIGHTSCF CHELPG PMODEL PAL8
|  3>
|  4> %base "4-151_DFT_AB"
|  5>
|  6> %scf
|  7> MaxIter 1000
|  8> end
|  9>
| 10> * xyz 0 1
| 11>   C                      -7.165838            1.970965             -4.316710
| 12>   O                      -8.140504            2.659230             -3.460284
| 13>   H                      -7.664392            2.899198             -2.666859
| 14>   H                      -6.972118            0.987659             -3.975152
| 15>   H                      -7.564475            1.801484             -5.267749
| 16>   H                      -6.156702            2.463355             -4.387189
| 17>   C                      -8.901903            4.646790             -6.480300
| 18>   O                      -9.287550            4.929981             -5.152760
| 19>   H                      -9.324098            4.186371             -4.506365
| 20>   H                      -8.524538            5.545997             -6.966401
| 21>   H                      -8.151947            3.864213             -6.609913
| 22>   H                      -9.751853            4.390354             -7.154337
| 23> *
| 24>
| 25> #Run DFT-D3 single point of the molecule with dimer basis set
| 26> $new_job
| 27> %base "4-151_DFT_A"
| 28> ! wB97X-D3 def2-TZVP TIGHTSCF CHELPG PMODEL
| 29>
| 30> %scf
| 31> MaxIter 1000
| 32> end
| 33>
| 34> * xyz 0 1
| 35>   C                      -7.165838            1.970965             -4.316710
| 36>   O                      -8.140504            2.659230             -3.460284
| 37>   H                      -7.664392            2.899198             -2.666859
| 38>   H                      -6.972118            0.987659             -3.975152
| 39>   H                      -7.564475            1.801484             -5.267749
| 40>   H                      -6.156702            2.463355             -4.387189
| 41>   C                    : -8.901903            4.646790             -6.480300
| 42>   O                    : -9.287550            4.929981             -5.152760
| 43>   H                    : -9.324098            4.186371             -4.506365
| 44>   H                    : -8.524538            5.545997             -6.966401
| 45>   H                    : -8.151947            3.864213             -6.609913
| 46>   H                    : -9.751853            4.390354             -7.154337
| 47> *
| 48>
| 49> #Run DFT-D3 single point of the particle with dimer basis set
| 50> $new_job
| 51> %base "4-151_DFT_B"
| 52> ! wB97X-D3 def2-TZVP TIGHTSCF CHELPG PMODEL
| 53>
| 54> %scf
| 55> MaxIter 1000
| 56> end
| 57>
| 58> * xyz 0 1
| 59>   C                    : -7.165838            1.970965             -4.316710
| 60>   O                    : -8.140504            2.659230             -3.460284
| 61>   H                    : -7.664392            2.899198             -2.666859
| 62>   H                    : -6.972118            0.987659             -3.975152
| 63>   H                    : -7.564475            1.801484             -5.267749
| 64>   H                    : -6.156702            2.463355             -4.387189
| 65>   C                      -8.901903            4.646790             -6.480300
| 66>   O                      -9.287550            4.929981             -5.152760
| 67>   H                      -9.324098            4.186371             -4.506365
| 68>   H                      -8.524538            5.545997             -6.966401
| 69>   H                      -8.151947            3.864213             -6.609913
| 70>   H                      -9.751853            4.390354             -7.154337
| 71> *
| 72>
| 73>                          ****END OF INPUT****
 Total Charge           Charge          ....    0
 Multiplicity           Mult            ....    1
 Number of Electrons    NEL             ....   36
Dispersion correction           -0.002062452
FINAL SINGLE POINT ENERGY      -231.469699576863
Dispersion correction           -0.000265872
FINAL SINGLE POINT ENERGY      -115.730757831830

CARTESIAN COORDINATES (ANGSTROEM)
---------------------------------
  C     -7.165838    1.970965   -4.316710
  O     -8.140504    2.659230   -3.460284
  H     -7.664392    2.899198   -2.666859
  H     -6.972118    0.987659   -3.975152
  H     -7.564475    1.801484   -5.267749
  H     -6.156702    2.463355   -4.387189
  C     -8.901903    4.646790   -6.480300
  O     -9.287550    4.929981   -5.152760
  H     -9.324098    4.186371   -4.506365
  H     -8.524538    5.545997   -6.966401
  H     -8.151947    3.864213   -6.609913
  H     -9.751853    4.390354   -7.154337

 Multiplicity           Mult            ....    1
 Number of Electrons    NEL             ....   18
 Basis Dimension        Dim             ....  172

ORBITAL ENERGIES
----------------

  NO   OCC          E(Eh)            E(eV)
   0   2.0000     -19.232507      -523.3431
   1   2.0000     -10.315355      -280.6951
   2   2.0000      -1.127156       -30.6715
   3   2.0000      -0.798894       -21.7390
   4   2.0000      -0.614429       -16.7195
   5   2.0000      -0.535337       -14.5673
   6   2.0000      -0.525788       -14.3074
   7   2.0000      -0.424097       -11.5403
   8   2.0000      -0.371121       -10.0987
   9   0.0000       0.071489         1.9453
  10   0.0000       0.132006         3.5921
  11   0.0000       0.143052         3.8926
  12   0.0000       0.173965         4.7338
  13   0.0000       0.188023         5.1164

MULLIKEN ATOMIC CHARGES
-----------------------
   0 C :   -0.003120
   1 O :   -0.002388
   2 H :   -0.000375
   3 H :    0.000001
   4 H :    0.000635
   5 H :    0.000024
   6 C :   -0.152950
   7 O :   -0.491607
   8 H :    0.324886
   9 H :    0.120461
  10 H :    0.103878
  11 H :    0.100555
Sum of atomic charges:   -0.0000000

LOEWDIN ATOMIC CHARGES
----------------------
   0 C :   -0.005877
   1 O :   -0.011568
   2 H :   -0.001005
   3 H :   -0.000071
   4 H :   -0.002327
   5 H :   -0.000156
   6 C :   -0.389539
   7 O :   -0.077862
   8 H :    0.186993
   9 H :    0.107317
  10 H :    0.095864
  11 H :    0.098229

  Mayer bond orders larger than 0.1
B(  6-C ,  7-O ) :   0.9981 B(  6-C ,  9-H ) :   0.9741 B(  6-C , 10-H ) :   0.9706
B(  6-C , 11-H ) :   0.9788 B(  7-O ,  8-H ) :   0.8875

Dispersion correction           -0.000288083
FINAL SINGLE POINT ENERGY      -115.731923071030

DIPOLE MOMENT
-------------
                                X             Y             Z
Electronic contribution:     -0.45341       0.43148       1.79519
Nuclear contribution   :      0.60105      -1.02052      -1.91689
                        -----------------------------------------
Total Dipole Moment    :      0.14765      -0.58903      -0.12170
                        -----------------------------------------
Magnitude (a.u.)       :      0.61933
Magnitude (Debye)      :      1.57422

Rotational constants in cm-1:     4.515109     0.807927     0.780685
Rotational constants in MHz : 135359.567206 24221.048848 23404.351805

                             ****ORCA TERMINATED NORMALLY****
TOTAL RUN TIME: 0 days 0 hours 1 minutes 37 seconds 96 msec
