                         Program Version 4.1.2  - RELEASE  -
|  1> #Run DFT-D3 single point of the dimer
|  2> ! wB97X-D3 def2-TZVP TIGHTSCF CHELPG PMODEL PAL8
|  3>
|  4> %base "7-24_DFT_AB"
|  5>
|  6> %scf
|  7> MaxIter 1000
|  8> end
|  9>
| 10> * xyz 0 1
| 11>   C                      -1.043704            -4.234054            3.067058
| 12>   O                      -0.967894            -4.898226            4.364749
| 13>   H                      -1.811567            -5.220936            4.592340
| 14>   H                      -1.580061            -3.307889            3.073810
| 15>   H                      -0.006759            -3.989458            2.723288
| 16>   H                      -1.542091            -4.895781            2.312860
| 17>   C                      2.928405             -4.897013            3.100463
| 18>   O                      3.763834             -5.370832            4.138863
| 19>   H                      3.540010             -4.773488            4.876151
| 20>   H                      3.055190             -3.814017            3.010638
| 21>   H                      3.178260             -5.289934            2.165220
| 22>   H                      1.860662             -5.090949            3.175196
| 23> *
| 24>
| 25> #Run DFT-D3 single point of the molecule with dimer basis set
| 26> $new_job
| 27> %base "7-24_DFT_A"
| 28> ! wB97X-D3 def2-TZVP TIGHTSCF CHELPG PMODEL
| 29>
| 30> %scf
| 31> MaxIter 1000
| 32> end
| 33>
| 34> * xyz 0 1
| 35>   C                      -1.043704            -4.234054            3.067058
| 36>   O                      -0.967894            -4.898226            4.364749
| 37>   H                      -1.811567            -5.220936            4.592340
| 38>   H                      -1.580061            -3.307889            3.073810
| 39>   H                      -0.006759            -3.989458            2.723288
| 40>   H                      -1.542091            -4.895781            2.312860
| 41>   C                    : 2.928405             -4.897013            3.100463
| 42>   O                    : 3.763834             -5.370832            4.138863
| 43>   H                    : 3.540010             -4.773488            4.876151
| 44>   H                    : 3.055190             -3.814017            3.010638
| 45>   H                    : 3.178260             -5.289934            2.165220
| 46>   H                    : 1.860662             -5.090949            3.175196
| 47> *
| 48>
| 49> #Run DFT-D3 single point of the particle with dimer basis set
| 50> $new_job
| 51> %base "7-24_DFT_B"
| 52> ! wB97X-D3 def2-TZVP TIGHTSCF CHELPG PMODEL
| 53>
| 54> %scf
| 55> MaxIter 1000
| 56> end
| 57>
| 58> * xyz 0 1
| 59>   C                    : -1.043704            -4.234054            3.067058
| 60>   O                    : -0.967894            -4.898226            4.364749
| 61>   H                    : -1.811567            -5.220936            4.592340
| 62>   H                    : -1.580061            -3.307889            3.073810
| 63>   H                    : -0.006759            -3.989458            2.723288
| 64>   H                    : -1.542091            -4.895781            2.312860
| 65>   C                      2.928405             -4.897013            3.100463
| 66>   O                      3.763834             -5.370832            4.138863
| 67>   H                      3.540010             -4.773488            4.876151
| 68>   H                      3.055190             -3.814017            3.010638
| 69>   H                      3.178260             -5.289934            2.165220
| 70>   H                      1.860662             -5.090949            3.175196
| 71> *
| 72>
| 73>                          ****END OF INPUT****
 Total Charge           Charge          ....    0
 Multiplicity           Mult            ....    1
 Number of Electrons    NEL             ....   36
Dispersion correction           -0.001456632
FINAL SINGLE POINT ENERGY      -231.466463909943
Dispersion correction           -0.000268682
FINAL SINGLE POINT ENERGY      -115.733528871127

CARTESIAN COORDINATES (ANGSTROEM)
---------------------------------
  C     -1.043704   -4.234054    3.067058
  O     -0.967894   -4.898226    4.364749
  H     -1.811567   -5.220936    4.592340
  H     -1.580061   -3.307889    3.073810
  H     -0.006759   -3.989458    2.723288
  H     -1.542091   -4.895781    2.312860
  C      2.928405   -4.897013    3.100463
  O      3.763834   -5.370832    4.138863
  H      3.540010   -4.773488    4.876151
  H      3.055190   -3.814017    3.010638
  H      3.178260   -5.289934    2.165220
  H      1.860662   -5.090949    3.175196

 Multiplicity           Mult            ....    1
 Number of Electrons    NEL             ....   18
 Basis Dimension        Dim             ....  172

ORBITAL ENERGIES
----------------

  NO   OCC          E(Eh)            E(eV)
   0   2.0000     -19.235437      -523.4228
   1   2.0000     -10.307080      -280.4699
   2   2.0000      -1.137856       -30.9626
   3   2.0000      -0.799339       -21.7511
   4   2.0000      -0.609304       -16.5800
   5   2.0000      -0.542879       -14.7725
   6   2.0000      -0.531375       -14.4595
   7   2.0000      -0.439665       -11.9639
   8   2.0000      -0.375259       -10.2113
   9   0.0000       0.082337         2.2405
  10   0.0000       0.115387         3.1398
  11   0.0000       0.147701         4.0192
  12   0.0000       0.171286         4.6609
  13   0.0000       0.192957         5.2506

MULLIKEN ATOMIC CHARGES
-----------------------
   0 C :    0.002771
   1 O :    0.000040
   2 H :    0.000017
   3 H :   -0.000210
   4 H :   -0.004522
   5 H :   -0.000284
   6 C :   -0.170175
   7 O :   -0.464760
   8 H :    0.316807
   9 H :    0.103618
  10 H :    0.116060
  11 H :    0.100637
Sum of atomic charges:   -0.0000000

LOEWDIN ATOMIC CHARGES
----------------------
   0 C :   -0.005156
   1 O :   -0.000562
   2 H :   -0.000037
   3 H :   -0.000057
   4 H :   -0.006535
   5 H :   -0.000088
   6 C :   -0.385844
   7 O :   -0.077662
   8 H :    0.182442
   9 H :    0.098200
  10 H :    0.096641
  11 H :    0.098659

  Mayer bond orders larger than 0.1
B(  6-C ,  7-O ) :   1.0054 B(  6-C ,  9-H ) :   0.9901 B(  6-C , 10-H ) :   0.9732
B(  6-C , 11-H ) :   0.9686 B(  7-O ,  8-H ) :   0.9004

Dispersion correction           -0.000233076
FINAL SINGLE POINT ENERGY      -115.732064446727

DIPOLE MOMENT
-------------
                                X             Y             Z
Electronic contribution:      1.17780      -0.84712       1.29053
Nuclear contribution   :     -1.62438       1.39223      -1.26153
                        -----------------------------------------
Total Dipole Moment    :     -0.44658       0.54512       0.02900
                        -----------------------------------------
Magnitude (a.u.)       :      0.70529
Magnitude (Debye)      :      1.79270

Rotational constants in cm-1:     4.456561     0.830349     0.801183
Rotational constants in MHz : 133604.351014 24893.241857 24018.850842

                             ****ORCA TERMINATED NORMALLY****
TOTAL RUN TIME: 0 days 0 hours 0 minutes 59 seconds 959 msec
