                         Program Version 4.1.2  - RELEASE  -
|  1> #Run DFT-D3 single point of the dimer
|  2> ! wB97X-D3 def2-TZVP TIGHTSCF CHELPG PMODEL PAL8
|  3>
|  4> %base "4-90_DFT_AB"
|  5>
|  6> %scf
|  7> MaxIter 1000
|  8> end
|  9>
| 10> * xyz 0 1
| 11>   C                      8.138163             2.013779             8.440012
| 12>   O                      8.449880             2.296050             7.073773
| 13>   H                      8.958610             1.573154             6.754095
| 14>   H                      7.680784             2.922407             8.860548
| 15>   H                      7.458505             1.109173             8.484702
| 16>   H                      9.035666             1.771950             8.988343
| 17>   C                      6.217340             -1.346205            4.088742
| 18>   O                      6.697135             -1.248581            5.395807
| 19>   H                      7.653262             -1.220963            5.333175
| 20>   H                      6.205620             -0.444576            3.465276
| 21>   H                      6.666536             -2.072092            3.429082
| 22>   H                      5.130316             -1.505163            4.044797
| 23> *
| 24>
| 25> #Run DFT-D3 single point of the molecule with dimer basis set
| 26> $new_job
| 27> %base "4-90_DFT_A"
| 28> ! wB97X-D3 def2-TZVP TIGHTSCF CHELPG PMODEL
| 29>
| 30> %scf
| 31> MaxIter 1000
| 32> end
| 33>
| 34> * xyz 0 1
| 35>   C                      8.138163             2.013779             8.440012
| 36>   O                      8.449880             2.296050             7.073773
| 37>   H                      8.958610             1.573154             6.754095
| 38>   H                      7.680784             2.922407             8.860548
| 39>   H                      7.458505             1.109173             8.484702
| 40>   H                      9.035666             1.771950             8.988343
| 41>   C                    : 6.217340             -1.346205            4.088742
| 42>   O                    : 6.697135             -1.248581            5.395807
| 43>   H                    : 7.653262             -1.220963            5.333175
| 44>   H                    : 6.205620             -0.444576            3.465276
| 45>   H                    : 6.666536             -2.072092            3.429082
| 46>   H                    : 5.130316             -1.505163            4.044797
| 47> *
| 48>
| 49> #Run DFT-D3 single point of the particle with dimer basis set
| 50> $new_job
| 51> %base "4-90_DFT_B"
| 52> ! wB97X-D3 def2-TZVP TIGHTSCF CHELPG PMODEL
| 53>
| 54> %scf
| 55> MaxIter 1000
| 56> end
| 57>
| 58> * xyz 0 1
| 59>   C                    : 8.138163             2.013779             8.440012
| 60>   O                    : 8.449880             2.296050             7.073773
| 61>   H                    : 8.958610             1.573154             6.754095
| 62>   H                    : 7.680784             2.922407             8.860548
| 63>   H                    : 7.458505             1.109173             8.484702
| 64>   H                    : 9.035666             1.771950             8.988343
| 65>   C                      6.217340             -1.346205            4.088742
| 66>   O                      6.697135             -1.248581            5.395807
| 67>   H                      7.653262             -1.220963            5.333175
| 68>   H                      6.205620             -0.444576            3.465276
| 69>   H                      6.666536             -2.072092            3.429082
| 70>   H                      5.130316             -1.505163            4.044797
| 71> *
| 72>
| 73>                          ****END OF INPUT****
 Total Charge           Charge          ....    0
 Multiplicity           Mult            ....    1
 Number of Electrons    NEL             ....   36
Dispersion correction           -0.000912921
FINAL SINGLE POINT ENERGY      -231.465155656085
Dispersion correction           -0.000231342
FINAL SINGLE POINT ENERGY      -115.735295830487

CARTESIAN COORDINATES (ANGSTROEM)
---------------------------------
  C      8.138163    2.013779    8.440012
  O      8.449880    2.296050    7.073773
  H      8.958610    1.573154    6.754095
  H      7.680784    2.922407    8.860548
  H      7.458505    1.109173    8.484702
  H      9.035666    1.771950    8.988343
  C      6.217340   -1.346205    4.088742
  O      6.697135   -1.248581    5.395807
  H      7.653262   -1.220963    5.333175
  H      6.205620   -0.444576    3.465276
  H      6.666536   -2.072092    3.429082
  H      5.130316   -1.505163    4.044797

 Multiplicity           Mult            ....    1
 Number of Electrons    NEL             ....   18
 Basis Dimension        Dim             ....  172

ORBITAL ENERGIES
----------------

  NO   OCC          E(Eh)            E(eV)
   0   2.0000     -19.239029      -523.5206
   1   2.0000     -10.310681      -280.5679
   2   2.0000      -1.146829       -31.2068
   3   2.0000      -0.800917       -21.7941
   4   2.0000      -0.622659       -16.9434
   5   2.0000      -0.542173       -14.7533
   6   2.0000      -0.523544       -14.2464
   7   2.0000      -0.437140       -11.8952
   8   2.0000      -0.374769       -10.1980
   9   0.0000       0.086297         2.3483
  10   0.0000       0.119975         3.2647
  11   0.0000       0.146562         3.9882
  12   0.0000       0.176835         4.8119
  13   0.0000       0.200530         5.4567

MULLIKEN ATOMIC CHARGES
-----------------------
   0 C :    0.000673
   1 O :   -0.000084
   2 H :   -0.001002
   3 H :   -0.000002
   4 H :   -0.001193
   5 H :   -0.000021
   6 C :   -0.179825
   7 O :   -0.455390
   8 H :    0.317472
   9 H :    0.095423
  10 H :    0.106712
  11 H :    0.117237
Sum of atomic charges:   -0.0000000

LOEWDIN ATOMIC CHARGES
----------------------
   0 C :   -0.000240
   1 O :   -0.000112
   2 H :   -0.000643
   3 H :   -0.000001
   4 H :   -0.000445
   5 H :   -0.000001
   6 C :   -0.417308
   7 O :   -0.051373
   8 H :    0.173459
   9 H :    0.093793
  10 H :    0.091359
  11 H :    0.111511

  Mayer bond orders larger than 0.1
B(  6-C ,  7-O ) :   1.0161 B(  6-C ,  9-H ) :   0.9698 B(  6-C , 10-H ) :   0.9751
B(  6-C , 11-H ) :   0.9767 B(  7-O ,  8-H ) :   0.8981

Dispersion correction           -0.000264123
FINAL SINGLE POINT ENERGY      -115.730114046672

DIPOLE MOMENT
-------------
                                X             Y             Z
Electronic contribution:      0.66387       0.04281       1.96650
Nuclear contribution   :     -0.25092      -0.06579      -2.50720
                        -----------------------------------------
Total Dipole Moment    :      0.41295      -0.02299      -0.54070
                        -----------------------------------------
Magnitude (a.u.)       :      0.68075
Magnitude (Debye)      :      1.73032

Rotational constants in cm-1:     4.620976     0.831052     0.795773
Rotational constants in MHz : 138533.382127 24914.323028 23856.675116

                             ****ORCA TERMINATED NORMALLY****
TOTAL RUN TIME: 0 days 0 hours 1 minutes 32 seconds 55 msec
