                         Program Version 4.1.2  - RELEASE  -
|  1> #Run DFT-D3 single point of the dimer
|  2> ! wB97X-D3 def2-TZVP TIGHTSCF CHELPG PMODEL PAL8
|  3>
|  4> %base "6-209_DFT_AB"
|  5>
|  6> %scf
|  7> MaxIter 1000
|  8> end
|  9>
| 10> * xyz 0 1
| 11>   C                      -0.073123            -1.446190            -8.216808
| 12>   O                      -1.511276            -1.386033            -7.972228
| 13>   H                      -1.960776            -1.925502            -8.635251
| 14>   H                      0.244114             -2.511909            -8.329340
| 15>   H                      0.238899             -0.965654            -9.158565
| 16>   H                      0.527147             -0.841932            -7.501318
| 17>   C                      -3.735529            0.611951             -5.991194
| 18>   O                      -2.656072            0.988742             -6.871344
| 19>   H                      -2.300988            0.216606             -7.318854
| 20>   H                      -4.420668            -0.039800            -6.508906
| 21>   H                      -3.411213            0.025835             -5.091356
| 22>   H                      -4.288326            1.517685             -5.695786
| 23> *
| 24>
| 25> #Run DFT-D3 single point of the molecule with dimer basis set
| 26> $new_job
| 27> %base "6-209_DFT_A"
| 28> ! wB97X-D3 def2-TZVP TIGHTSCF CHELPG PMODEL
| 29>
| 30> %scf
| 31> MaxIter 1000
| 32> end
| 33>
| 34> * xyz 0 1
| 35>   C                      -0.073123            -1.446190            -8.216808
| 36>   O                      -1.511276            -1.386033            -7.972228
| 37>   H                      -1.960776            -1.925502            -8.635251
| 38>   H                      0.244114             -2.511909            -8.329340
| 39>   H                      0.238899             -0.965654            -9.158565
| 40>   H                      0.527147             -0.841932            -7.501318
| 41>   C                    : -3.735529            0.611951             -5.991194
| 42>   O                    : -2.656072            0.988742             -6.871344
| 43>   H                    : -2.300988            0.216606             -7.318854
| 44>   H                    : -4.420668            -0.039800            -6.508906
| 45>   H                    : -3.411213            0.025835             -5.091356
| 46>   H                    : -4.288326            1.517685             -5.695786
| 47> *
| 48>
| 49> #Run DFT-D3 single point of the particle with dimer basis set
| 50> $new_job
| 51> %base "6-209_DFT_B"
| 52> ! wB97X-D3 def2-TZVP TIGHTSCF CHELPG PMODEL
| 53>
| 54> %scf
| 55> MaxIter 1000
| 56> end
| 57>
| 58> * xyz 0 1
| 59>   C                    : -0.073123            -1.446190            -8.216808
| 60>   O                    : -1.511276            -1.386033            -7.972228
| 61>   H                    : -1.960776            -1.925502            -8.635251
| 62>   H                    : 0.244114             -2.511909            -8.329340
| 63>   H                    : 0.238899             -0.965654            -9.158565
| 64>   H                    : 0.527147             -0.841932            -7.501318
| 65>   C                      -3.735529            0.611951             -5.991194
| 66>   O                      -2.656072            0.988742             -6.871344
| 67>   H                      -2.300988            0.216606             -7.318854
| 68>   H                      -4.420668            -0.039800            -6.508906
| 69>   H                      -3.411213            0.025835             -5.091356
| 70>   H                      -4.288326            1.517685             -5.695786
| 71> *
| 72>
| 73>                          ****END OF INPUT****
 Total Charge           Charge          ....    0
 Multiplicity           Mult            ....    1
 Number of Electrons    NEL             ....   36
Dispersion correction           -0.001661076
FINAL SINGLE POINT ENERGY      -231.474758420040
Dispersion correction           -0.000275350
FINAL SINGLE POINT ENERGY      -115.730668622897

CARTESIAN COORDINATES (ANGSTROEM)
---------------------------------
  C     -0.073123   -1.446190   -8.216808
  O     -1.511276   -1.386033   -7.972228
  H     -1.960776   -1.925502   -8.635251
  H      0.244114   -2.511909   -8.329340
  H      0.238899   -0.965654   -9.158565
  H      0.527147   -0.841932   -7.501318
  C     -3.735529    0.611951   -5.991194
  O     -2.656072    0.988742   -6.871344
  H     -2.300988    0.216606   -7.318854
  H     -4.420668   -0.039800   -6.508906
  H     -3.411213    0.025835   -5.091356
  H     -4.288326    1.517685   -5.695786

 Multiplicity           Mult            ....    1
 Number of Electrons    NEL             ....   18
 Basis Dimension        Dim             ....  172

ORBITAL ENERGIES
----------------

  NO   OCC          E(Eh)            E(eV)
   0   2.0000     -19.230237      -523.2814
   1   2.0000     -10.318492      -280.7804
   2   2.0000      -1.126252       -30.6469
   3   2.0000      -0.796532       -21.6747
   4   2.0000      -0.608562       -16.5598
   5   2.0000      -0.532821       -14.4988
   6   2.0000      -0.525115       -14.2891
   7   2.0000      -0.435289       -11.8448
   8   2.0000      -0.374016       -10.1775
   9   0.0000       0.070814         1.9270
  10   0.0000       0.128432         3.4948
  11   0.0000       0.152519         4.1502
  12   0.0000       0.164620         4.4795
  13   0.0000       0.193482         5.2649

MULLIKEN ATOMIC CHARGES
-----------------------
   0 C :   -0.001625
   1 O :   -0.004927
   2 H :   -0.000319
   3 H :    0.000032
   4 H :    0.000018
   5 H :   -0.000834
   6 C :   -0.167592
   7 O :   -0.479861
   8 H :    0.316274
   9 H :    0.110133
  10 H :    0.102204
  11 H :    0.126496
Sum of atomic charges:    0.0000000

LOEWDIN ATOMIC CHARGES
----------------------
   0 C :   -0.003735
   1 O :   -0.022361
   2 H :   -0.001461
   3 H :   -0.000069
   4 H :   -0.000084
   5 H :   -0.000559
   6 C :   -0.364760
   7 O :   -0.086518
   8 H :    0.175858
   9 H :    0.092019
  10 H :    0.099883
  11 H :    0.111787

  Mayer bond orders larger than 0.1
B(  6-C ,  7-O ) :   0.9874 B(  6-C ,  9-H ) :   0.9805 B(  6-C , 10-H ) :   0.9669
B(  6-C , 11-H ) :   0.9736 B(  7-O ,  8-H ) :   0.9035

Dispersion correction           -0.000262516
FINAL SINGLE POINT ENERGY      -115.735360438978

DIPOLE MOMENT
-------------
                                X             Y             Z
Electronic contribution:      1.34128       0.65390      -1.04384
Nuclear contribution   :     -1.58769      -1.29951       1.10981
                        -----------------------------------------
Total Dipole Moment    :     -0.24641      -0.64561       0.06597
                        -----------------------------------------
Magnitude (a.u.)       :      0.69418
Magnitude (Debye)      :      1.76447

Rotational constants in cm-1:     4.289629     0.800350     0.769959
Rotational constants in MHz : 128599.829098 23993.883421 23082.799178

                             ****ORCA TERMINATED NORMALLY****
TOTAL RUN TIME: 0 days 0 hours 1 minutes 6 seconds 16 msec
