                         Program Version 4.1.2  - RELEASE  -
|  1> #Run DFT-D3 single point of the dimer
|  2> ! wB97X-D3 def2-TZVP TIGHTSCF CHELPG PMODEL PAL8
|  3>
|  4> %base "12-38_DFT_AB"
|  5>
|  6> %scf
|  7> MaxIter 1000
|  8> end
|  9>
| 10> * xyz 0 1
| 11>   C                      -8.068520            9.350120             1.189583
| 12>   O                      -8.752625            10.376869            1.873308
| 13>   H                      -8.135761            11.181691            1.909176
| 14>   H                      -6.977706            9.408543             1.361703
| 15>   H                      -8.315950            8.386054             1.585649
| 16>   H                      -8.351789            9.399995             0.160666
| 17>   C                      -5.299136            6.324784             2.525797
| 18>   O                      -3.875344            6.632212             2.582951
| 19>   H                      -3.598302            5.797346             2.961508
| 20>   H                      -5.501277            5.336444             2.068063
| 21>   H                      -5.698940            6.291915             3.520697
| 22>   H                      -5.897448            7.063423             1.971269
| 23> *
| 24>
| 25> #Run DFT-D3 single point of the molecule with dimer basis set
| 26> $new_job
| 27> %base "12-38_DFT_A"
| 28> ! wB97X-D3 def2-TZVP TIGHTSCF CHELPG PMODEL
| 29>
| 30> %scf
| 31> MaxIter 1000
| 32> end
| 33>
| 34> * xyz 0 1
| 35>   C                      -8.068520            9.350120             1.189583
| 36>   O                      -8.752625            10.376869            1.873308
| 37>   H                      -8.135761            11.181691            1.909176
| 38>   H                      -6.977706            9.408543             1.361703
| 39>   H                      -8.315950            8.386054             1.585649
| 40>   H                      -8.351789            9.399995             0.160666
| 41>   C                    : -5.299136            6.324784             2.525797
| 42>   O                    : -3.875344            6.632212             2.582951
| 43>   H                    : -3.598302            5.797346             2.961508
| 44>   H                    : -5.501277            5.336444             2.068063
| 45>   H                    : -5.698940            6.291915             3.520697
| 46>   H                    : -5.897448            7.063423             1.971269
| 47> *
| 48>
| 49> #Run DFT-D3 single point of the particle with dimer basis set
| 50> $new_job
| 51> %base "12-38_DFT_B"
| 52> ! wB97X-D3 def2-TZVP TIGHTSCF CHELPG PMODEL
| 53>
| 54> %scf
| 55> MaxIter 1000
| 56> end
| 57>
| 58> * xyz 0 1
| 59>   C                    : -8.068520            9.350120             1.189583
| 60>   O                    : -8.752625            10.376869            1.873308
| 61>   H                    : -8.135761            11.181691            1.909176
| 62>   H                    : -6.977706            9.408543             1.361703
| 63>   H                    : -8.315950            8.386054             1.585649
| 64>   H                    : -8.351789            9.399995             0.160666
| 65>   C                      -5.299136            6.324784             2.525797
| 66>   O                      -3.875344            6.632212             2.582951
| 67>   H                      -3.598302            5.797346             2.961508
| 68>   H                      -5.501277            5.336444             2.068063
| 69>   H                      -5.698940            6.291915             3.520697
| 70>   H                      -5.897448            7.063423             1.971269
| 71> *
| 72>
| 73>                          ****END OF INPUT****
 Total Charge           Charge          ....    0
 Multiplicity           Mult            ....    1
 Number of Electrons    NEL             ....   36
Dispersion correction           -0.001146577
FINAL SINGLE POINT ENERGY      -231.462901602080
Dispersion correction           -0.000235555
FINAL SINGLE POINT ENERGY      -115.731159696289

CARTESIAN COORDINATES (ANGSTROEM)
---------------------------------
  C     -8.068520    9.350120    1.189583
  O     -8.752625   10.376869    1.873308
  H     -8.135761   11.181691    1.909176
  H     -6.977706    9.408543    1.361703
  H     -8.315950    8.386054    1.585649
  H     -8.351789    9.399995    0.160666
  C     -5.299136    6.324784    2.525797
  O     -3.875344    6.632212    2.582951
  H     -3.598302    5.797346    2.961508
  H     -5.501277    5.336444    2.068063
  H     -5.698940    6.291915    3.520697
  H     -5.897448    7.063423    1.971269

 Multiplicity           Mult            ....    1
 Number of Electrons    NEL             ....   18
 Basis Dimension        Dim             ....  172

ORBITAL ENERGIES
----------------

  NO   OCC          E(Eh)            E(eV)
   0   2.0000     -19.234442      -523.3958
   1   2.0000     -10.317626      -280.7569
   2   2.0000      -1.132284       -30.8110
   3   2.0000      -0.794714       -21.6253
   4   2.0000      -0.601467       -16.3668
   5   2.0000      -0.539705       -14.6861
   6   2.0000      -0.522264       -14.2115
   7   2.0000      -0.448403       -12.2017
   8   2.0000      -0.376850       -10.2546
   9   0.0000       0.086454         2.3525
  10   0.0000       0.115639         3.1467
  11   0.0000       0.145264         3.9528
  12   0.0000       0.174356         4.7445
  13   0.0000       0.188385         5.1262

MULLIKEN ATOMIC CHARGES
-----------------------
   0 C :   -0.000983
   1 O :    0.000015
   2 H :   -0.000001
   3 H :    0.000916
   4 H :   -0.000054
   5 H :    0.000031
   6 C :   -0.199878
   7 O :   -0.460395
   8 H :    0.313705
   9 H :    0.107481
  10 H :    0.113618
  11 H :    0.125545
Sum of atomic charges:   -0.0000000

LOEWDIN ATOMIC CHARGES
----------------------
   0 C :   -0.002654
   1 O :   -0.000013
   2 H :   -0.000001
   3 H :   -0.001506
   4 H :   -0.001060
   5 H :   -0.000017
   6 C :   -0.363581
   7 O :   -0.102966
   8 H :    0.169945
   9 H :    0.098839
  10 H :    0.092460
  11 H :    0.110554

  Mayer bond orders larger than 0.1
B(  6-C ,  7-O ) :   0.9996 B(  6-C ,  9-H ) :   0.9762 B(  6-C , 10-H ) :   0.9765
B(  6-C , 11-H ) :   0.9731 B(  7-O ,  8-H ) :   0.9054

Dispersion correction           -0.000232555
FINAL SINGLE POINT ENERGY      -115.731057403112

DIPOLE MOMENT
-------------
                                X             Y             Z
Electronic contribution:      1.83013       0.61180      -0.02433
Nuclear contribution   :     -2.24702      -1.23770       0.23623
                        -----------------------------------------
Total Dipole Moment    :     -0.41690      -0.62590       0.21190
                        -----------------------------------------
Magnitude (a.u.)       :      0.78132
Magnitude (Debye)      :      1.98595

Rotational constants in cm-1:     4.271765     0.799527     0.767169
Rotational constants in MHz : 128064.288045 23969.228164 22999.139339

                             ****ORCA TERMINATED NORMALLY****
TOTAL RUN TIME: 0 days 0 hours 1 minutes 9 seconds 899 msec
