                         Program Version 4.1.2  - RELEASE  -
|  1> #Run DFT-D3 single point of the dimer
|  2> ! wB97X-D3 def2-TZVP TIGHTSCF CHELPG PMODEL PAL8
|  3>
|  4> %base "18-153_DFT_AB"
|  5>
|  6> %scf
|  7> MaxIter 1000
|  8> end
|  9>
| 10> * xyz 0 1
| 11>   C                      3.597850             6.703226             -5.244786
| 12>   O                      2.615310             6.600177             -6.234061
| 13>   H                      2.499694             5.656015             -6.206154
| 14>   H                      4.143364             7.589967             -5.452045
| 15>   H                      3.049037             6.789531             -4.301434
| 16>   H                      4.181735             5.813878             -5.175378
| 17>   C                      1.563923             4.822854             -2.055716
| 18>   O                      1.026069             5.666654             -3.070397
| 19>   H                      1.205890             5.204161             -3.879448
| 20>   H                      1.124852             3.829493             -2.152610
| 21>   H                      2.630486             4.837886             -2.065390
| 22>   H                      1.210527             5.130865             -1.082344
| 23> *
| 24>
| 25> #Run DFT-D3 single point of the molecule with dimer basis set
| 26> $new_job
| 27> %base "18-153_DFT_A"
| 28> ! wB97X-D3 def2-TZVP TIGHTSCF CHELPG PMODEL
| 29>
| 30> %scf
| 31> MaxIter 1000
| 32> end
| 33>
| 34> * xyz 0 1
| 35>   C                      3.597850             6.703226             -5.244786
| 36>   O                      2.615310             6.600177             -6.234061
| 37>   H                      2.499694             5.656015             -6.206154
| 38>   H                      4.143364             7.589967             -5.452045
| 39>   H                      3.049037             6.789531             -4.301434
| 40>   H                      4.181735             5.813878             -5.175378
| 41>   C                    : 1.563923             4.822854             -2.055716
| 42>   O                    : 1.026069             5.666654             -3.070397
| 43>   H                    : 1.205890             5.204161             -3.879448
| 44>   H                    : 1.124852             3.829493             -2.152610
| 45>   H                    : 2.630486             4.837886             -2.065390
| 46>   H                    : 1.210527             5.130865             -1.082344
| 47> *
| 48>
| 49> #Run DFT-D3 single point of the particle with dimer basis set
| 50> $new_job
| 51> %base "18-153_DFT_B"
| 52> ! wB97X-D3 def2-TZVP TIGHTSCF CHELPG PMODEL
| 53>
| 54> %scf
| 55> MaxIter 1000
| 56> end
| 57>
| 58> * xyz 0 1
| 59>   C                    : 3.597850             6.703226             -5.244786
| 60>   O                    : 2.615310             6.600177             -6.234061
| 61>   H                    : 2.499694             5.656015             -6.206154
| 62>   H                    : 4.143364             7.589967             -5.452045
| 63>   H                    : 3.049037             6.789531             -4.301434
| 64>   H                    : 4.181735             5.813878             -5.175378
| 65>   C                      1.563923             4.822854             -2.055716
| 66>   O                      1.026069             5.666654             -3.070397
| 67>   H                      1.205890             5.204161             -3.879448
| 68>   H                      1.124852             3.829493             -2.152610
| 69>   H                      2.630486             4.837886             -2.065390
| 70>   H                      1.210527             5.130865             -1.082344
| 71> *
| 72>
| 73>                          ****END OF INPUT****
 Total Charge           Charge          ....    0
 Multiplicity           Mult            ....    1
 Number of Electrons    NEL             ....   36
Dispersion correction           -0.001811535
FINAL SINGLE POINT ENERGY      -231.463851046482
Dispersion correction           -0.000183756
FINAL SINGLE POINT ENERGY      -115.728963509690

CARTESIAN COORDINATES (ANGSTROEM)
---------------------------------
  C      3.597850    6.703226   -5.244786
  O      2.615310    6.600177   -6.234061
  H      2.499694    5.656015   -6.206154
  H      4.143364    7.589967   -5.452045
  H      3.049037    6.789531   -4.301434
  H      4.181735    5.813878   -5.175378
  C      1.563923    4.822854   -2.055716
  O      1.026069    5.666654   -3.070397
  H      1.205890    5.204161   -3.879448
  H      1.124852    3.829493   -2.152610
  H      2.630486    4.837886   -2.065390
  H      1.210527    5.130865   -1.082344

 Multiplicity           Mult            ....    1
 Number of Electrons    NEL             ....   18
 Basis Dimension        Dim             ....  172

ORBITAL ENERGIES
----------------

  NO   OCC          E(Eh)            E(eV)
   0   2.0000     -19.229785      -523.2690
   1   2.0000     -10.309741      -280.5423
   2   2.0000      -1.137450       -30.9516
   3   2.0000      -0.799183       -21.7469
   4   2.0000      -0.606116       -16.4932
   5   2.0000      -0.555095       -15.1049
   6   2.0000      -0.525931       -14.3113
   7   2.0000      -0.433756       -11.8031
   8   2.0000      -0.377821       -10.2810
   9   0.0000       0.080444         2.1890
  10   0.0000       0.136419         3.7121
  11   0.0000       0.148219         4.0333
  12   0.0000       0.179118         4.8740
  13   0.0000       0.187353         5.0981

MULLIKEN ATOMIC CHARGES
-----------------------
   0 C :   -0.004170
   1 O :    0.000424
   2 H :   -0.000154
   3 H :   -0.000781
   4 H :   -0.008800
   5 H :    0.001200
   6 C :   -0.165951
   7 O :   -0.465567
   8 H :    0.314215
   9 H :    0.105580
  10 H :    0.111095
  11 H :    0.112907
Sum of atomic charges:   -0.0000000

LOEWDIN ATOMIC CHARGES
----------------------
   0 C :   -0.006076
   1 O :   -0.000433
   2 H :   -0.001157
   3 H :   -0.000103
   4 H :   -0.010217
   5 H :   -0.000133
   6 C :   -0.370812
   7 O :   -0.067804
   8 H :    0.162968
   9 H :    0.097711
  10 H :    0.090706
  11 H :    0.105350

  Mayer bond orders larger than 0.1
B(  6-C ,  7-O ) :   0.9983 B(  6-C ,  9-H ) :   0.9853 B(  6-C , 10-H ) :   0.9729
B(  6-C , 11-H ) :   0.9758 B(  7-O ,  8-H ) :   0.9038

Dispersion correction           -0.000222537
FINAL SINGLE POINT ENERGY      -115.735148126558

DIPOLE MOMENT
-------------
                                X             Y             Z
Electronic contribution:     -0.63137       1.17191      -1.17979
Nuclear contribution   :      0.93504      -1.81173       1.10942
                        -----------------------------------------
Total Dipole Moment    :      0.30366      -0.63983      -0.07037
                        -----------------------------------------
Magnitude (a.u.)       :      0.71172
Magnitude (Debye)      :      1.80904

Rotational constants in cm-1:     4.351889     0.825814     0.805370
Rotational constants in MHz : 130466.349398 24757.290746 24144.376659

                             ****ORCA TERMINATED NORMALLY****
TOTAL RUN TIME: 0 days 0 hours 0 minutes 58 seconds 702 msec
