                         Program Version 4.1.2  - RELEASE  -
|  1> #Run DFT-D3 single point of the dimer
|  2> ! wB97X-D3 def2-TZVP TIGHTSCF CHELPG PMODEL PAL8
|  3>
|  4> %base "15-150_DFT_AB"
|  5>
|  6> %scf
|  7> MaxIter 1000
|  8> end
|  9>
| 10> * xyz 0 1
| 11>   C                      -10.695807           -6.649651            4.959832
| 12>   O                      -11.428309           -5.754532            5.794819
| 13>   H                      -12.313601           -5.589736            5.453743
| 14>   H                      -11.365032           -7.374430            4.521126
| 15>   H                      -10.312134           -6.161509            4.072612
| 16>   H                      -9.801205            -7.105240            5.391306
| 17>   C                      -9.239067            -5.099073            0.798096
| 18>   O                      -9.384162            -5.754281            2.003019
| 19>   H                      -8.498989            -6.000853            2.296157
| 20>   H                      -8.693844            -5.708319            0.095357
| 21>   H                      -10.258006           -4.715967            0.432128
| 22>   H                      -8.614225            -4.207495            0.849079
| 23> *
| 24>
| 25> #Run DFT-D3 single point of the molecule with dimer basis set
| 26> $new_job
| 27> %base "15-150_DFT_A"
| 28> ! wB97X-D3 def2-TZVP TIGHTSCF CHELPG PMODEL
| 29>
| 30> %scf
| 31> MaxIter 1000
| 32> end
| 33>
| 34> * xyz 0 1
| 35>   C                      -10.695807           -6.649651            4.959832
| 36>   O                      -11.428309           -5.754532            5.794819
| 37>   H                      -12.313601           -5.589736            5.453743
| 38>   H                      -11.365032           -7.374430            4.521126
| 39>   H                      -10.312134           -6.161509            4.072612
| 40>   H                      -9.801205            -7.105240            5.391306
| 41>   C                    : -9.239067            -5.099073            0.798096
| 42>   O                    : -9.384162            -5.754281            2.003019
| 43>   H                    : -8.498989            -6.000853            2.296157
| 44>   H                    : -8.693844            -5.708319            0.095357
| 45>   H                    : -10.258006           -4.715967            0.432128
| 46>   H                    : -8.614225            -4.207495            0.849079
| 47> *
| 48>
| 49> #Run DFT-D3 single point of the particle with dimer basis set
| 50> $new_job
| 51> %base "15-150_DFT_B"
| 52> ! wB97X-D3 def2-TZVP TIGHTSCF CHELPG PMODEL
| 53>
| 54> %scf
| 55> MaxIter 1000
| 56> end
| 57>
| 58> * xyz 0 1
| 59>   C                    : -10.695807           -6.649651            4.959832
| 60>   O                    : -11.428309           -5.754532            5.794819
| 61>   H                    : -12.313601           -5.589736            5.453743
| 62>   H                    : -11.365032           -7.374430            4.521126
| 63>   H                    : -10.312134           -6.161509            4.072612
| 64>   H                    : -9.801205            -7.105240            5.391306
| 65>   C                      -9.239067            -5.099073            0.798096
| 66>   O                      -9.384162            -5.754281            2.003019
| 67>   H                      -8.498989            -6.000853            2.296157
| 68>   H                      -8.693844            -5.708319            0.095357
| 69>   H                      -10.258006           -4.715967            0.432128
| 70>   H                      -8.614225            -4.207495            0.849079
| 71> *
| 72>
| 73>                          ****END OF INPUT****
 Total Charge           Charge          ....    0
 Multiplicity           Mult            ....    1
 Number of Electrons    NEL             ....   36
Dispersion correction           -0.001342482
FINAL SINGLE POINT ENERGY      -231.463443385376
Dispersion correction           -0.000253515
FINAL SINGLE POINT ENERGY      -115.730779206231

CARTESIAN COORDINATES (ANGSTROEM)
---------------------------------
  C    -10.695807   -6.649651    4.959832
  O    -11.428309   -5.754532    5.794819
  H    -12.313601   -5.589736    5.453743
  H    -11.365032   -7.374430    4.521126
  H    -10.312134   -6.161509    4.072612
  H     -9.801205   -7.105240    5.391306
  C     -9.239067   -5.099073    0.798096
  O     -9.384162   -5.754281    2.003019
  H     -8.498989   -6.000853    2.296157
  H     -8.693844   -5.708319    0.095357
  H    -10.258006   -4.715967    0.432128
  H     -8.614225   -4.207495    0.849079

 Multiplicity           Mult            ....    1
 Number of Electrons    NEL             ....   18
 Basis Dimension        Dim             ....  172

ORBITAL ENERGIES
----------------

  NO   OCC          E(Eh)            E(eV)
   0   2.0000     -19.232947      -523.3551
   1   2.0000     -10.314323      -280.6670
   2   2.0000      -1.149107       -31.2688
   3   2.0000      -0.791348       -21.5337
   4   2.0000      -0.623511       -16.9666
   5   2.0000      -0.545051       -14.8316
   6   2.0000      -0.523795       -14.2532
   7   2.0000      -0.435725       -11.8567
   8   2.0000      -0.369863       -10.0645
   9   0.0000       0.096454         2.6246
  10   0.0000       0.120269         3.2727
  11   0.0000       0.152540         4.1508
  12   0.0000       0.179329         4.8798
  13   0.0000       0.193664         5.2699

MULLIKEN ATOMIC CHARGES
-----------------------
   0 C :    0.006020
   1 O :   -0.000037
   2 H :   -0.000070
   3 H :   -0.001001
   4 H :   -0.015479
   5 H :   -0.000429
   6 C :   -0.154755
   7 O :   -0.454263
   8 H :    0.316627
   9 H :    0.096303
  10 H :    0.113930
  11 H :    0.093153
Sum of atomic charges:   -0.0000000

LOEWDIN ATOMIC CHARGES
----------------------
   0 C :   -0.006967
   1 O :   -0.000039
   2 H :   -0.000008
   3 H :   -0.000315
   4 H :   -0.018273
   5 H :   -0.000111
   6 C :   -0.417250
   7 O :   -0.033849
   8 H :    0.178027
   9 H :    0.089559
  10 H :    0.120005
  11 H :    0.089221

  Mayer bond orders larger than 0.1
B(  6-C ,  7-O ) :   0.9969 B(  6-C ,  9-H ) :   0.9763 B(  6-C , 10-H ) :   0.9750
B(  6-C , 11-H ) :   0.9736 B(  7-O ,  8-H ) :   0.8925

Dispersion correction           -0.000222553
FINAL SINGLE POINT ENERGY      -115.731933406484

DIPOLE MOMENT
-------------
                                X             Y             Z
Electronic contribution:     -0.36612      -0.93269       1.58974
Nuclear contribution   :      1.00128       1.02914      -1.85512
                        -----------------------------------------
Total Dipole Moment    :      0.63516       0.09645      -0.26538
                        -----------------------------------------
Magnitude (a.u.)       :      0.69510
Magnitude (Debye)      :      1.76680

Rotational constants in cm-1:     4.239617     0.870566     0.821744
Rotational constants in MHz : 127100.534613 26098.898300 24635.278344

                             ****ORCA TERMINATED NORMALLY****
TOTAL RUN TIME: 0 days 0 hours 1 minutes 6 seconds 290 msec
