                         Program Version 4.1.2  - RELEASE  -
|  1> #Run DFT-D3 single point of the dimer
|  2> ! wB97X-D3 def2-TZVP TIGHTSCF CHELPG PMODEL PAL8
|  3>
|  4> %base "10-204_DFT_AB"
|  5>
|  6> %scf
|  7> MaxIter 1000
|  8> end
|  9>
| 10> * xyz 0 1
| 11>   C                      -0.976261            -4.778894            3.075659
| 12>   O                      -1.981688            -4.680600            4.052134
| 13>   H                      -2.180852            -3.778540            4.143792
| 14>   H                      -0.078852            -4.236185            3.416926
| 15>   H                      -0.658904            -5.813757            2.888926
| 16>   H                      -1.308365            -4.289112            2.135208
| 17>   C                      -5.166520            -2.157854            5.731922
| 18>   O                      -4.352424            -2.878573            4.845293
| 19>   H                      -4.531012            -2.479481            4.001761
| 20>   H                      -6.255409            -2.274834            5.542018
| 21>   H                      -4.978157            -2.425634            6.797351
| 22>   H                      -5.056658            -1.138531            5.729317
| 23> *
| 24>
| 25> #Run DFT-D3 single point of the molecule with dimer basis set
| 26> $new_job
| 27> %base "10-204_DFT_A"
| 28> ! wB97X-D3 def2-TZVP TIGHTSCF CHELPG PMODEL
| 29>
| 30> %scf
| 31> MaxIter 1000
| 32> end
| 33>
| 34> * xyz 0 1
| 35>   C                      -0.976261            -4.778894            3.075659
| 36>   O                      -1.981688            -4.680600            4.052134
| 37>   H                      -2.180852            -3.778540            4.143792
| 38>   H                      -0.078852            -4.236185            3.416926
| 39>   H                      -0.658904            -5.813757            2.888926
| 40>   H                      -1.308365            -4.289112            2.135208
| 41>   C                    : -5.166520            -2.157854            5.731922
| 42>   O                    : -4.352424            -2.878573            4.845293
| 43>   H                    : -4.531012            -2.479481            4.001761
| 44>   H                    : -6.255409            -2.274834            5.542018
| 45>   H                    : -4.978157            -2.425634            6.797351
| 46>   H                    : -5.056658            -1.138531            5.729317
| 47> *
| 48>
| 49> #Run DFT-D3 single point of the particle with dimer basis set
| 50> $new_job
| 51> %base "10-204_DFT_B"
| 52> ! wB97X-D3 def2-TZVP TIGHTSCF CHELPG PMODEL
| 53>
| 54> %scf
| 55> MaxIter 1000
| 56> end
| 57>
| 58> * xyz 0 1
| 59>   C                    : -0.976261            -4.778894            3.075659
| 60>   O                    : -1.981688            -4.680600            4.052134
| 61>   H                    : -2.180852            -3.778540            4.143792
| 62>   H                    : -0.078852            -4.236185            3.416926
| 63>   H                    : -0.658904            -5.813757            2.888926
| 64>   H                    : -1.308365            -4.289112            2.135208
| 65>   C                      -5.166520            -2.157854            5.731922
| 66>   O                      -4.352424            -2.878573            4.845293
| 67>   H                      -4.531012            -2.479481            4.001761
| 68>   H                      -6.255409            -2.274834            5.542018
| 69>   H                      -4.978157            -2.425634            6.797351
| 70>   H                      -5.056658            -1.138531            5.729317
| 71> *
| 72>
| 73>                          ****END OF INPUT****
 Total Charge           Charge          ....    0
 Multiplicity           Mult            ....    1
 Number of Electrons    NEL             ....   36
Dispersion correction           -0.001213195
FINAL SINGLE POINT ENERGY      -231.466752346413
Dispersion correction           -0.000224851
FINAL SINGLE POINT ENERGY      -115.734978931051

CARTESIAN COORDINATES (ANGSTROEM)
---------------------------------
  C     -0.976261   -4.778894    3.075659
  O     -1.981688   -4.680600    4.052134
  H     -2.180852   -3.778540    4.143792
  H     -0.078852   -4.236185    3.416926
  H     -0.658904   -5.813757    2.888926
  H     -1.308365   -4.289112    2.135208
  C     -5.166520   -2.157854    5.731922
  O     -4.352424   -2.878573    4.845293
  H     -4.531012   -2.479481    4.001761
  H     -6.255409   -2.274834    5.542018
  H     -4.978157   -2.425634    6.797351
  H     -5.056658   -1.138531    5.729317

 Multiplicity           Mult            ....    1
 Number of Electrons    NEL             ....   18
 Basis Dimension        Dim             ....  172

ORBITAL ENERGIES
----------------

  NO   OCC          E(Eh)            E(eV)
   0   2.0000     -19.235740      -523.4311
   1   2.0000     -10.308573      -280.5105
   2   2.0000      -1.146954       -31.2102
   3   2.0000      -0.800700       -21.7882
   4   2.0000      -0.621890       -16.9225
   5   2.0000      -0.540219       -14.7001
   6   2.0000      -0.526978       -14.3398
   7   2.0000      -0.441684       -12.0188
   8   2.0000      -0.376176       -10.2363
   9   0.0000       0.094665         2.5760
  10   0.0000       0.119691         3.2570
  11   0.0000       0.152133         4.1398
  12   0.0000       0.193794         5.2734
  13   0.0000       0.201434         5.4813

MULLIKEN ATOMIC CHARGES
-----------------------
   0 C :    0.001249
   1 O :    0.001113
   2 H :   -0.011535
   3 H :   -0.000062
   4 H :    0.000012
   5 H :   -0.000093
   6 C :   -0.184765
   7 O :   -0.447900
   8 H :    0.314522
   9 H :    0.096480
  10 H :    0.116610
  11 H :    0.114371
Sum of atomic charges:   -0.0000000

LOEWDIN ATOMIC CHARGES
----------------------
   0 C :   -0.000216
   1 O :   -0.003578
   2 H :   -0.014557
   3 H :   -0.000002
   4 H :   -0.000003
   5 H :   -0.000009
   6 C :   -0.398241
   7 O :   -0.043198
   8 H :    0.169075
   9 H :    0.097814
  10 H :    0.114425
  11 H :    0.078490

  Mayer bond orders larger than 0.1
B(  6-C ,  7-O ) :   1.0002 B(  6-C ,  9-H ) :   0.9755 B(  6-C , 10-H ) :   0.9777
B(  6-C , 11-H ) :   0.9713 B(  7-O ,  8-H ) :   0.8996

Dispersion correction           -0.000234008
FINAL SINGLE POINT ENERGY      -115.730311302944

DIPOLE MOMENT
-------------
                                X             Y             Z
Electronic contribution:      1.23129      -1.03625      -1.14055
Nuclear contribution   :     -1.64658       1.60163       0.95214
                        -----------------------------------------
Total Dipole Moment    :     -0.41529       0.56538      -0.18841
                        -----------------------------------------
Magnitude (a.u.)       :      0.72637
Magnitude (Debye)      :      1.84629

Rotational constants in cm-1:     4.502921     0.839982     0.802101
Rotational constants in MHz : 134994.170182 25182.038481 24046.378764

                             ****ORCA TERMINATED NORMALLY****
TOTAL RUN TIME: 0 days 0 hours 1 minutes 3 seconds 864 msec
