                         Program Version 4.1.2  - RELEASE  -
|  1> #Run DFT-D3 single point of the dimer
|  2> ! wB97X-D3 def2-TZVP TIGHTSCF CHELPG PMODEL PAL8
|  3>
|  4> %base "18-81_DFT_AB"
|  5>
|  6> %scf
|  7> MaxIter 1000
|  8> end
|  9>
| 10> * xyz 0 1
| 11>   C                      1.101496             -2.053978            7.307832
| 12>   O                      1.384987             -2.297058            5.969188
| 13>   H                      1.151471             -3.185395            5.702275
| 14>   H                      1.317104             -1.048099            7.698919
| 15>   H                      0.046442             -2.231063            7.406682
| 16>   H                      1.610017             -2.809292            7.907819
| 17>   C                      4.314791             1.944755             9.566462
| 18>   O                      4.388719             1.792061             10.983726
| 19>   H                      3.553498             1.371571             11.172228
| 20>   H                      5.240343             2.315913             9.168318
| 21>   H                      4.116550             0.993853             9.151503
| 22>   H                      3.430578             2.508991             9.255235
| 23> *
| 24>
| 25> #Run DFT-D3 single point of the molecule with dimer basis set
| 26> $new_job
| 27> %base "18-81_DFT_A"
| 28> ! wB97X-D3 def2-TZVP TIGHTSCF CHELPG PMODEL
| 29>
| 30> %scf
| 31> MaxIter 1000
| 32> end
| 33>
| 34> * xyz 0 1
| 35>   C                      1.101496             -2.053978            7.307832
| 36>   O                      1.384987             -2.297058            5.969188
| 37>   H                      1.151471             -3.185395            5.702275
| 38>   H                      1.317104             -1.048099            7.698919
| 39>   H                      0.046442             -2.231063            7.406682
| 40>   H                      1.610017             -2.809292            7.907819
| 41>   C                    : 4.314791             1.944755             9.566462
| 42>   O                    : 4.388719             1.792061             10.983726
| 43>   H                    : 3.553498             1.371571             11.172228
| 44>   H                    : 5.240343             2.315913             9.168318
| 45>   H                    : 4.116550             0.993853             9.151503
| 46>   H                    : 3.430578             2.508991             9.255235
| 47> *
| 48>
| 49> #Run DFT-D3 single point of the particle with dimer basis set
| 50> $new_job
| 51> %base "18-81_DFT_B"
| 52> ! wB97X-D3 def2-TZVP TIGHTSCF CHELPG PMODEL
| 53>
| 54> %scf
| 55> MaxIter 1000
| 56> end
| 57>
| 58> * xyz 0 1
| 59>   C                    : 1.101496             -2.053978            7.307832
| 60>   O                    : 1.384987             -2.297058            5.969188
| 61>   H                    : 1.151471             -3.185395            5.702275
| 62>   H                    : 1.317104             -1.048099            7.698919
| 63>   H                    : 0.046442             -2.231063            7.406682
| 64>   H                    : 1.610017             -2.809292            7.907819
| 65>   C                      4.314791             1.944755             9.566462
| 66>   O                      4.388719             1.792061             10.983726
| 67>   H                      3.553498             1.371571             11.172228
| 68>   H                      5.240343             2.315913             9.168318
| 69>   H                      4.116550             0.993853             9.151503
| 70>   H                      3.430578             2.508991             9.255235
| 71> *
| 72>
| 73>                          ****END OF INPUT****
 Total Charge           Charge          ....    0
 Multiplicity           Mult            ....    1
 Number of Electrons    NEL             ....   36
Dispersion correction           -0.000608892
FINAL SINGLE POINT ENERGY      -231.462414523632
Dispersion correction           -0.000215820
FINAL SINGLE POINT ENERGY      -115.730485242505

CARTESIAN COORDINATES (ANGSTROEM)
---------------------------------
  C      1.101496   -2.053978    7.307832
  O      1.384987   -2.297058    5.969188
  H      1.151471   -3.185395    5.702275
  H      1.317104   -1.048099    7.698919
  H      0.046442   -2.231063    7.406682
  H      1.610017   -2.809292    7.907819
  C      4.314791    1.944755    9.566462
  O      4.388719    1.792061   10.983726
  H      3.553498    1.371571   11.172228
  H      5.240343    2.315913    9.168318
  H      4.116550    0.993853    9.151503
  H      3.430578    2.508991    9.255235

 Multiplicity           Mult            ....    1
 Number of Electrons    NEL             ....   18
 Basis Dimension        Dim             ....  172

ORBITAL ENERGIES
----------------

  NO   OCC          E(Eh)            E(eV)
   0   2.0000     -19.229429      -523.2594
   1   2.0000     -10.308221      -280.5009
   2   2.0000      -1.137256       -30.9463
   3   2.0000      -0.798249       -21.7215
   4   2.0000      -0.613365       -16.6905
   5   2.0000      -0.537407       -14.6236
   6   2.0000      -0.528841       -14.3905
   7   2.0000      -0.448438       -12.2026
   8   2.0000      -0.370895       -10.0926
   9   0.0000       0.080246         2.1836
  10   0.0000       0.111437         3.0324
  11   0.0000       0.149429         4.0662
  12   0.0000       0.168742         4.5917
  13   0.0000       0.187551         5.1035

MULLIKEN ATOMIC CHARGES
-----------------------
   0 C :   -0.000001
   1 O :    0.000002
   2 H :    0.000000
   3 H :   -0.000105
   4 H :   -0.000005
   5 H :   -0.000002
   6 C :   -0.173130
   7 O :   -0.465881
   8 H :    0.310291
   9 H :    0.122360
  10 H :    0.104567
  11 H :    0.101903
Sum of atomic charges:   -0.0000000

LOEWDIN ATOMIC CHARGES
----------------------
   0 C :   -0.000063
   1 O :   -0.000001
   2 H :   -0.000000
   3 H :   -0.000123
   4 H :   -0.000001
   5 H :   -0.000003
   6 C :   -0.370648
   7 O :   -0.083948
   8 H :    0.166525
   9 H :    0.104828
  10 H :    0.087771
  11 H :    0.095663

  Mayer bond orders larger than 0.1
B(  6-C ,  7-O ) :   0.9910 B(  6-C ,  9-H ) :   0.9738 B(  6-C , 10-H ) :   0.9851
B(  6-C , 11-H ) :   0.9754 B(  7-O ,  8-H ) :   0.9057

Dispersion correction           -0.000208495
FINAL SINGLE POINT ENERGY      -115.731807386163

DIPOLE MOMENT
-------------
                                X             Y             Z
Electronic contribution:      0.34530      -0.02875       1.79121
Nuclear contribution   :     -0.89058      -0.19754      -2.25053
                        -----------------------------------------
Total Dipole Moment    :     -0.54528      -0.22629      -0.45932
                        -----------------------------------------
Magnitude (a.u.)       :      0.74801
Magnitude (Debye)      :      1.90128

Rotational constants in cm-1:     4.345754     0.839010     0.796011
Rotational constants in MHz : 130282.424250 25152.881026 23863.805338

                             ****ORCA TERMINATED NORMALLY****
TOTAL RUN TIME: 0 days 0 hours 0 minutes 56 seconds 437 msec
