                         Program Version 4.1.2  - RELEASE  -
|  1> #Run DFT-D3 single point of the dimer
|  2> ! wB97X-D3 def2-TZVP TIGHTSCF CHELPG PMODEL PAL8
|  3>
|  4> %base "10-177_DFT_AB"
|  5>
|  6> %scf
|  7> MaxIter 1000
|  8> end
|  9>
| 10> * xyz 0 1
| 11>   C                      -4.577922            7.549913             -6.259814
| 12>   O                      -5.822441            8.040496             -5.765704
| 13>   H                      -6.112907            8.734380             -6.371668
| 14>   H                      -3.982501            6.991980             -5.461943
| 15>   H                      -4.767267            6.902026             -7.134338
| 16>   H                      -3.949636            8.337608             -6.698863
| 17>   C                      -5.495536            7.370046             -2.403780
| 18>   O                      -6.683170            7.089203             -3.125684
| 19>   H                      -6.694253            7.757936             -3.836494
| 20>   H                      -5.504102            6.859922             -1.431420
| 21>   H                      -4.645820            7.093379             -2.936219
| 22>   H                      -5.466681            8.422896             -2.156648
| 23> *
| 24>
| 25> #Run DFT-D3 single point of the molecule with dimer basis set
| 26> $new_job
| 27> %base "10-177_DFT_A"
| 28> ! wB97X-D3 def2-TZVP TIGHTSCF CHELPG PMODEL
| 29>
| 30> %scf
| 31> MaxIter 1000
| 32> end
| 33>
| 34> * xyz 0 1
| 35>   C                      -4.577922            7.549913             -6.259814
| 36>   O                      -5.822441            8.040496             -5.765704
| 37>   H                      -6.112907            8.734380             -6.371668
| 38>   H                      -3.982501            6.991980             -5.461943
| 39>   H                      -4.767267            6.902026             -7.134338
| 40>   H                      -3.949636            8.337608             -6.698863
| 41>   C                    : -5.495536            7.370046             -2.403780
| 42>   O                    : -6.683170            7.089203             -3.125684
| 43>   H                    : -6.694253            7.757936             -3.836494
| 44>   H                    : -5.504102            6.859922             -1.431420
| 45>   H                    : -4.645820            7.093379             -2.936219
| 46>   H                    : -5.466681            8.422896             -2.156648
| 47> *
| 48>
| 49> #Run DFT-D3 single point of the particle with dimer basis set
| 50> $new_job
| 51> %base "10-177_DFT_B"
| 52> ! wB97X-D3 def2-TZVP TIGHTSCF CHELPG PMODEL
| 53>
| 54> %scf
| 55> MaxIter 1000
| 56> end
| 57>
| 58> * xyz 0 1
| 59>   C                    : -4.577922            7.549913             -6.259814
| 60>   O                    : -5.822441            8.040496             -5.765704
| 61>   H                    : -6.112907            8.734380             -6.371668
| 62>   H                    : -3.982501            6.991980             -5.461943
| 63>   H                    : -4.767267            6.902026             -7.134338
| 64>   H                    : -3.949636            8.337608             -6.698863
| 65>   C                      -5.495536            7.370046             -2.403780
| 66>   O                      -6.683170            7.089203             -3.125684
| 67>   H                      -6.694253            7.757936             -3.836494
| 68>   H                      -5.504102            6.859922             -1.431420
| 69>   H                      -4.645820            7.093379             -2.936219
| 70>   H                      -5.466681            8.422896             -2.156648
| 71> *
| 72>
| 73>                          ****END OF INPUT****
 Total Charge           Charge          ....    0
 Multiplicity           Mult            ....    1
 Number of Electrons    NEL             ....   36
Dispersion correction           -0.001934568
FINAL SINGLE POINT ENERGY      -231.473268386300
Dispersion correction           -0.000248812
FINAL SINGLE POINT ENERGY      -115.733222698889

CARTESIAN COORDINATES (ANGSTROEM)
---------------------------------
  C     -4.577922    7.549913   -6.259814
  O     -5.822441    8.040496   -5.765704
  H     -6.112907    8.734380   -6.371668
  H     -3.982501    6.991980   -5.461943
  H     -4.767267    6.902026   -7.134338
  H     -3.949636    8.337608   -6.698863
  C     -5.495536    7.370046   -2.403780
  O     -6.683170    7.089203   -3.125684
  H     -6.694253    7.757936   -3.836494
  H     -5.504102    6.859922   -1.431420
  H     -4.645820    7.093379   -2.936219
  H     -5.466681    8.422896   -2.156648

 Multiplicity           Mult            ....    1
 Number of Electrons    NEL             ....   18
 Basis Dimension        Dim             ....  172

ORBITAL ENERGIES
----------------

  NO   OCC          E(Eh)            E(eV)
   0   2.0000     -19.231590      -523.3182
   1   2.0000     -10.305898      -280.4377
   2   2.0000      -1.134036       -30.8587
   3   2.0000      -0.797157       -21.6918
   4   2.0000      -0.607243       -16.5239
   5   2.0000      -0.553186       -15.0529
   6   2.0000      -0.524948       -14.2846
   7   2.0000      -0.434709       -11.8290
   8   2.0000      -0.375768       -10.2252
   9   0.0000       0.073350         1.9960
  10   0.0000       0.129053         3.5117
  11   0.0000       0.145722         3.9653
  12   0.0000       0.173928         4.7328
  13   0.0000       0.197957         5.3867

MULLIKEN ATOMIC CHARGES
-----------------------
   0 C :   -0.002470
   1 O :   -0.004665
   2 H :   -0.000453
   3 H :    0.000349
   4 H :    0.000220
   5 H :   -0.000002
   6 C :   -0.172871
   7 O :   -0.468572
   8 H :    0.315141
   9 H :    0.118433
  10 H :    0.109911
  11 H :    0.104979
Sum of atomic charges:   -0.0000000

LOEWDIN ATOMIC CHARGES
----------------------
   0 C :   -0.003679
   1 O :   -0.014777
   2 H :   -0.000905
   3 H :   -0.001615
   4 H :   -0.000044
   5 H :   -0.000058
   6 C :   -0.375457
   7 O :   -0.076976
   8 H :    0.183303
   9 H :    0.110843
  10 H :    0.084189
  11 H :    0.095176

  Mayer bond orders larger than 0.1
B(  6-C ,  7-O ) :   1.0021 B(  6-C ,  9-H ) :   0.9742 B(  6-C , 10-H ) :   0.9724
B(  6-C , 11-H ) :   0.9879 B(  7-O ,  8-H ) :   0.9011

Dispersion correction           -0.000218053
FINAL SINGLE POINT ENERGY      -115.734261135363

DIPOLE MOMENT
-------------
                                X             Y             Z
Electronic contribution:     -1.47725      -0.53659      -0.86618
Nuclear contribution   :      1.94714       1.06017       0.73616
                        -----------------------------------------
Total Dipole Moment    :      0.46989       0.52358      -0.13002
                        -----------------------------------------
Magnitude (a.u.)       :      0.71542
Magnitude (Debye)      :      1.81846

Rotational constants in cm-1:     4.351827     0.836545     0.805590
Rotational constants in MHz : 130464.483882 25078.981052 24150.989421

                             ****ORCA TERMINATED NORMALLY****
TOTAL RUN TIME: 0 days 0 hours 1 minutes 7 seconds 674 msec
