                         Program Version 4.1.2  - RELEASE  -
|  1> #Run DFT-D3 single point of the dimer
|  2> ! wB97X-D3 def2-TZVP TIGHTSCF  CHELPG PAL8
|  3>
|  4> %base "139_charges"
|  5>
|  6> %scf
|  7> MaxIter 1000
|  8> end
|  9> %output
| 10>   Print[ P_Mayer ] 1
| 11>   Print[ P_NatPop ] 1
| 12>   Print[ P_Hirshfeld ] 1
| 13>   Print[ P_Mulliken ] 1
| 14>   Print [ P_Loewdin ] 1
| 15> end
| 16>
| 17> * xyz 0 1
| 18>   C                      -0.924680            -4.427317            -0.750055
| 19>   O                      0.429760             -4.168611            -1.123283
| 20>   H                      1.133390             -4.645305            -0.624123
| 21>   H                      -1.646051            -3.812803            -1.363401
| 22>   H                      -1.208949            -5.459957            -1.110140
| 23>   H                      -1.215006            -4.244556            0.305782
| 24> *
| 25>
| 26>                          ****END OF INPUT****

CARTESIAN COORDINATES (ANGSTROEM)
---------------------------------
  C     -0.924680   -4.427317   -0.750055
  O      0.429760   -4.168611   -1.123283
  H      1.133390   -4.645305   -0.624123
  H     -1.646051   -3.812803   -1.363401
  H     -1.208949   -5.459957   -1.110140
  H     -1.215006   -4.244556    0.305782

 Total Charge           Charge          ....    0
 Multiplicity           Mult            ....    1
 Number of Electrons    NEL             ....   18
 Basis Dimension        Dim             ....   86

ORBITAL ENERGIES
----------------

  NO   OCC          E(Eh)            E(eV)
   0   2.0000     -19.231604      -523.3185
   1   2.0000     -10.325094      -280.9601
   2   2.0000      -1.122228       -30.5374
   3   2.0000      -0.792943       -21.5771
   4   2.0000      -0.605536       -16.4775
   5   2.0000      -0.538253       -14.6466
   6   2.0000      -0.519692       -14.1415
   7   2.0000      -0.417341       -11.3564
   8   2.0000      -0.373461       -10.1624
   9   0.0000       0.115258         3.1363
  10   0.0000       0.144535         3.9330
  11   0.0000       0.199379         5.4254
  12   0.0000       0.201190         5.4746
  13   0.0000       0.220994         6.0136

MULLIKEN ATOMIC CHARGES
-----------------------
   0 C :   -0.149646
   1 O :   -0.497977
   2 H :    0.324732
   3 H :    0.116223
   4 H :    0.099529
   5 H :    0.107138
Sum of atomic charges:    0.0000000

LOEWDIN ATOMIC CHARGES
----------------------
   0 C :   -0.390305
   1 O :   -0.103616
   2 H :    0.181417
   3 H :    0.114904
   4 H :    0.100773
   5 H :    0.096828

  Mayer bond orders larger than 0.1
B(  0-C ,  1-O ) :   0.9994 B(  0-C ,  3-H ) :   0.9702 B(  0-C ,  4-H ) :   0.9804
B(  0-C ,  5-H ) :   0.9655 B(  1-O ,  2-H ) :   0.8836

Dispersion correction           -0.000300486
FINAL SINGLE POINT ENERGY      -115.728621693623

DIPOLE MOMENT
-------------
                                X             Y             Z
Electronic contribution:      1.79066       0.45140      -0.40146
Nuclear contribution   :     -1.90323      -0.85443       0.86735
                        -----------------------------------------
Total Dipole Moment    :     -0.11256      -0.40304       0.46588
                        -----------------------------------------
Magnitude (a.u.)       :      0.62622
Magnitude (Debye)      :      1.59173

Rotational constants in cm-1:     4.305506     0.786631     0.769568
Rotational constants in MHz : 129075.817051 23582.612557 23071.075189

                             ****ORCA TERMINATED NORMALLY****
TOTAL RUN TIME: 0 days 0 hours 0 minutes 40 seconds 608 msec
