                         Program Version 4.1.2  - RELEASE  -
|  1> #Run DFT-D3 single point of the dimer
|  2> ! wB97X-D3 def2-TZVP TIGHTSCF CHELPG PMODEL PAL8
|  3>
|  4> %base "19-121_DFT_AB"
|  5>
|  6> %scf
|  7> MaxIter 1000
|  8> end
|  9>
| 10> * xyz 0 1
| 11>   C                      -0.942349            -0.312623            6.462802
| 12>   O                      -1.254387            -1.464392            7.229617
| 13>   H                      -0.880571            -2.244624            6.848968
| 14>   H                      -1.109190            -0.446360            5.396069
| 15>   H                      -1.477128            0.535260             6.817403
| 16>   H                      0.090158             -0.179774            6.506438
| 17>   C                      -6.295172            -0.932665            9.024132
| 18>   O                      -5.551728            -2.079553            8.661784
| 19>   H                      -4.841213            -2.128622            9.347700
| 20>   H                      -5.825474            -0.144839            9.515437
| 21>   H                      -6.774904            -0.515204            8.099150
| 22>   H                      -7.126621            -1.110847            9.700110
| 23> *
| 24>
| 25> #Run DFT-D3 single point of the molecule with dimer basis set
| 26> $new_job
| 27> %base "19-121_DFT_A"
| 28> ! wB97X-D3 def2-TZVP TIGHTSCF CHELPG PMODEL
| 29>
| 30> %scf
| 31> MaxIter 1000
| 32> end
| 33>
| 34> * xyz 0 1
| 35>   C                      -0.942349            -0.312623            6.462802
| 36>   O                      -1.254387            -1.464392            7.229617
| 37>   H                      -0.880571            -2.244624            6.848968
| 38>   H                      -1.109190            -0.446360            5.396069
| 39>   H                      -1.477128            0.535260             6.817403
| 40>   H                      0.090158             -0.179774            6.506438
| 41>   C                    : -6.295172            -0.932665            9.024132
| 42>   O                    : -5.551728            -2.079553            8.661784
| 43>   H                    : -4.841213            -2.128622            9.347700
| 44>   H                    : -5.825474            -0.144839            9.515437
| 45>   H                    : -6.774904            -0.515204            8.099150
| 46>   H                    : -7.126621            -1.110847            9.700110
| 47> *
| 48>
| 49> #Run DFT-D3 single point of the particle with dimer basis set
| 50> $new_job
| 51> %base "19-121_DFT_B"
| 52> ! wB97X-D3 def2-TZVP TIGHTSCF CHELPG PMODEL
| 53>
| 54> %scf
| 55> MaxIter 1000
| 56> end
| 57>
| 58> * xyz 0 1
| 59>   C                    : -0.942349            -0.312623            6.462802
| 60>   O                    : -1.254387            -1.464392            7.229617
| 61>   H                    : -0.880571            -2.244624            6.848968
| 62>   H                    : -1.109190            -0.446360            5.396069
| 63>   H                    : -1.477128            0.535260             6.817403
| 64>   H                    : 0.090158             -0.179774            6.506438
| 65>   C                      -6.295172            -0.932665            9.024132
| 66>   O                      -5.551728            -2.079553            8.661784
| 67>   H                      -4.841213            -2.128622            9.347700
| 68>   H                      -5.825474            -0.144839            9.515437
| 69>   H                      -6.774904            -0.515204            8.099150
| 70>   H                      -7.126621            -1.110847            9.700110
| 71> *
| 72>
| 73>                          ****END OF INPUT****
 Total Charge           Charge          ....    0
 Multiplicity           Mult            ....    1
 Number of Electrons    NEL             ....   36
Dispersion correction           -0.000681189
FINAL SINGLE POINT ENERGY      -231.461495557830
Dispersion correction           -0.000226066
FINAL SINGLE POINT ENERGY      -115.732069160200

CARTESIAN COORDINATES (ANGSTROEM)
---------------------------------
  C     -0.942349   -0.312623    6.462802
  O     -1.254387   -1.464392    7.229617
  H     -0.880571   -2.244624    6.848968
  H     -1.109190   -0.446360    5.396069
  H     -1.477128    0.535260    6.817403
  H      0.090158   -0.179774    6.506438
  C     -6.295172   -0.932665    9.024132
  O     -5.551728   -2.079553    8.661784
  H     -4.841213   -2.128622    9.347700
  H     -5.825474   -0.144839    9.515437
  H     -6.774904   -0.515204    8.099150
  H     -7.126621   -1.110847    9.700110

 Multiplicity           Mult            ....    1
 Number of Electrons    NEL             ....   18
 Basis Dimension        Dim             ....  172

ORBITAL ENERGIES
----------------

  NO   OCC          E(Eh)            E(eV)
   0   2.0000     -19.238884      -523.5167
   1   2.0000     -10.308379      -280.5053
   2   2.0000      -1.135479       -30.8980
   3   2.0000      -0.798101       -21.7174
   4   2.0000      -0.617947       -16.8152
   5   2.0000      -0.532112       -14.4795
   6   2.0000      -0.522030       -14.2052
   7   2.0000      -0.444935       -12.1073
   8   2.0000      -0.373487       -10.1631
   9   0.0000       0.086806         2.3621
  10   0.0000       0.112423         3.0592
  11   0.0000       0.149584         4.0704
  12   0.0000       0.168311         4.5800
  13   0.0000       0.193506         5.2656

MULLIKEN ATOMIC CHARGES
-----------------------
   0 C :   -0.000216
   1 O :   -0.000008
   2 H :   -0.000008
   3 H :    0.000016
   4 H :    0.000014
   5 H :   -0.000002
   6 C :   -0.177827
   7 O :   -0.460696
   8 H :    0.315882
   9 H :    0.114227
  10 H :    0.110937
  11 H :    0.097682
Sum of atomic charges:    0.0000000

LOEWDIN ATOMIC CHARGES
----------------------
   0 C :   -0.000069
   1 O :   -0.000083
   2 H :   -0.000017
   3 H :   -0.000000
   4 H :   -0.000005
   5 H :   -0.000004
   6 C :   -0.397240
   7 O :   -0.081504
   8 H :    0.188953
   9 H :    0.083571
  10 H :    0.113426
  11 H :    0.092972

  Mayer bond orders larger than 0.1
B(  6-C ,  7-O ) :   1.0156 B(  6-C ,  9-H ) :   0.9735 B(  6-C , 10-H ) :   0.9805
B(  6-C , 11-H ) :   0.9724 B(  7-O ,  8-H ) :   0.8976

Dispersion correction           -0.000255298
FINAL SINGLE POINT ENERGY      -115.728998501465

DIPOLE MOMENT
-------------
                                X             Y             Z
Electronic contribution:      1.05890      -1.57490      -0.55966
Nuclear contribution   :     -0.88552       2.00212       1.14009
                        -----------------------------------------
Total Dipole Moment    :      0.17337       0.42722       0.58043
                        -----------------------------------------
Magnitude (a.u.)       :      0.74127
Magnitude (Debye)      :      1.88415

Rotational constants in cm-1:     4.450221     0.827295     0.788286
Rotational constants in MHz : 133414.278150 24801.678231 23632.216217

                             ****ORCA TERMINATED NORMALLY****
TOTAL RUN TIME: 0 days 0 hours 0 minutes 44 seconds 943 msec
