                         Program Version 4.1.2  - RELEASE  -
|  1> #Run DFT-D3 single point of the dimer
|  2> ! wB97X-D3 def2-TZVP TIGHTSCF CHELPG PMODEL PAL8
|  3>
|  4> %base "11-10_DFT_AB"
|  5>
|  6> %scf
|  7> MaxIter 1000
|  8> end
|  9>
| 10> * xyz 0 1
| 11>   C                      -2.148013            2.129847             1.911966
| 12>   O                      -0.703100            2.202816             2.039990
| 13>   H                      -0.327344            2.930984             1.522731
| 14>   H                      -2.414317            2.238284             0.914172
| 15>   H                      -2.582117            1.155431             2.198879
| 16>   H                      -2.594961            2.946416             2.554262
| 17>   C                      -2.004281            -1.792086            -0.094840
| 18>   O                      -1.622860            -1.390812            -1.373817
| 19>   H                      -1.735763            -2.098400            -2.056411
| 20>   H                      -2.906951            -2.470413            0.013711
| 21>   H                      -1.205589            -2.376961            0.445969
| 22>   H                      -2.270964            -1.025600            0.552701
| 23> *
| 24>
| 25> #Run DFT-D3 single point of the molecule with dimer basis set
| 26> $new_job
| 27> %base "11-10_DFT_A"
| 28> ! wB97X-D3 def2-TZVP TIGHTSCF CHELPG PMODEL
| 29>
| 30> %scf
| 31> MaxIter 1000
| 32> end
| 33>
| 34> * xyz 0 1
| 35>   C                      -2.148013            2.129847             1.911966
| 36>   O                      -0.703100            2.202816             2.039990
| 37>   H                      -0.327344            2.930984             1.522731
| 38>   H                      -2.414317            2.238284             0.914172
| 39>   H                      -2.582117            1.155431             2.198879
| 40>   H                      -2.594961            2.946416             2.554262
| 41>   C                    : -2.004281            -1.792086            -0.094840
| 42>   O                    : -1.622860            -1.390812            -1.373817
| 43>   H                    : -1.735763            -2.098400            -2.056411
| 44>   H                    : -2.906951            -2.470413            0.013711
| 45>   H                    : -1.205589            -2.376961            0.445969
| 46>   H                    : -2.270964            -1.025600            0.552701
| 47> *
| 48>
| 49> #Run DFT-D3 single point of the particle with dimer basis set
| 50> $new_job
| 51> %base "11-10_DFT_B"
| 52> ! wB97X-D3 def2-TZVP TIGHTSCF CHELPG PMODEL
| 53>
| 54> %scf
| 55> MaxIter 1000
| 56> end
| 57>
| 58> * xyz 0 1
| 59>   C                    : -2.148013            2.129847             1.911966
| 60>   O                    : -0.703100            2.202816             2.039990
| 61>   H                    : -0.327344            2.930984             1.522731
| 62>   H                    : -2.414317            2.238284             0.914172
| 63>   H                    : -2.582117            1.155431             2.198879
| 64>   H                    : -2.594961            2.946416             2.554262
| 65>   C                      -2.004281            -1.792086            -0.094840
| 66>   O                      -1.622860            -1.390812            -1.373817
| 67>   H                      -1.735763            -2.098400            -2.056411
| 68>   H                      -2.906951            -2.470413            0.013711
| 69>   H                      -1.205589            -2.376961            0.445969
| 70>   H                      -2.270964            -1.025600            0.552701
| 71> *
| 72>
| 73>                          ****END OF INPUT****
 Total Charge           Charge          ....    0
 Multiplicity           Mult            ....    1
 Number of Electrons    NEL             ....   36
Dispersion correction           -0.001198624
FINAL SINGLE POINT ENERGY      -231.458521499871
Dispersion correction           -0.000260017
FINAL SINGLE POINT ENERGY      -115.729946225362

CARTESIAN COORDINATES (ANGSTROEM)
---------------------------------
  C     -2.148013    2.129847    1.911966
  O     -0.703100    2.202816    2.039990
  H     -0.327344    2.930984    1.522731
  H     -2.414317    2.238284    0.914172
  H     -2.582117    1.155431    2.198879
  H     -2.594961    2.946416    2.554262
  C     -2.004281   -1.792086   -0.094840
  O     -1.622860   -1.390812   -1.373817
  H     -1.735763   -2.098400   -2.056411
  H     -2.906951   -2.470413    0.013711
  H     -1.205589   -2.376961    0.445969
  H     -2.270964   -1.025600    0.552701

 Multiplicity           Mult            ....    1
 Number of Electrons    NEL             ....   18
 Basis Dimension        Dim             ....  172

ORBITAL ENERGIES
----------------

  NO   OCC          E(Eh)            E(eV)
   0   2.0000     -19.237413      -523.4766
   1   2.0000     -10.313257      -280.6380
   2   2.0000      -1.136446       -30.9243
   3   2.0000      -0.798426       -21.7263
   4   2.0000      -0.617163       -16.7938
   5   2.0000      -0.540778       -14.7153
   6   2.0000      -0.525088       -14.2884
   7   2.0000      -0.426586       -11.6080
   8   2.0000      -0.372216       -10.1285
   9   0.0000       0.089364         2.4317
  10   0.0000       0.113476         3.0878
  11   0.0000       0.145399         3.9565
  12   0.0000       0.169826         4.6212
  13   0.0000       0.189935         5.1684

MULLIKEN ATOMIC CHARGES
-----------------------
   0 C :    0.000881
   1 O :   -0.000109
   2 H :   -0.000010
   3 H :   -0.000045
   4 H :   -0.000086
   5 H :    0.000096
   6 C :   -0.176954
   7 O :   -0.474535
   8 H :    0.326236
   9 H :    0.097666
  10 H :    0.096880
  11 H :    0.129980
Sum of atomic charges:   -0.0000000

LOEWDIN ATOMIC CHARGES
----------------------
   0 C :   -0.001430
   1 O :   -0.000005
   2 H :   -0.000002
   3 H :   -0.000134
   4 H :   -0.001527
   5 H :   -0.000004
   6 C :   -0.412247
   7 O :   -0.068722
   8 H :    0.190438
   9 H :    0.100873
  10 H :    0.098929
  11 H :    0.093830

  Mayer bond orders larger than 0.1
B(  6-C ,  7-O ) :   1.0217 B(  6-C ,  9-H ) :   0.9741 B(  6-C , 10-H ) :   0.9803
B(  6-C , 11-H ) :   0.9673 B(  7-O ,  8-H ) :   0.8856

Dispersion correction           -0.000282854
FINAL SINGLE POINT ENERGY      -115.727998505807

DIPOLE MOMENT
-------------
                                X             Y             Z
Electronic contribution:      0.55342       0.82501      -1.79198
Nuclear contribution   :     -0.79560      -1.40713       1.84225
                        -----------------------------------------
Total Dipole Moment    :     -0.24218      -0.58213       0.05027
                        -----------------------------------------
Magnitude (a.u.)       :      0.63250
Magnitude (Debye)      :      1.60768

Rotational constants in cm-1:     4.519591     0.818830     0.796296
Rotational constants in MHz : 135493.929299 24547.905020 23872.347355

                             ****ORCA TERMINATED NORMALLY****
TOTAL RUN TIME: 0 days 0 hours 1 minutes 9 seconds 208 msec
