                         Program Version 4.1.2  - RELEASE  -
|  1> #Run DFT-D3 single point of the dimer
|  2> ! wB97X-D3 def2-TZVP TIGHTSCF CHELPG PMODEL PAL8
|  3>
|  4> %base "11-190_DFT_AB"
|  5>
|  6> %scf
|  7> MaxIter 1000
|  8> end
|  9>
| 10> * xyz 0 1
| 11>   C                      -0.126466            -7.668901            -4.868698
| 12>   O                      0.538743             -8.388895            -5.905771
| 13>   H                      0.233319             -8.126804            -6.738606
| 14>   H                      -1.219544            -8.059974            -4.893778
| 15>   H                      0.273618             -7.846774            -3.918215
| 16>   H                      -0.142561            -6.508430            -5.077860
| 17>   C                      -0.907765            -10.387057           -7.837134
| 18>   O                      0.405391             -10.686019           -7.496707
| 19>   H                      0.426644             -10.754461           -6.527792
| 20>   H                      -1.282115            -9.678535            -7.062980
| 21>   H                      -0.910572            -9.964160            -8.848894
| 22>   H                      -1.557584            -11.213663           -7.775463
| 23> *
| 24>
| 25> #Run DFT-D3 single point of the molecule with dimer basis set
| 26> $new_job
| 27> %base "11-190_DFT_A"
| 28> ! wB97X-D3 def2-TZVP TIGHTSCF CHELPG PMODEL
| 29>
| 30> %scf
| 31> MaxIter 1000
| 32> end
| 33>
| 34> * xyz 0 1
| 35>   C                      -0.126466            -7.668901            -4.868698
| 36>   O                      0.538743             -8.388895            -5.905771
| 37>   H                      0.233319             -8.126804            -6.738606
| 38>   H                      -1.219544            -8.059974            -4.893778
| 39>   H                      0.273618             -7.846774            -3.918215
| 40>   H                      -0.142561            -6.508430            -5.077860
| 41>   C                    : -0.907765            -10.387057           -7.837134
| 42>   O                    : 0.405391             -10.686019           -7.496707
| 43>   H                    : 0.426644             -10.754461           -6.527792
| 44>   H                    : -1.282115            -9.678535            -7.062980
| 45>   H                    : -0.910572            -9.964160            -8.848894
| 46>   H                    : -1.557584            -11.213663           -7.775463
| 47> *
| 48>
| 49> #Run DFT-D3 single point of the particle with dimer basis set
| 50> $new_job
| 51> %base "11-190_DFT_B"
| 52> ! wB97X-D3 def2-TZVP TIGHTSCF CHELPG PMODEL
| 53>
| 54> %scf
| 55> MaxIter 1000
| 56> end
| 57>
| 58> * xyz 0 1
| 59>   C                    : -0.126466            -7.668901            -4.868698
| 60>   O                    : 0.538743             -8.388895            -5.905771
| 61>   H                    : 0.233319             -8.126804            -6.738606
| 62>   H                    : -1.219544            -8.059974            -4.893778
| 63>   H                    : 0.273618             -7.846774            -3.918215
| 64>   H                    : -0.142561            -6.508430            -5.077860
| 65>   C                      -0.907765            -10.387057           -7.837134
| 66>   O                      0.405391             -10.686019           -7.496707
| 67>   H                      0.426644             -10.754461           -6.527792
| 68>   H                      -1.282115            -9.678535            -7.062980
| 69>   H                      -0.910572            -9.964160            -8.848894
| 70>   H                      -1.557584            -11.213663           -7.775463
| 71> *
| 72>
| 73>                          ****END OF INPUT****
 Total Charge           Charge          ....    0
 Multiplicity           Mult            ....    1
 Number of Electrons    NEL             ....   36
Dispersion correction           -0.002054384
FINAL SINGLE POINT ENERGY      -231.462246811518
Dispersion correction           -0.000256206
FINAL SINGLE POINT ENERGY      -115.727053804349

CARTESIAN COORDINATES (ANGSTROEM)
---------------------------------
  C     -0.126466   -7.668901   -4.868698
  O      0.538743   -8.388895   -5.905771
  H      0.233319   -8.126804   -6.738606
  H     -1.219544   -8.059974   -4.893778
  H      0.273618   -7.846774   -3.918215
  H     -0.142561   -6.508430   -5.077860
  C     -0.907765  -10.387057   -7.837134
  O      0.405391  -10.686019   -7.496707
  H      0.426644  -10.754461   -6.527792
  H     -1.282115   -9.678535   -7.062980
  H     -0.910572   -9.964160   -8.848894
  H     -1.557584  -11.213663   -7.775463

 Multiplicity           Mult            ....    1
 Number of Electrons    NEL             ....   18
 Basis Dimension        Dim             ....  172

ORBITAL ENERGIES
----------------

  NO   OCC          E(Eh)            E(eV)
   0   2.0000     -19.230016      -523.2753
   1   2.0000     -10.308488      -280.5082
   2   2.0000      -1.143298       -31.1107
   3   2.0000      -0.792723       -21.5711
   4   2.0000      -0.617375       -16.7996
   5   2.0000      -0.544291       -14.8109
   6   2.0000      -0.531767       -14.4701
   7   2.0000      -0.435231       -11.8432
   8   2.0000      -0.369883       -10.0650
   9   0.0000       0.076885         2.0922
  10   0.0000       0.128038         3.4841
  11   0.0000       0.155316         4.2264
  12   0.0000       0.175948         4.7878
  13   0.0000       0.188027         5.1165

MULLIKEN ATOMIC CHARGES
-----------------------
   0 C :   -0.001516
   1 O :   -0.007486
   2 H :    0.000326
   3 H :    0.000019
   4 H :    0.000068
   5 H :   -0.000003
   6 C :   -0.165691
   7 O :   -0.460866
   8 H :    0.314665
   9 H :    0.094533
  10 H :    0.118139
  11 H :    0.107812
Sum of atomic charges:    0.0000000

LOEWDIN ATOMIC CHARGES
----------------------
   0 C :   -0.002926
   1 O :   -0.015760
   2 H :   -0.008623
   3 H :   -0.001507
   4 H :   -0.000028
   5 H :   -0.000023
   6 C :   -0.395162
   7 O :   -0.052746
   8 H :    0.179135
   9 H :    0.103090
  10 H :    0.110768
  11 H :    0.083783

  Mayer bond orders larger than 0.1
B(  6-C ,  7-O ) :   0.9930 B(  6-C ,  9-H ) :   0.9914 B(  6-C , 10-H ) :   0.9747
B(  6-C , 11-H ) :   0.9738 B(  7-O ,  8-H ) :   0.9003

Dispersion correction           -0.000210251
FINAL SINGLE POINT ENERGY      -115.733062294501

DIPOLE MOMENT
-------------
                                X             Y             Z
Electronic contribution:      1.71263      -0.45409       0.17454
Nuclear contribution   :     -2.19885       0.50667       0.29364
                        -----------------------------------------
Total Dipole Moment    :     -0.48621       0.05258       0.46818
                        -----------------------------------------
Magnitude (a.u.)       :      0.67702
Magnitude (Debye)      :      1.72086

Rotational constants in cm-1:     4.229666     0.873155     0.826789
Rotational constants in MHz : 126802.186914 26176.534136 24786.500134

                             ****ORCA TERMINATED NORMALLY****
TOTAL RUN TIME: 0 days 0 hours 1 minutes 9 seconds 306 msec
