                         Program Version 4.1.2  - RELEASE  -
|  1> #Run DFT-D3 single point of the dimer
|  2> ! wB97X-D3 def2-TZVP TIGHTSCF  CHELPG PAL8
|  3>
|  4> %base "191_charges"
|  5>
|  6> %scf
|  7> MaxIter 1000
|  8> end
|  9> %output
| 10>   Print[ P_Mayer ] 1
| 11>   Print[ P_NatPop ] 1
| 12>   Print[ P_Hirshfeld ] 1
| 13>   Print[ P_Mulliken ] 1
| 14>   Print [ P_Loewdin ] 1
| 15> end
| 16>
| 17> * xyz 0 1
| 18>   C                      3.598002             1.084443             4.554980
| 19>   O                      3.552048             0.633322             3.154209
| 20>   H                      2.611616             0.821296             2.895008
| 21>   H                      3.569478             2.186008             4.664372
| 22>   H                      2.923770             0.584426             5.189445
| 23>   H                      4.605427             0.784779             4.977506
| 24> *
| 25>
| 26>                          ****END OF INPUT****

CARTESIAN COORDINATES (ANGSTROEM)
---------------------------------
  C      3.598002    1.084443    4.554980
  O      3.552048    0.633322    3.154209
  H      2.611616    0.821296    2.895008
  H      3.569478    2.186008    4.664372
  H      2.923770    0.584426    5.189445
  H      4.605427    0.784779    4.977506

 Total Charge           Charge          ....    0
 Multiplicity           Mult            ....    1
 Number of Electrons    NEL             ....   18
 Basis Dimension        Dim             ....   86

ORBITAL ENERGIES
----------------

  NO   OCC          E(Eh)            E(eV)
   0   2.0000     -19.237004      -523.4655
   1   2.0000     -10.318685      -280.7857
   2   2.0000      -1.116816       -30.3901
   3   2.0000      -0.794733       -21.6258
   4   2.0000      -0.594546       -16.1784
   5   2.0000      -0.544769       -14.8239
   6   2.0000      -0.510955       -13.9038
   7   2.0000      -0.436798       -11.8859
   8   2.0000      -0.380071       -10.3422
   9   0.0000       0.112785         3.0690
  10   0.0000       0.147768         4.0210
  11   0.0000       0.194945         5.3047
  12   0.0000       0.204860         5.5745
  13   0.0000       0.216984         5.9044

MULLIKEN ATOMIC CHARGES
-----------------------
   0 C :   -0.183246
   1 O :   -0.473962
   2 H :    0.312998
   3 H :    0.112044
   4 H :    0.116772
   5 H :    0.115394
Sum of atomic charges:   -0.0000000

LOEWDIN ATOMIC CHARGES
----------------------
   0 C :   -0.358013
   1 O :   -0.128948
   2 H :    0.184543
   3 H :    0.099565
   4 H :    0.086162
   5 H :    0.116690

  Mayer bond orders larger than 0.1
B(  0-C ,  1-O ) :   1.0025 B(  0-C ,  3-H ) :   0.9710 B(  0-C ,  4-H ) :   0.9707
B(  0-C ,  5-H ) :   0.9765 B(  1-O ,  2-H ) :   0.9004

Dispersion correction           -0.000270476
FINAL SINGLE POINT ENERGY      -115.729964284307

DIPOLE MOMENT
-------------
                                X             Y             Z
Electronic contribution:     -0.07374      -0.59178      -1.77221
Nuclear contribution   :     -0.47301       0.87371       2.20979
                        -----------------------------------------
Total Dipole Moment    :     -0.54674       0.28193       0.43758
                        -----------------------------------------
Magnitude (a.u.)       :      0.75491
Magnitude (Debye)      :      1.91883

Rotational constants in cm-1:     4.211070     0.774906     0.750738
Rotational constants in MHz : 126244.705673 23231.104779 22506.568236

                             ****ORCA TERMINATED NORMALLY****
TOTAL RUN TIME: 0 days 0 hours 0 minutes 41 seconds 242 msec
