                         Program Version 4.1.2  - RELEASE  -
|  1> #Run DFT-D3 single point of the dimer
|  2> ! wB97X-D3 def2-TZVP TIGHTSCF CHELPG PMODEL PAL8
|  3>
|  4> %base "14-178_DFT_AB"
|  5>
|  6> %scf
|  7> MaxIter 1000
|  8> end
|  9>
| 10> * xyz 0 1
| 11>   C                      -2.126665            -0.208685            0.998271
| 12>   O                      -1.430245            -0.154038            2.216547
| 13>   H                      -0.941628            -0.970664            2.317989
| 14>   H                      -2.670236            -1.145597            0.868063
| 15>   H                      -2.929450            0.476689             0.924558
| 16>   H                      -1.504944            -0.030401            0.068087
| 17>   C                      1.734911             0.716800             4.327203
| 18>   O                      0.791648             -0.304132            4.276472
| 19>   H                      1.048376             -0.965579            3.642560
| 20>   H                      2.449839             0.542115             3.497208
| 21>   H                      1.264994             1.720495             4.343686
| 22>   H                      2.275467             0.636369             5.293535
| 23> *
| 24>
| 25> #Run DFT-D3 single point of the molecule with dimer basis set
| 26> $new_job
| 27> %base "14-178_DFT_A"
| 28> ! wB97X-D3 def2-TZVP TIGHTSCF CHELPG PMODEL
| 29>
| 30> %scf
| 31> MaxIter 1000
| 32> end
| 33>
| 34> * xyz 0 1
| 35>   C                      -2.126665            -0.208685            0.998271
| 36>   O                      -1.430245            -0.154038            2.216547
| 37>   H                      -0.941628            -0.970664            2.317989
| 38>   H                      -2.670236            -1.145597            0.868063
| 39>   H                      -2.929450            0.476689             0.924558
| 40>   H                      -1.504944            -0.030401            0.068087
| 41>   C                    : 1.734911             0.716800             4.327203
| 42>   O                    : 0.791648             -0.304132            4.276472
| 43>   H                    : 1.048376             -0.965579            3.642560
| 44>   H                    : 2.449839             0.542115             3.497208
| 45>   H                    : 1.264994             1.720495             4.343686
| 46>   H                    : 2.275467             0.636369             5.293535
| 47> *
| 48>
| 49> #Run DFT-D3 single point of the particle with dimer basis set
| 50> $new_job
| 51> %base "14-178_DFT_B"
| 52> ! wB97X-D3 def2-TZVP TIGHTSCF CHELPG PMODEL
| 53>
| 54> %scf
| 55> MaxIter 1000
| 56> end
| 57>
| 58> * xyz 0 1
| 59>   C                    : -2.126665            -0.208685            0.998271
| 60>   O                    : -1.430245            -0.154038            2.216547
| 61>   H                    : -0.941628            -0.970664            2.317989
| 62>   H                    : -2.670236            -1.145597            0.868063
| 63>   H                    : -2.929450            0.476689             0.924558
| 64>   H                    : -1.504944            -0.030401            0.068087
| 65>   C                      1.734911             0.716800             4.327203
| 66>   O                      0.791648             -0.304132            4.276472
| 67>   H                      1.048376             -0.965579            3.642560
| 68>   H                      2.449839             0.542115             3.497208
| 69>   H                      1.264994             1.720495             4.343686
| 70>   H                      2.275467             0.636369             5.293535
| 71> *
| 72>
| 73>                          ****END OF INPUT****
 Total Charge           Charge          ....    0
 Multiplicity           Mult            ....    1
 Number of Electrons    NEL             ....   36
Dispersion correction           -0.001402324
FINAL SINGLE POINT ENERGY      -231.462678517517
Dispersion correction           -0.000257649
FINAL SINGLE POINT ENERGY      -115.732917087723

CARTESIAN COORDINATES (ANGSTROEM)
---------------------------------
  C     -2.126665   -0.208685    0.998271
  O     -1.430245   -0.154038    2.216547
  H     -0.941628   -0.970664    2.317989
  H     -2.670236   -1.145597    0.868063
  H     -2.929450    0.476689    0.924558
  H     -1.504944   -0.030401    0.068087
  C      1.734911    0.716800    4.327203
  O      0.791648   -0.304132    4.276472
  H      1.048376   -0.965579    3.642560
  H      2.449839    0.542115    3.497208
  H      1.264994    1.720495    4.343686
  H      2.275467    0.636369    5.293535

 Multiplicity           Mult            ....    1
 Number of Electrons    NEL             ....   18
 Basis Dimension        Dim             ....  172

ORBITAL ENERGIES
----------------

  NO   OCC          E(Eh)            E(eV)
   0   2.0000     -19.226864      -523.1896
   1   2.0000     -10.316386      -280.7231
   2   2.0000      -1.143864       -31.1261
   3   2.0000      -0.792096       -21.5540
   4   2.0000      -0.615230       -16.7412
   5   2.0000      -0.540431       -14.7059
   6   2.0000      -0.535987       -14.5849
   7   2.0000      -0.428996       -11.6736
   8   2.0000      -0.367987       -10.0134
   9   0.0000       0.087545         2.3822
  10   0.0000       0.115804         3.1512
  11   0.0000       0.153820         4.1857
  12   0.0000       0.185513         5.0481
  13   0.0000       0.198500         5.4015

MULLIKEN ATOMIC CHARGES
-----------------------
   0 C :    0.000961
   1 O :   -0.000358
   2 H :   -0.009579
   3 H :   -0.000021
   4 H :    0.000097
   5 H :   -0.000104
   6 C :   -0.161999
   7 O :   -0.464427
   8 H :    0.319860
   9 H :    0.100928
  10 H :    0.113133
  11 H :    0.101510
Sum of atomic charges:    0.0000000

LOEWDIN ATOMIC CHARGES
----------------------
   0 C :   -0.000438
   1 O :   -0.007959
   2 H :   -0.008607
   3 H :   -0.000012
   4 H :   -0.000010
   5 H :   -0.000020
   6 C :   -0.403574
   7 O :   -0.049768
   8 H :    0.165923
   9 H :    0.099750
  10 H :    0.104912
  11 H :    0.099802

  Mayer bond orders larger than 0.1
B(  6-C ,  7-O ) :   1.0091 B(  6-C ,  9-H ) :   0.9906 B(  6-C , 10-H ) :   0.9718
B(  6-C , 11-H ) :   0.9743 B(  7-O ,  8-H ) :   0.8968

Dispersion correction           -0.000235125
FINAL SINGLE POINT ENERGY      -115.732850992090

DIPOLE MOMENT
-------------
                                X             Y             Z
Electronic contribution:     -1.29986      -1.18359      -0.04993
Nuclear contribution   :      1.84165       1.14004      -0.34123
                        -----------------------------------------
Total Dipole Moment    :      0.54179      -0.04355      -0.39115
                        -----------------------------------------
Magnitude (a.u.)       :      0.66966
Magnitude (Debye)      :      1.70213

Rotational constants in cm-1:     4.185458     0.859853     0.820505
Rotational constants in MHz : 125476.877153 25777.750773 24598.110191

                             ****ORCA TERMINATED NORMALLY****
TOTAL RUN TIME: 0 days 0 hours 1 minutes 1 seconds 900 msec
