                         Program Version 4.1.2  - RELEASE  -
|  1> #Run DFT-D3 single point of the dimer
|  2> ! wB97X-D3 def2-TZVP TIGHTSCF CHELPG PMODEL PAL8
|  3>
|  4> %base "17-120_DFT_AB"
|  5>
|  6> %scf
|  7> MaxIter 1000
|  8> end
|  9>
| 10> * xyz 0 1
| 11>   C                      -4.988998            9.601026             -3.583272
| 12>   O                      -3.625614            9.389035             -3.176934
| 13>   H                      -3.637029            9.435312             -2.249069
| 14>   H                      -5.701993            9.682365             -2.747060
| 15>   H                      -5.095622            10.449238            -4.301233
| 16>   H                      -5.365626            8.684799             -4.130717
| 17>   C                      -7.515037            5.582148             -3.315397
| 18>   O                      -6.525730            6.413087             -2.809489
| 19>   H                      -7.074586            7.115565             -2.361742
| 20>   H                      -8.167895            5.167696             -2.554163
| 21>   H                      -8.144789            6.128681             -3.981779
| 22>   H                      -7.049836            4.735349             -3.887886
| 23> *
| 24>
| 25> #Run DFT-D3 single point of the molecule with dimer basis set
| 26> $new_job
| 27> %base "17-120_DFT_A"
| 28> ! wB97X-D3 def2-TZVP TIGHTSCF CHELPG PMODEL
| 29>
| 30> %scf
| 31> MaxIter 1000
| 32> end
| 33>
| 34> * xyz 0 1
| 35>   C                      -4.988998            9.601026             -3.583272
| 36>   O                      -3.625614            9.389035             -3.176934
| 37>   H                      -3.637029            9.435312             -2.249069
| 38>   H                      -5.701993            9.682365             -2.747060
| 39>   H                      -5.095622            10.449238            -4.301233
| 40>   H                      -5.365626            8.684799             -4.130717
| 41>   C                    : -7.515037            5.582148             -3.315397
| 42>   O                    : -6.525730            6.413087             -2.809489
| 43>   H                    : -7.074586            7.115565             -2.361742
| 44>   H                    : -8.167895            5.167696             -2.554163
| 45>   H                    : -8.144789            6.128681             -3.981779
| 46>   H                    : -7.049836            4.735349             -3.887886
| 47> *
| 48>
| 49> #Run DFT-D3 single point of the particle with dimer basis set
| 50> $new_job
| 51> %base "17-120_DFT_B"
| 52> ! wB97X-D3 def2-TZVP TIGHTSCF CHELPG PMODEL
| 53>
| 54> %scf
| 55> MaxIter 1000
| 56> end
| 57>
| 58> * xyz 0 1
| 59>   C                    : -4.988998            9.601026             -3.583272
| 60>   O                    : -3.625614            9.389035             -3.176934
| 61>   H                    : -3.637029            9.435312             -2.249069
| 62>   H                    : -5.701993            9.682365             -2.747060
| 63>   H                    : -5.095622            10.449238            -4.301233
| 64>   H                    : -5.365626            8.684799             -4.130717
| 65>   C                      -7.515037            5.582148             -3.315397
| 66>   O                      -6.525730            6.413087             -2.809489
| 67>   H                      -7.074586            7.115565             -2.361742
| 68>   H                      -8.167895            5.167696             -2.554163
| 69>   H                      -8.144789            6.128681             -3.981779
| 70>   H                      -7.049836            4.735349             -3.887886
| 71> *
| 72>
| 73>                          ****END OF INPUT****
 Total Charge           Charge          ....    0
 Multiplicity           Mult            ....    1
 Number of Electrons    NEL             ....   36
Dispersion correction           -0.001418751
FINAL SINGLE POINT ENERGY      -231.464533957491
Dispersion correction           -0.000269140
FINAL SINGLE POINT ENERGY      -115.731780584509

CARTESIAN COORDINATES (ANGSTROEM)
---------------------------------
  C     -4.988998    9.601026   -3.583272
  O     -3.625614    9.389035   -3.176934
  H     -3.637029    9.435312   -2.249069
  H     -5.701993    9.682365   -2.747060
  H     -5.095622   10.449238   -4.301233
  H     -5.365626    8.684799   -4.130717
  C     -7.515037    5.582148   -3.315397
  O     -6.525730    6.413087   -2.809489
  H     -7.074586    7.115565   -2.361742
  H     -8.167895    5.167696   -2.554163
  H     -8.144789    6.128681   -3.981779
  H     -7.049836    4.735349   -3.887886

 Multiplicity           Mult            ....    1
 Number of Electrons    NEL             ....   18
 Basis Dimension        Dim             ....  172

ORBITAL ENERGIES
----------------

  NO   OCC          E(Eh)            E(eV)
   0   2.0000     -19.236442      -523.4502
   1   2.0000     -10.309801      -280.5439
   2   2.0000      -1.143949       -31.1284
   3   2.0000      -0.788570       -21.4581
   4   2.0000      -0.614590       -16.7238
   5   2.0000      -0.547076       -14.8867
   6   2.0000      -0.526438       -14.3251
   7   2.0000      -0.438656       -11.9364
   8   2.0000      -0.372378       -10.1329
   9   0.0000       0.086803         2.3620
  10   0.0000       0.120891         3.2896
  11   0.0000       0.155418         4.2291
  12   0.0000       0.173530         4.7220
  13   0.0000       0.195228         5.3124

MULLIKEN ATOMIC CHARGES
-----------------------
   0 C :    0.003085
   1 O :   -0.000159
   2 H :   -0.000046
   3 H :   -0.001428
   4 H :   -0.000261
   5 H :   -0.008266
   6 C :   -0.168913
   7 O :   -0.456583
   8 H :    0.318757
   9 H :    0.099365
  10 H :    0.099805
  11 H :    0.114643
Sum of atomic charges:   -0.0000000

LOEWDIN ATOMIC CHARGES
----------------------
   0 C :   -0.004652
   1 O :   -0.000025
   2 H :   -0.000040
   3 H :   -0.000956
   4 H :   -0.000032
   5 H :   -0.006454
   6 C :   -0.414770
   7 O :   -0.063465
   8 H :    0.198525
   9 H :    0.090640
  10 H :    0.086787
  11 H :    0.114442

  Mayer bond orders larger than 0.1
B(  6-C ,  7-O ) :   0.9996 B(  6-C ,  9-H ) :   0.9736 B(  6-C , 10-H ) :   0.9826
B(  6-C , 11-H ) :   0.9735 B(  7-O ,  8-H ) :   0.8933

Dispersion correction           -0.000208847
FINAL SINGLE POINT ENERGY      -115.732579797357

DIPOLE MOMENT
-------------
                                X             Y             Z
Electronic contribution:      1.44517       0.99050       0.63781
Nuclear contribution   :     -2.15539      -0.87979      -0.55404
                        -----------------------------------------
Total Dipole Moment    :     -0.71022       0.11071       0.08377
                        -----------------------------------------
Magnitude (a.u.)       :      0.72366
Magnitude (Debye)      :      1.83941

Rotational constants in cm-1:     4.195461     0.869033     0.824941
Rotational constants in MHz : 125776.759927 26052.951023 24731.094315

                             ****ORCA TERMINATED NORMALLY****
TOTAL RUN TIME: 0 days 0 hours 0 minutes 59 seconds 316 msec
