                         Program Version 4.1.2  - RELEASE  -
|  1> #Run DFT-D3 single point of the dimer
|  2> ! wB97X-D3 def2-TZVP TIGHTSCF CHELPG PMODEL PAL8
|  3>
|  4> %base "1-103_DFT_AB"
|  5>
|  6> %scf
|  7> MaxIter 1000
|  8> end
|  9>
| 10> * xyz 0 1
| 11>   C                      -0.021919            8.009453             2.783988
| 12>   O                      -0.528219            7.199774             3.833651
| 13>   H                      0.125578             6.504699             4.084652
| 14>   H                      0.915588             8.444604             3.152632
| 15>   H                      0.145282             7.447361             1.830952
| 16>   H                      -0.773289            8.872872             2.476492
| 17>   C                      -1.678072            3.140757             3.480192
| 18>   O                      -3.000675            3.465647             3.827159
| 19>   H                      -3.099264            3.477182             4.782687
| 20>   H                      -1.256777            2.459914             4.286220
| 21>   H                      -1.801124            2.478070             2.563600
| 22>   H                      -1.023869            4.026297             3.345611
| 23> *
| 24>
| 25> #Run DFT-D3 single point of the molecule with dimer basis set
| 26> $new_job
| 27> %base "1-103_DFT_A"
| 28> ! wB97X-D3 def2-TZVP TIGHTSCF CHELPG PMODEL
| 29>
| 30> %scf
| 31> MaxIter 1000
| 32> end
| 33>
| 34> * xyz 0 1
| 35>   C                      -0.021919            8.009453             2.783988
| 36>   O                      -0.528219            7.199774             3.833651
| 37>   H                      0.125578             6.504699             4.084652
| 38>   H                      0.915588             8.444604             3.152632
| 39>   H                      0.145282             7.447361             1.830952
| 40>   H                      -0.773289            8.872872             2.476492
| 41>   C                    : -1.678072            3.140757             3.480192
| 42>   O                    : -3.000675            3.465647             3.827159
| 43>   H                    : -3.099264            3.477182             4.782687
| 44>   H                    : -1.256777            2.459914             4.286220
| 45>   H                    : -1.801124            2.478070             2.563600
| 46>   H                    : -1.023869            4.026297             3.345611
| 47> *
| 48>
| 49> #Run DFT-D3 single point of the particle with dimer basis set
| 50> $new_job
| 51> %base "1-103_DFT_B"
| 52> ! wB97X-D3 def2-TZVP TIGHTSCF CHELPG PMODEL
| 53>
| 54> %scf
| 55> MaxIter 1000
| 56> end
| 57>
| 58> * xyz 0 1
| 59>   C                    : -0.021919            8.009453             2.783988
| 60>   O                    : -0.528219            7.199774             3.833651
| 61>   H                    : 0.125578             6.504699             4.084652
| 62>   H                    : 0.915588             8.444604             3.152632
| 63>   H                    : 0.145282             7.447361             1.830952
| 64>   H                    : -0.773289            8.872872             2.476492
| 65>   C                      -1.678072            3.140757             3.480192
| 66>   O                      -3.000675            3.465647             3.827159
| 67>   H                      -3.099264            3.477182             4.782687
| 68>   H                      -1.256777            2.459914             4.286220
| 69>   H                      -1.801124            2.478070             2.563600
| 70>   H                      -1.023869            4.026297             3.345611
| 71> *
| 72>
| 73>                          ****END OF INPUT****
 Total Charge           Charge          ....    0
 Multiplicity           Mult            ....    1
 Number of Electrons    NEL             ....   36
Dispersion correction           -0.001079288
FINAL SINGLE POINT ENERGY      -231.461056952272
Dispersion correction           -0.000261686
FINAL SINGLE POINT ENERGY      -115.729499619770

CARTESIAN COORDINATES (ANGSTROEM)
---------------------------------
  C     -0.021919    8.009453    2.783988
  O     -0.528219    7.199774    3.833651
  H      0.125578    6.504699    4.084652
  H      0.915588    8.444604    3.152632
  H      0.145282    7.447361    1.830952
  H     -0.773289    8.872872    2.476492
  C     -1.678072    3.140757    3.480192
  O     -3.000675    3.465647    3.827159
  H     -3.099264    3.477182    4.782687
  H     -1.256777    2.459914    4.286220
  H     -1.801124    2.478070    2.563600
  H     -1.023869    4.026297    3.345611

 Multiplicity           Mult            ....    1
 Number of Electrons    NEL             ....   18
 Basis Dimension        Dim             ....  172

ORBITAL ENERGIES
----------------

  NO   OCC          E(Eh)            E(eV)
   0   2.0000     -19.227363      -523.2032
   1   2.0000     -10.322578      -280.8916
   2   2.0000      -1.137151       -30.9434
   3   2.0000      -0.786773       -21.4092
   4   2.0000      -0.609599       -16.5880
   5   2.0000      -0.546637       -14.8748
   6   2.0000      -0.518690       -14.1143
   7   2.0000      -0.422971       -11.5096
   8   2.0000      -0.373628       -10.1669
   9   0.0000       0.084427         2.2974
  10   0.0000       0.113297         3.0830
  11   0.0000       0.149103         4.0573
  12   0.0000       0.169181         4.6037
  13   0.0000       0.188270         5.1231

MULLIKEN ATOMIC CHARGES
-----------------------
   0 C :    0.000181
   1 O :    0.000211
   2 H :   -0.000095
   3 H :   -0.000011
   4 H :   -0.000069
   5 H :   -0.000016
   6 C :   -0.170960
   7 O :   -0.471688
   8 H :    0.315418
   9 H :    0.100174
  10 H :    0.118697
  11 H :    0.108157
Sum of atomic charges:    0.0000000

LOEWDIN ATOMIC CHARGES
----------------------
   0 C :   -0.000132
   1 O :   -0.000322
   2 H :   -0.001307
   3 H :   -0.000000
   4 H :   -0.000046
   5 H :   -0.000002
   6 C :   -0.401827
   7 O :   -0.077556
   8 H :    0.166958
   9 H :    0.101241
  10 H :    0.115966
  11 H :    0.097027

  Mayer bond orders larger than 0.1
B(  6-C ,  7-O ) :   1.0010 B(  6-C ,  9-H ) :   0.9860 B(  6-C , 10-H ) :   0.9753
B(  6-C , 11-H ) :   0.9600 B(  7-O ,  8-H ) :   0.8995

Dispersion correction           -0.000247977
FINAL SINGLE POINT ENERGY      -115.731665627247

DIPOLE MOMENT
-------------
                                X             Y             Z
Electronic contribution:     -1.64917       0.57219       0.28017
Nuclear contribution   :      2.08426      -0.70601       0.21909
                        -----------------------------------------
Total Dipole Moment    :      0.43509      -0.13382       0.49926
                        -----------------------------------------
Magnitude (a.u.)       :      0.67563
Magnitude (Debye)      :      1.71731

Rotational constants in cm-1:     4.015428     0.836897     0.813484
Rotational constants in MHz : 120379.507291 25089.529767 24387.640883

                             ****ORCA TERMINATED NORMALLY****
TOTAL RUN TIME: 0 days 0 hours 4 minutes 10 seconds 654 msec
