                         Program Version 4.1.2  - RELEASE  -
|  1> #Run DFT-D3 single point of the dimer
|  2> ! wB97X-D3 def2-TZVP TIGHTSCF CHELPG PMODEL PAL8
|  3>
|  4> %base "15-69_DFT_AB"
|  5>
|  6> %scf
|  7> MaxIter 1000
|  8> end
|  9>
| 10> * xyz 0 1
| 11>   C                      0.395747             0.499302             3.166637
| 12>   O                      -0.741435            1.109411             2.820772
| 13>   H                      -1.443136            0.800324             3.428644
| 14>   H                      0.572906             0.753819             4.234277
| 15>   H                      0.320529             -0.597235            3.056164
| 16>   H                      1.203881             0.845296             2.442496
| 17>   C                      -4.269144            2.055567             5.808991
| 18>   O                      -5.267021            1.395423             6.577179
| 19>   H                      -5.608203            2.101774             7.139157
| 20>   H                      -4.525395            1.965355             4.778729
| 21>   H                      -4.252099            3.121950             6.038937
| 22>   H                      -3.231462            1.807759             6.003058
| 23> *
| 24>
| 25> #Run DFT-D3 single point of the molecule with dimer basis set
| 26> $new_job
| 27> %base "15-69_DFT_A"
| 28> ! wB97X-D3 def2-TZVP TIGHTSCF CHELPG PMODEL
| 29>
| 30> %scf
| 31> MaxIter 1000
| 32> end
| 33>
| 34> * xyz 0 1
| 35>   C                      0.395747             0.499302             3.166637
| 36>   O                      -0.741435            1.109411             2.820772
| 37>   H                      -1.443136            0.800324             3.428644
| 38>   H                      0.572906             0.753819             4.234277
| 39>   H                      0.320529             -0.597235            3.056164
| 40>   H                      1.203881             0.845296             2.442496
| 41>   C                    : -4.269144            2.055567             5.808991
| 42>   O                    : -5.267021            1.395423             6.577179
| 43>   H                    : -5.608203            2.101774             7.139157
| 44>   H                    : -4.525395            1.965355             4.778729
| 45>   H                    : -4.252099            3.121950             6.038937
| 46>   H                    : -3.231462            1.807759             6.003058
| 47> *
| 48>
| 49> #Run DFT-D3 single point of the particle with dimer basis set
| 50> $new_job
| 51> %base "15-69_DFT_B"
| 52> ! wB97X-D3 def2-TZVP TIGHTSCF CHELPG PMODEL
| 53>
| 54> %scf
| 55> MaxIter 1000
| 56> end
| 57>
| 58> * xyz 0 1
| 59>   C                    : 0.395747             0.499302             3.166637
| 60>   O                    : -0.741435            1.109411             2.820772
| 61>   H                    : -1.443136            0.800324             3.428644
| 62>   H                    : 0.572906             0.753819             4.234277
| 63>   H                    : 0.320529             -0.597235            3.056164
| 64>   H                    : 1.203881             0.845296             2.442496
| 65>   C                      -4.269144            2.055567             5.808991
| 66>   O                      -5.267021            1.395423             6.577179
| 67>   H                      -5.608203            2.101774             7.139157
| 68>   H                      -4.525395            1.965355             4.778729
| 69>   H                      -4.252099            3.121950             6.038937
| 70>   H                      -3.231462            1.807759             6.003058
| 71> *
| 72>
| 73>                          ****END OF INPUT****
 Total Charge           Charge          ....    0
 Multiplicity           Mult            ....    1
 Number of Electrons    NEL             ....   36
Dispersion correction           -0.000798629
FINAL SINGLE POINT ENERGY      -231.459430652032
Dispersion correction           -0.000199292
FINAL SINGLE POINT ENERGY      -115.728198456890

CARTESIAN COORDINATES (ANGSTROEM)
---------------------------------
  C      0.395747    0.499302    3.166637
  O     -0.741435    1.109411    2.820772
  H     -1.443136    0.800324    3.428644
  H      0.572906    0.753819    4.234277
  H      0.320529   -0.597235    3.056164
  H      1.203881    0.845296    2.442496
  C     -4.269144    2.055567    5.808991
  O     -5.267021    1.395423    6.577179
  H     -5.608203    2.101774    7.139157
  H     -4.525395    1.965355    4.778729
  H     -4.252099    3.121950    6.038937
  H     -3.231462    1.807759    6.003058

 Multiplicity           Mult            ....    1
 Number of Electrons    NEL             ....   18
 Basis Dimension        Dim             ....  172

ORBITAL ENERGIES
----------------

  NO   OCC          E(Eh)            E(eV)
   0   2.0000     -19.232190      -523.3345
   1   2.0000     -10.309235      -280.5285
   2   2.0000      -1.136479       -30.9252
   3   2.0000      -0.797600       -21.7038
   4   2.0000      -0.612859       -16.6768
   5   2.0000      -0.546460       -14.8699
   6   2.0000      -0.523441       -14.2435
   7   2.0000      -0.434576       -11.8254
   8   2.0000      -0.377338       -10.2679
   9   0.0000       0.085717         2.3325
  10   0.0000       0.111128         3.0239
  11   0.0000       0.141968         3.8631
  12   0.0000       0.184694         5.0258
  13   0.0000       0.190206         5.1758

MULLIKEN ATOMIC CHARGES
-----------------------
   0 C :   -0.000026
   1 O :   -0.000013
   2 H :    0.000065
   3 H :   -0.000024
   4 H :   -0.000001
   5 H :   -0.000001
   6 C :   -0.182820
   7 O :   -0.463395
   8 H :    0.317904
   9 H :    0.119103
  10 H :    0.101854
  11 H :    0.107353
Sum of atomic charges:    0.0000000

LOEWDIN ATOMIC CHARGES
----------------------
   0 C :   -0.000031
   1 O :   -0.000025
   2 H :   -0.000451
   3 H :   -0.000023
   4 H :   -0.000000
   5 H :   -0.000000
   6 C :   -0.381577
   7 O :   -0.084056
   8 H :    0.175481
   9 H :    0.097026
  10 H :    0.096934
  11 H :    0.096722

  Mayer bond orders larger than 0.1
B(  6-C ,  7-O ) :   1.0110 B(  6-C ,  9-H ) :   0.9792 B(  6-C , 10-H ) :   0.9914
B(  6-C , 11-H ) :   0.9663 B(  7-O ,  8-H ) :   0.9026

Dispersion correction           -0.000239590
FINAL SINGLE POINT ENERGY      -115.730626527774

DIPOLE MOMENT
-------------
                                X             Y             Z
Electronic contribution:     -1.24858      -1.12959       0.90332
Nuclear contribution   :      1.41932       1.86695      -0.84036
                        -----------------------------------------
Total Dipole Moment    :      0.17073       0.73736       0.06296
                        -----------------------------------------
Magnitude (a.u.)       :      0.75948
Magnitude (Debye)      :      1.93046

Rotational constants in cm-1:     4.399963     0.825356     0.798485
Rotational constants in MHz : 131907.585464 24743.543720 23937.990512

                             ****ORCA TERMINATED NORMALLY****
TOTAL RUN TIME: 0 days 0 hours 0 minutes 58 seconds 595 msec
