                         Program Version 4.1.2  - RELEASE  -
|  1> #Run DFT-D3 single point of the dimer
|  2> ! wB97X-D3 def2-TZVP TIGHTSCF CHELPG PMODEL PAL8
|  3>
|  4> %base "9-86_DFT_AB"
|  5>
|  6> %scf
|  7> MaxIter 1000
|  8> end
|  9>
| 10> * xyz 0 1
| 11>   C                      6.644204             -5.381908            9.413953
| 12>   O                      6.052512             -6.076243            8.369976
| 13>   H                      6.674226             -6.664635            7.970221
| 14>   H                      5.870115             -4.708260            9.921547
| 15>   H                      6.957315             -6.125516            10.130067
| 16>   H                      7.387805             -4.639974            9.029258
| 17>   C                      5.206334             -9.057863            6.597827
| 18>   O                      5.847438             -8.835371            5.336983
| 19>   H                      5.164536             -8.989231            4.744363
| 20>   H                      5.910274             -9.233634            7.412780
| 21>   H                      4.588259             -8.188817            6.926912
| 22>   H                      4.477473             -9.918150            6.582761
| 23> *
| 24>
| 25> #Run DFT-D3 single point of the molecule with dimer basis set
| 26> $new_job
| 27> %base "9-86_DFT_A"
| 28> ! wB97X-D3 def2-TZVP TIGHTSCF CHELPG PMODEL
| 29>
| 30> %scf
| 31> MaxIter 1000
| 32> end
| 33>
| 34> * xyz 0 1
| 35>   C                      6.644204             -5.381908            9.413953
| 36>   O                      6.052512             -6.076243            8.369976
| 37>   H                      6.674226             -6.664635            7.970221
| 38>   H                      5.870115             -4.708260            9.921547
| 39>   H                      6.957315             -6.125516            10.130067
| 40>   H                      7.387805             -4.639974            9.029258
| 41>   C                    : 5.206334             -9.057863            6.597827
| 42>   O                    : 5.847438             -8.835371            5.336983
| 43>   H                    : 5.164536             -8.989231            4.744363
| 44>   H                    : 5.910274             -9.233634            7.412780
| 45>   H                    : 4.588259             -8.188817            6.926912
| 46>   H                    : 4.477473             -9.918150            6.582761
| 47> *
| 48>
| 49> #Run DFT-D3 single point of the particle with dimer basis set
| 50> $new_job
| 51> %base "9-86_DFT_B"
| 52> ! wB97X-D3 def2-TZVP TIGHTSCF CHELPG PMODEL
| 53>
| 54> %scf
| 55> MaxIter 1000
| 56> end
| 57>
| 58> * xyz 0 1
| 59>   C                    : 6.644204             -5.381908            9.413953
| 60>   O                    : 6.052512             -6.076243            8.369976
| 61>   H                    : 6.674226             -6.664635            7.970221
| 62>   H                    : 5.870115             -4.708260            9.921547
| 63>   H                    : 6.957315             -6.125516            10.130067
| 64>   H                    : 7.387805             -4.639974            9.029258
| 65>   C                      5.206334             -9.057863            6.597827
| 66>   O                      5.847438             -8.835371            5.336983
| 67>   H                      5.164536             -8.989231            4.744363
| 68>   H                      5.910274             -9.233634            7.412780
| 69>   H                      4.588259             -8.188817            6.926912
| 70>   H                      4.477473             -9.918150            6.582761
| 71> *
| 72>
| 73>                          ****END OF INPUT****
 Total Charge           Charge          ....    0
 Multiplicity           Mult            ....    1
 Number of Electrons    NEL             ....   36
Dispersion correction           -0.001423841
FINAL SINGLE POINT ENERGY      -231.464652733659
Dispersion correction           -0.000228829
FINAL SINGLE POINT ENERGY      -115.731057963851

CARTESIAN COORDINATES (ANGSTROEM)
---------------------------------
  C      6.644204   -5.381908    9.413953
  O      6.052512   -6.076243    8.369976
  H      6.674226   -6.664635    7.970221
  H      5.870115   -4.708260    9.921547
  H      6.957315   -6.125516   10.130067
  H      7.387805   -4.639974    9.029258
  C      5.206334   -9.057863    6.597827
  O      5.847438   -8.835371    5.336983
  H      5.164536   -8.989231    4.744363
  H      5.910274   -9.233634    7.412780
  H      4.588259   -8.188817    6.926912
  H      4.477473   -9.918150    6.582761

 Multiplicity           Mult            ....    1
 Number of Electrons    NEL             ....   18
 Basis Dimension        Dim             ....  172

ORBITAL ENERGIES
----------------

  NO   OCC          E(Eh)            E(eV)
   0   2.0000     -19.231910      -523.3269
   1   2.0000     -10.321579      -280.8644
   2   2.0000      -1.146142       -31.1881
   3   2.0000      -0.795297       -21.6411
   4   2.0000      -0.613437       -16.6925
   5   2.0000      -0.531727       -14.4690
   6   2.0000      -0.529541       -14.4095
   7   2.0000      -0.445336       -12.1182
   8   2.0000      -0.376130       -10.2350
   9   0.0000       0.088173         2.3993
  10   0.0000       0.119019         3.2387
  11   0.0000       0.149595         4.0707
  12   0.0000       0.179025         4.8715
  13   0.0000       0.186849         5.0844

MULLIKEN ATOMIC CHARGES
-----------------------
   0 C :   -0.000262
   1 O :   -0.000075
   2 H :    0.001237
   3 H :   -0.000009
   4 H :    0.000002
   5 H :    0.000009
   6 C :   -0.194085
   7 O :   -0.452190
   8 H :    0.306344
   9 H :    0.123600
  10 H :    0.105879
  11 H :    0.109550
Sum of atomic charges:   -0.0000000

LOEWDIN ATOMIC CHARGES
----------------------
   0 C :   -0.000157
   1 O :   -0.001669
   2 H :   -0.002064
   3 H :   -0.000005
   4 H :   -0.000010
   5 H :   -0.000003
   6 C :   -0.381908
   7 O :   -0.062526
   8 H :    0.142420
   9 H :    0.106502
  10 H :    0.098575
  11 H :    0.100844

  Mayer bond orders larger than 0.1
B(  6-C ,  7-O ) :   0.9986 B(  6-C ,  9-H ) :   0.9749 B(  6-C , 10-H ) :   0.9703
B(  6-C , 11-H ) :   0.9765 B(  7-O ,  8-H ) :   0.9131

Dispersion correction           -0.000250537
FINAL SINGLE POINT ENERGY      -115.731813006126

DIPOLE MOMENT
-------------
                                X             Y             Z
Electronic contribution:      1.08031       0.30562      -1.63664
Nuclear contribution   :     -1.75783      -0.49589       1.75937
                        -----------------------------------------
Total Dipole Moment    :     -0.67752      -0.19027       0.12273
                        -----------------------------------------
Magnitude (a.u.)       :      0.71435
Magnitude (Debye)      :      1.81574

Rotational constants in cm-1:     4.309226     0.811222     0.780701
Rotational constants in MHz : 129187.341375 24319.823191 23404.832474

                             ****ORCA TERMINATED NORMALLY****
TOTAL RUN TIME: 0 days 0 hours 0 minutes 42 seconds 163 msec
