                         Program Version 4.1.2  - RELEASE  -
|  1> #Run DFT-D3 single point of the dimer
|  2> ! wB97X-D3 def2-TZVP TIGHTSCF CHELPG PMODEL PAL8
|  3>
|  4> %base "8-172_DFT_AB"
|  5>
|  6> %scf
|  7> MaxIter 1000
|  8> end
|  9>
| 10> * xyz 0 1
| 11>   C                      2.807809             1.595727             -8.249133
| 12>   O                      1.668170             1.187103             -9.046970
| 13>   H                      0.897189             1.090310             -8.473810
| 14>   H                      3.661164             1.092715             -8.703138
| 15>   H                      2.812202             2.699045             -8.311996
| 16>   H                      2.640956             1.285951             -7.219155
| 17>   C                      0.454296             1.063015             -5.066884
| 18>   O                      0.027373             1.018387             -6.371034
| 19>   H                      -0.179703            0.128811             -6.695658
| 20>   H                      1.451245             0.704450             -4.844679
| 21>   H                      0.373348             2.132470             -4.849588
| 22>   H                      -0.201784            0.501082             -4.370031
| 23> *
| 24>
| 25> #Run DFT-D3 single point of the molecule with dimer basis set
| 26> $new_job
| 27> %base "8-172_DFT_A"
| 28> ! wB97X-D3 def2-TZVP TIGHTSCF CHELPG PMODEL
| 29>
| 30> %scf
| 31> MaxIter 1000
| 32> end
| 33>
| 34> * xyz 0 1
| 35>   C                      2.807809             1.595727             -8.249133
| 36>   O                      1.668170             1.187103             -9.046970
| 37>   H                      0.897189             1.090310             -8.473810
| 38>   H                      3.661164             1.092715             -8.703138
| 39>   H                      2.812202             2.699045             -8.311996
| 40>   H                      2.640956             1.285951             -7.219155
| 41>   C                    : 0.454296             1.063015             -5.066884
| 42>   O                    : 0.027373             1.018387             -6.371034
| 43>   H                    : -0.179703            0.128811             -6.695658
| 44>   H                    : 1.451245             0.704450             -4.844679
| 45>   H                    : 0.373348             2.132470             -4.849588
| 46>   H                    : -0.201784            0.501082             -4.370031
| 47> *
| 48>
| 49> #Run DFT-D3 single point of the particle with dimer basis set
| 50> $new_job
| 51> %base "8-172_DFT_B"
| 52> ! wB97X-D3 def2-TZVP TIGHTSCF CHELPG PMODEL
| 53>
| 54> %scf
| 55> MaxIter 1000
| 56> end
| 57>
| 58> * xyz 0 1
| 59>   C                    : 2.807809             1.595727             -8.249133
| 60>   O                    : 1.668170             1.187103             -9.046970
| 61>   H                    : 0.897189             1.090310             -8.473810
| 62>   H                    : 3.661164             1.092715             -8.703138
| 63>   H                    : 2.812202             2.699045             -8.311996
| 64>   H                    : 2.640956             1.285951             -7.219155
| 65>   C                      0.454296             1.063015             -5.066884
| 66>   O                      0.027373             1.018387             -6.371034
| 67>   H                      -0.179703            0.128811             -6.695658
| 68>   H                      1.451245             0.704450             -4.844679
| 69>   H                      0.373348             2.132470             -4.849588
| 70>   H                      -0.201784            0.501082             -4.370031
| 71> *
| 72>
| 73>                          ****END OF INPUT****
 Total Charge           Charge          ....    0
 Multiplicity           Mult            ....    1
 Number of Electrons    NEL             ....   36
Dispersion correction           -0.002024238
FINAL SINGLE POINT ENERGY      -231.472027857777
Dispersion correction           -0.000234456
FINAL SINGLE POINT ENERGY      -115.733331316234

CARTESIAN COORDINATES (ANGSTROEM)
---------------------------------
  C      2.807809    1.595727   -8.249133
  O      1.668170    1.187103   -9.046970
  H      0.897189    1.090310   -8.473810
  H      3.661164    1.092715   -8.703138
  H      2.812202    2.699045   -8.311996
  H      2.640956    1.285951   -7.219155
  C      0.454296    1.063015   -5.066884
  O      0.027373    1.018387   -6.371034
  H     -0.179703    0.128811   -6.695658
  H      1.451245    0.704450   -4.844679
  H      0.373348    2.132470   -4.849588
  H     -0.201784    0.501082   -4.370031

 Multiplicity           Mult            ....    1
 Number of Electrons    NEL             ....   18
 Basis Dimension        Dim             ....  172

ORBITAL ENERGIES
----------------

  NO   OCC          E(Eh)            E(eV)
   0   2.0000     -19.231540      -523.3168
   1   2.0000     -10.310002      -280.5494
   2   2.0000      -1.145480       -31.1701
   3   2.0000      -0.796664       -21.6783
   4   2.0000      -0.624460       -16.9924
   5   2.0000      -0.540530       -14.7086
   6   2.0000      -0.528979       -14.3943
   7   2.0000      -0.426957       -11.6181
   8   2.0000      -0.372196       -10.1280
   9   0.0000       0.095894         2.6094
  10   0.0000       0.129199         3.5157
  11   0.0000       0.149950         4.0804
  12   0.0000       0.192890         5.2488
  13   0.0000       0.197311         5.3691

MULLIKEN ATOMIC CHARGES
-----------------------
   0 C :    0.004853
   1 O :    0.000454
   2 H :   -0.011492
   3 H :    0.000015
   4 H :   -0.001125
   5 H :   -0.003229
   6 C :   -0.133621
   7 O :   -0.472639
   8 H :    0.317541
   9 H :    0.092680
  10 H :    0.115744
  11 H :    0.090818
Sum of atomic charges:    0.0000000

LOEWDIN ATOMIC CHARGES
----------------------
   0 C :   -0.006696
   1 O :   -0.002592
   2 H :   -0.019603
   3 H :   -0.000069
   4 H :   -0.000240
   5 H :   -0.004431
   6 C :   -0.415050
   7 O :   -0.024949
   8 H :    0.176076
   9 H :    0.088284
  10 H :    0.114048
  11 H :    0.095222

  Mayer bond orders larger than 0.1
B(  6-C ,  7-O ) :   0.9976 B(  6-C ,  9-H ) :   0.9684 B(  6-C , 10-H ) :   0.9815
B(  6-C , 11-H ) :   0.9745 B(  7-O ,  8-H ) :   0.8896

Dispersion correction           -0.000250281
FINAL SINGLE POINT ENERGY      -115.733701313965

DIPOLE MOMENT
-------------
                                X             Y             Z
Electronic contribution:     -0.47993      -0.00085      -1.74180
Nuclear contribution   :      0.49018      -0.56034       2.03041
                        -----------------------------------------
Total Dipole Moment    :      0.01025      -0.56119       0.28861
                        -----------------------------------------
Magnitude (a.u.)       :      0.63114
Magnitude (Debye)      :      1.60422

Rotational constants in cm-1:     4.379855     0.865513     0.830252
Rotational constants in MHz : 131304.758920 25947.430697 24890.326569

                             ****ORCA TERMINATED NORMALLY****
TOTAL RUN TIME: 0 days 0 hours 0 minutes 45 seconds 225 msec
