                         Program Version 4.1.2  - RELEASE  -
|  1> #Run DFT-D3 single point of the dimer
|  2> ! wB97X-D3 def2-TZVP TIGHTSCF CHELPG PMODEL PAL8
|  3>
|  4> %base "9-151_DFT_AB"
|  5>
|  6> %scf
|  7> MaxIter 1000
|  8> end
|  9>
| 10> * xyz 0 1
| 11>   C                      10.075611            6.830938             -8.894365
| 12>   O                      8.833961             6.302375             -8.430890
| 13>   H                      8.378268             6.007736             -9.213528
| 14>   H                      10.782056            7.052458             -8.123057
| 15>   H                      10.633551            6.010513             -9.486578
| 16>   H                      10.056742            7.765154             -9.460617
| 17>   C                      7.155457             7.048348             -5.245436
| 18>   O                      8.111682             7.607375             -6.051942
| 19>   H                      8.181568             6.976840             -6.746608
| 20>   H                      7.198763             7.493300             -4.269922
| 21>   H                      6.164159             7.136600             -5.741470
| 22>   H                      7.250105             5.976703             -5.032908
| 23> *
| 24>
| 25> #Run DFT-D3 single point of the molecule with dimer basis set
| 26> $new_job
| 27> %base "9-151_DFT_A"
| 28> ! wB97X-D3 def2-TZVP TIGHTSCF CHELPG PMODEL
| 29>
| 30> %scf
| 31> MaxIter 1000
| 32> end
| 33>
| 34> * xyz 0 1
| 35>   C                      10.075611            6.830938             -8.894365
| 36>   O                      8.833961             6.302375             -8.430890
| 37>   H                      8.378268             6.007736             -9.213528
| 38>   H                      10.782056            7.052458             -8.123057
| 39>   H                      10.633551            6.010513             -9.486578
| 40>   H                      10.056742            7.765154             -9.460617
| 41>   C                    : 7.155457             7.048348             -5.245436
| 42>   O                    : 8.111682             7.607375             -6.051942
| 43>   H                    : 8.181568             6.976840             -6.746608
| 44>   H                    : 7.198763             7.493300             -4.269922
| 45>   H                    : 6.164159             7.136600             -5.741470
| 46>   H                    : 7.250105             5.976703             -5.032908
| 47> *
| 48>
| 49> #Run DFT-D3 single point of the particle with dimer basis set
| 50> $new_job
| 51> %base "9-151_DFT_B"
| 52> ! wB97X-D3 def2-TZVP TIGHTSCF CHELPG PMODEL
| 53>
| 54> %scf
| 55> MaxIter 1000
| 56> end
| 57>
| 58> * xyz 0 1
| 59>   C                    : 10.075611            6.830938             -8.894365
| 60>   O                    : 8.833961             6.302375             -8.430890
| 61>   H                    : 8.378268             6.007736             -9.213528
| 62>   H                    : 10.782056            7.052458             -8.123057
| 63>   H                    : 10.633551            6.010513             -9.486578
| 64>   H                    : 10.056742            7.765154             -9.460617
| 65>   C                      7.155457             7.048348             -5.245436
| 66>   O                      8.111682             7.607375             -6.051942
| 67>   H                      8.181568             6.976840             -6.746608
| 68>   H                      7.198763             7.493300             -4.269922
| 69>   H                      6.164159             7.136600             -5.741470
| 70>   H                      7.250105             5.976703             -5.032908
| 71> *
| 72>
| 73>                          ****END OF INPUT****
 Total Charge           Charge          ....    0
 Multiplicity           Mult            ....    1
 Number of Electrons    NEL             ....   36
Dispersion correction           -0.001589993
FINAL SINGLE POINT ENERGY      -231.470076927442
Dispersion correction           -0.000262798
FINAL SINGLE POINT ENERGY      -115.730815498261

CARTESIAN COORDINATES (ANGSTROEM)
---------------------------------
  C     10.075611    6.830938   -8.894365
  O      8.833961    6.302375   -8.430890
  H      8.378268    6.007736   -9.213528
  H     10.782056    7.052458   -8.123057
  H     10.633551    6.010513   -9.486578
  H     10.056742    7.765154   -9.460617
  C      7.155457    7.048348   -5.245436
  O      8.111682    7.607375   -6.051942
  H      8.181568    6.976840   -6.746608
  H      7.198763    7.493300   -4.269922
  H      6.164159    7.136600   -5.741470
  H      7.250105    5.976703   -5.032908

 Multiplicity           Mult            ....    1
 Number of Electrons    NEL             ....   18
 Basis Dimension        Dim             ....  172

ORBITAL ENERGIES
----------------

  NO   OCC          E(Eh)            E(eV)
   0   2.0000     -19.231899      -523.3266
   1   2.0000     -10.309196      -280.5275
   2   2.0000      -1.160091       -31.5677
   3   2.0000      -0.793835       -21.6013
   4   2.0000      -0.624582       -16.9957
   5   2.0000      -0.552052       -15.0221
   6   2.0000      -0.526736       -14.3332
   7   2.0000      -0.440245       -11.9797
   8   2.0000      -0.371709       -10.1147
   9   0.0000       0.075190         2.0460
  10   0.0000       0.127144         3.4598
  11   0.0000       0.158737         4.3195
  12   0.0000       0.170834         4.6486
  13   0.0000       0.194510         5.2929

MULLIKEN ATOMIC CHARGES
-----------------------
   0 C :    0.000386
   1 O :   -0.002173
   2 H :   -0.000123
   3 H :   -0.001503
   4 H :    0.000058
   5 H :   -0.000069
   6 C :   -0.176267
   7 O :   -0.443951
   8 H :    0.311631
   9 H :    0.119259
  10 H :    0.095079
  11 H :    0.097672
Sum of atomic charges:   -0.0000000

LOEWDIN ATOMIC CHARGES
----------------------
   0 C :   -0.004675
   1 O :   -0.020702
   2 H :   -0.001042
   3 H :   -0.000845
   4 H :   -0.000052
   5 H :   -0.000106
   6 C :   -0.423261
   7 O :   -0.019003
   8 H :    0.175192
   9 H :    0.104479
  10 H :    0.096949
  11 H :    0.093067

  Mayer bond orders larger than 0.1
B(  6-C ,  7-O ) :   1.0036 B(  6-C ,  9-H ) :   0.9735 B(  6-C , 10-H ) :   0.9821
B(  6-C , 11-H ) :   0.9740 B(  7-O ,  8-H ) :   0.9058

Dispersion correction           -0.000208225
FINAL SINGLE POINT ENERGY      -115.731682715111

DIPOLE MOMENT
-------------
                                X             Y             Z
Electronic contribution:      1.36550       0.93826      -0.96674
Nuclear contribution   :     -1.64306      -1.54330       0.84200
                        -----------------------------------------
Total Dipole Moment    :     -0.27756      -0.60504      -0.12473
                        -----------------------------------------
Magnitude (a.u.)       :      0.67726
Magnitude (Debye)      :      1.72145

Rotational constants in cm-1:     4.325455     0.880199     0.846485
Rotational constants in MHz : 129673.886554 26387.708141 25376.987483

                             ****ORCA TERMINATED NORMALLY****
TOTAL RUN TIME: 0 days 0 hours 0 minutes 46 seconds 507 msec
