                         Program Version 4.1.2  - RELEASE  -
|  1> #Run DFT-D3 single point of the dimer
|  2> ! wB97X-D3 def2-TZVP TIGHTSCF CHELPG PMODEL PAL8
|  3>
|  4> %base "8-23_DFT_AB"
|  5>
|  6> %scf
|  7> MaxIter 1000
|  8> end
|  9>
| 10> * xyz 0 1
| 11>   C                      0.003535             -5.877715            10.140912
| 12>   O                      0.318346             -4.605744            10.783172
| 13>   H                      1.007645             -4.757691            11.420423
| 14>   H                      -0.478516            -5.721957            9.157673
| 15>   H                      0.881340             -6.498868            10.075310
| 16>   H                      -0.767575            -6.350094            10.780891
| 17>   C                      -3.344770            -3.847323            8.213863
| 18>   O                      -2.864211            -4.271480            9.437341
| 19>   H                      -2.253268            -3.623229            9.808167
| 20>   H                      -2.556921            -3.812804            7.449268
| 21>   H                      -4.130952            -4.533478            7.770131
| 22>   H                      -3.644031            -2.798656            8.229549
| 23> *
| 24>
| 25> #Run DFT-D3 single point of the molecule with dimer basis set
| 26> $new_job
| 27> %base "8-23_DFT_A"
| 28> ! wB97X-D3 def2-TZVP TIGHTSCF CHELPG PMODEL
| 29>
| 30> %scf
| 31> MaxIter 1000
| 32> end
| 33>
| 34> * xyz 0 1
| 35>   C                      0.003535             -5.877715            10.140912
| 36>   O                      0.318346             -4.605744            10.783172
| 37>   H                      1.007645             -4.757691            11.420423
| 38>   H                      -0.478516            -5.721957            9.157673
| 39>   H                      0.881340             -6.498868            10.075310
| 40>   H                      -0.767575            -6.350094            10.780891
| 41>   C                    : -3.344770            -3.847323            8.213863
| 42>   O                    : -2.864211            -4.271480            9.437341
| 43>   H                    : -2.253268            -3.623229            9.808167
| 44>   H                    : -2.556921            -3.812804            7.449268
| 45>   H                    : -4.130952            -4.533478            7.770131
| 46>   H                    : -3.644031            -2.798656            8.229549
| 47> *
| 48>
| 49> #Run DFT-D3 single point of the particle with dimer basis set
| 50> $new_job
| 51> %base "8-23_DFT_B"
| 52> ! wB97X-D3 def2-TZVP TIGHTSCF CHELPG PMODEL
| 53>
| 54> %scf
| 55> MaxIter 1000
| 56> end
| 57>
| 58> * xyz 0 1
| 59>   C                    : 0.003535             -5.877715            10.140912
| 60>   O                    : 0.318346             -4.605744            10.783172
| 61>   H                    : 1.007645             -4.757691            11.420423
| 62>   H                    : -0.478516            -5.721957            9.157673
| 63>   H                    : 0.881340             -6.498868            10.075310
| 64>   H                    : -0.767575            -6.350094            10.780891
| 65>   C                      -3.344770            -3.847323            8.213863
| 66>   O                      -2.864211            -4.271480            9.437341
| 67>   H                      -2.253268            -3.623229            9.808167
| 68>   H                      -2.556921            -3.812804            7.449268
| 69>   H                      -4.130952            -4.533478            7.770131
| 70>   H                      -3.644031            -2.798656            8.229549
| 71> *
| 72>
| 73>                          ****END OF INPUT****
 Total Charge           Charge          ....    0
 Multiplicity           Mult            ....    1
 Number of Electrons    NEL             ....   36
Dispersion correction           -0.001771033
FINAL SINGLE POINT ENERGY      -231.470092291850
Dispersion correction           -0.000249233
FINAL SINGLE POINT ENERGY      -115.733594186090

CARTESIAN COORDINATES (ANGSTROEM)
---------------------------------
  C      0.003535   -5.877715   10.140912
  O      0.318346   -4.605744   10.783172
  H      1.007645   -4.757691   11.420423
  H     -0.478516   -5.721957    9.157673
  H      0.881340   -6.498868   10.075310
  H     -0.767575   -6.350094   10.780891
  C     -3.344770   -3.847323    8.213863
  O     -2.864211   -4.271480    9.437341
  H     -2.253268   -3.623229    9.808167
  H     -2.556921   -3.812804    7.449268
  H     -4.130952   -4.533478    7.770131
  H     -3.644031   -2.798656    8.229549

 Multiplicity           Mult            ....    1
 Number of Electrons    NEL             ....   18
 Basis Dimension        Dim             ....  172

ORBITAL ENERGIES
----------------

  NO   OCC          E(Eh)            E(eV)
   0   2.0000     -19.232968      -523.3557
   1   2.0000     -10.315184      -280.6904
   2   2.0000      -1.146082       -31.1865
   3   2.0000      -0.793471       -21.5914
   4   2.0000      -0.623450       -16.9649
   5   2.0000      -0.539960       -14.6931
   6   2.0000      -0.528394       -14.3783
   7   2.0000      -0.433039       -11.7836
   8   2.0000      -0.367856       -10.0099
   9   0.0000       0.086548         2.3551
  10   0.0000       0.125045         3.4027
  11   0.0000       0.149934         4.0799
  12   0.0000       0.171129         4.6567
  13   0.0000       0.193960         5.2779

MULLIKEN ATOMIC CHARGES
-----------------------
   0 C :   -0.001122
   1 O :   -0.000528
   2 H :   -0.000072
   3 H :   -0.005587
   4 H :   -0.000460
   5 H :   -0.000985
   6 C :   -0.161754
   7 O :   -0.463135
   8 H :    0.321412
   9 H :    0.091587
  10 H :    0.120947
  11 H :    0.099698
Sum of atomic charges:    0.0000000

LOEWDIN ATOMIC CHARGES
----------------------
   0 C :   -0.010144
   1 O :   -0.001205
   2 H :   -0.000073
   3 H :   -0.005673
   4 H :   -0.000132
   5 H :   -0.001448
   6 C :   -0.418352
   7 O :   -0.040790
   8 H :    0.177294
   9 H :    0.090132
  10 H :    0.117882
  11 H :    0.092508

  Mayer bond orders larger than 0.1
B(  6-C ,  7-O ) :   1.0025 B(  6-C ,  9-H ) :   0.9760 B(  6-C , 10-H ) :   0.9695
B(  6-C , 11-H ) :   0.9801 B(  7-O ,  8-H ) :   0.8901

Dispersion correction           -0.000237337
FINAL SINGLE POINT ENERGY      -115.732279061001

DIPOLE MOMENT
-------------
                                X             Y             Z
Electronic contribution:      0.45499      -0.70762       1.72255
Nuclear contribution   :     -0.24617       1.30074      -1.95424
                        -----------------------------------------
Total Dipole Moment    :      0.20882       0.59312      -0.23169
                        -----------------------------------------
Magnitude (a.u.)       :      0.67014
Magnitude (Debye)      :      1.70335

Rotational constants in cm-1:     4.326653     0.857504     0.812149
Rotational constants in MHz : 129709.793176 25707.322371 24347.618201

                             ****ORCA TERMINATED NORMALLY****
TOTAL RUN TIME: 0 days 0 hours 0 minutes 44 seconds 206 msec
