                         Program Version 4.1.2  - RELEASE  -
|  1> #Run DFT-D3 single point of the dimer
|  2> ! wB97X-D3 def2-TZVP TIGHTSCF CHELPG PMODEL PAL8
|  3>
|  4> %base "20-6_DFT_AB"
|  5>
|  6> %scf
|  7> MaxIter 1000
|  8> end
|  9>
| 10> * xyz 0 1
| 11>   C                      -4.029221            8.344015             5.610913
| 12>   O                      -2.999871            7.977746             4.667712
| 13>   H                      -3.310125            8.320182             3.789893
| 14>   H                      -3.622109            8.473960             6.626864
| 15>   H                      -4.597087            9.250479             5.314208
| 16>   H                      -4.851451            7.575020             5.727861
| 17>   C                      -5.925478            6.762485             8.283272
| 18>   O                      -6.433259            7.176933             9.574631
| 19>   H                      -7.336822            7.465403             9.412063
| 20>   H                      -6.479207            7.250024             7.448698
| 21>   H                      -4.900665            7.061786             8.193284
| 22>   H                      -6.040697            5.616280             8.186349
| 23> *
| 24>
| 25> #Run DFT-D3 single point of the molecule with dimer basis set
| 26> $new_job
| 27> %base "20-6_DFT_A"
| 28> ! wB97X-D3 def2-TZVP TIGHTSCF CHELPG PMODEL
| 29>
| 30> %scf
| 31> MaxIter 1000
| 32> end
| 33>
| 34> * xyz 0 1
| 35>   C                      -4.029221            8.344015             5.610913
| 36>   O                      -2.999871            7.977746             4.667712
| 37>   H                      -3.310125            8.320182             3.789893
| 38>   H                      -3.622109            8.473960             6.626864
| 39>   H                      -4.597087            9.250479             5.314208
| 40>   H                      -4.851451            7.575020             5.727861
| 41>   C                    : -5.925478            6.762485             8.283272
| 42>   O                    : -6.433259            7.176933             9.574631
| 43>   H                    : -7.336822            7.465403             9.412063
| 44>   H                    : -6.479207            7.250024             7.448698
| 45>   H                    : -4.900665            7.061786             8.193284
| 46>   H                    : -6.040697            5.616280             8.186349
| 47> *
| 48>
| 49> #Run DFT-D3 single point of the particle with dimer basis set
| 50> $new_job
| 51> %base "20-6_DFT_B"
| 52> ! wB97X-D3 def2-TZVP TIGHTSCF CHELPG PMODEL
| 53>
| 54> %scf
| 55> MaxIter 1000
| 56> end
| 57>
| 58> * xyz 0 1
| 59>   C                    : -4.029221            8.344015             5.610913
| 60>   O                    : -2.999871            7.977746             4.667712
| 61>   H                    : -3.310125            8.320182             3.789893
| 62>   H                    : -3.622109            8.473960             6.626864
| 63>   H                    : -4.597087            9.250479             5.314208
| 64>   H                    : -4.851451            7.575020             5.727861
| 65>   C                      -5.925478            6.762485             8.283272
| 66>   O                      -6.433259            7.176933             9.574631
| 67>   H                      -7.336822            7.465403             9.412063
| 68>   H                      -6.479207            7.250024             7.448698
| 69>   H                      -4.900665            7.061786             8.193284
| 70>   H                      -6.040697            5.616280             8.186349
| 71> *
| 72>
| 73>                          ****END OF INPUT****
 Total Charge           Charge          ....    0
 Multiplicity           Mult            ....    1
 Number of Electrons    NEL             ....   36
Dispersion correction           -0.001588726
FINAL SINGLE POINT ENERGY      -231.464931352042
Dispersion correction           -0.000277109
FINAL SINGLE POINT ENERGY      -115.732117792883

CARTESIAN COORDINATES (ANGSTROEM)
---------------------------------
  C     -4.029221    8.344015    5.610913
  O     -2.999871    7.977746    4.667712
  H     -3.310125    8.320182    3.789893
  H     -3.622109    8.473960    6.626864
  H     -4.597087    9.250479    5.314208
  H     -4.851451    7.575020    5.727861
  C     -5.925478    6.762485    8.283272
  O     -6.433259    7.176933    9.574631
  H     -7.336822    7.465403    9.412063
  H     -6.479207    7.250024    7.448698
  H     -4.900665    7.061786    8.193284
  H     -6.040697    5.616280    8.186349

 Multiplicity           Mult            ....    1
 Number of Electrons    NEL             ....   18
 Basis Dimension        Dim             ....  172

ORBITAL ENERGIES
----------------

  NO   OCC          E(Eh)            E(eV)
   0   2.0000     -19.230904      -523.2995
   1   2.0000     -10.322211      -280.8816
   2   2.0000      -1.127469       -30.6800
   3   2.0000      -0.790976       -21.5235
   4   2.0000      -0.603412       -16.4197
   5   2.0000      -0.537327       -14.6214
   6   2.0000      -0.519095       -14.1253
   7   2.0000      -0.438854       -11.9418
   8   2.0000      -0.374082       -10.1793
   9   0.0000       0.084526         2.3001
  10   0.0000       0.113613         3.0916
  11   0.0000       0.149104         4.0573
  12   0.0000       0.171079         4.6553
  13   0.0000       0.181804         4.9471

MULLIKEN ATOMIC CHARGES
-----------------------
   0 C :   -0.003507
   1 O :   -0.000094
   2 H :   -0.000031
   3 H :    0.001236
   4 H :    0.000036
   5 H :   -0.001045
   6 C :   -0.171098
   7 O :   -0.474022
   8 H :    0.315476
   9 H :    0.103299
  10 H :    0.127294
  11 H :    0.102455
Sum of atomic charges:    0.0000000

LOEWDIN ATOMIC CHARGES
----------------------
   0 C :   -0.007068
   1 O :   -0.000018
   2 H :   -0.000010
   3 H :   -0.002736
   4 H :   -0.000119
   5 H :   -0.005731
   6 C :   -0.362607
   7 O :   -0.102659
   8 H :    0.167988
   9 H :    0.102300
  10 H :    0.102636
  11 H :    0.108025

  Mayer bond orders larger than 0.1
B(  6-C ,  7-O ) :   1.0090 B(  6-C ,  9-H ) :   0.9809 B(  6-C , 10-H ) :   0.9712
B(  6-C , 11-H ) :   0.9664 B(  7-O ,  8-H ) :   0.9021

Dispersion correction           -0.000260105
FINAL SINGLE POINT ENERGY      -115.732889806668

DIPOLE MOMENT
-------------
                                X             Y             Z
Electronic contribution:     -0.44647       0.54307       1.69412
Nuclear contribution   :      0.08258      -0.49192      -2.32220
                        -----------------------------------------
Total Dipole Moment    :     -0.36389       0.05115      -0.62808
                        -----------------------------------------
Magnitude (a.u.)       :      0.72768
Magnitude (Debye)      :      1.84961

Rotational constants in cm-1:     4.093901     0.797981     0.776017
Rotational constants in MHz : 122732.073308 23922.864069 23264.389590

                             ****ORCA TERMINATED NORMALLY****
TOTAL RUN TIME: 0 days 0 hours 1 minutes 8 seconds 233 msec
