                         Program Version 4.1.2  - RELEASE  -
|  1> #Run DFT-D3 single point of the dimer
|  2> ! wB97X-D3 def2-TZVP TIGHTSCF CHELPG PMODEL PAL8
|  3>
|  4> %base "6-20_DFT_AB"
|  5>
|  6> %scf
|  7> MaxIter 1000
|  8> end
|  9>
| 10> * xyz 0 1
| 11>   C                      -0.715228            1.050743             2.453242
| 12>   O                      -1.854007            0.340821             2.144338
| 13>   H                      -2.633239            0.803480             2.639829
| 14>   H                      -0.871798            2.130612             2.284487
| 15>   H                      -0.449429            0.971583             3.539397
| 16>   H                      0.102194             0.804007             1.757111
| 17>   C                      1.922953             -3.077625            2.484926
| 18>   O                      1.345528             -3.086113            1.131528
| 19>   H                      1.970459             -2.601192            0.562478
| 20>   H                      2.975251             -2.827903            2.476688
| 21>   H                      1.326520             -2.461149            3.132407
| 22>   H                      1.791371             -4.136435            2.840835
| 23> *
| 24>
| 25> #Run DFT-D3 single point of the molecule with dimer basis set
| 26> $new_job
| 27> %base "6-20_DFT_A"
| 28> ! wB97X-D3 def2-TZVP TIGHTSCF CHELPG PMODEL
| 29>
| 30> %scf
| 31> MaxIter 1000
| 32> end
| 33>
| 34> * xyz 0 1
| 35>   C                      -0.715228            1.050743             2.453242
| 36>   O                      -1.854007            0.340821             2.144338
| 37>   H                      -2.633239            0.803480             2.639829
| 38>   H                      -0.871798            2.130612             2.284487
| 39>   H                      -0.449429            0.971583             3.539397
| 40>   H                      0.102194             0.804007             1.757111
| 41>   C                    : 1.922953             -3.077625            2.484926
| 42>   O                    : 1.345528             -3.086113            1.131528
| 43>   H                    : 1.970459             -2.601192            0.562478
| 44>   H                    : 2.975251             -2.827903            2.476688
| 45>   H                    : 1.326520             -2.461149            3.132407
| 46>   H                    : 1.791371             -4.136435            2.840835
| 47> *
| 48>
| 49> #Run DFT-D3 single point of the particle with dimer basis set
| 50> $new_job
| 51> %base "6-20_DFT_B"
| 52> ! wB97X-D3 def2-TZVP TIGHTSCF CHELPG PMODEL
| 53>
| 54> %scf
| 55> MaxIter 1000
| 56> end
| 57>
| 58> * xyz 0 1
| 59>   C                    : -0.715228            1.050743             2.453242
| 60>   O                    : -1.854007            0.340821             2.144338
| 61>   H                    : -2.633239            0.803480             2.639829
| 62>   H                    : -0.871798            2.130612             2.284487
| 63>   H                    : -0.449429            0.971583             3.539397
| 64>   H                    : 0.102194             0.804007             1.757111
| 65>   C                      1.922953             -3.077625            2.484926
| 66>   O                      1.345528             -3.086113            1.131528
| 67>   H                      1.970459             -2.601192            0.562478
| 68>   H                      2.975251             -2.827903            2.476688
| 69>   H                      1.326520             -2.461149            3.132407
| 70>   H                      1.791371             -4.136435            2.840835
| 71> *
| 72>
| 73>                          ****END OF INPUT****
 Total Charge           Charge          ....    0
 Multiplicity           Mult            ....    1
 Number of Electrons    NEL             ....   36
Dispersion correction           -0.000907458
FINAL SINGLE POINT ENERGY      -231.461120802910
Dispersion correction           -0.000228270
FINAL SINGLE POINT ENERGY      -115.729073748346

CARTESIAN COORDINATES (ANGSTROEM)
---------------------------------
  C     -0.715228    1.050743    2.453242
  O     -1.854007    0.340821    2.144338
  H     -2.633239    0.803480    2.639829
  H     -0.871798    2.130612    2.284487
  H     -0.449429    0.971583    3.539397
  H      0.102194    0.804007    1.757111
  C      1.922953   -3.077625    2.484926
  O      1.345528   -3.086113    1.131528
  H      1.970459   -2.601192    0.562478
  H      2.975251   -2.827903    2.476688
  H      1.326520   -2.461149    3.132407
  H      1.791371   -4.136435    2.840835

 Multiplicity           Mult            ....    1
 Number of Electrons    NEL             ....   18
 Basis Dimension        Dim             ....  172

ORBITAL ENERGIES
----------------

  NO   OCC          E(Eh)            E(eV)
   0   2.0000     -19.228955      -523.2465
   1   2.0000     -10.317471      -280.7527
   2   2.0000      -1.116382       -30.3783
   3   2.0000      -0.794890       -21.6301
   4   2.0000      -0.599954       -16.3256
   5   2.0000      -0.539071       -14.6689
   6   2.0000      -0.514187       -13.9917
   7   2.0000      -0.441028       -12.0010
   8   2.0000      -0.372261       -10.1297
   9   0.0000       0.085347         2.3224
  10   0.0000       0.113494         3.0883
  11   0.0000       0.151139         4.1127
  12   0.0000       0.168333         4.5806
  13   0.0000       0.182750         4.9729

MULLIKEN ATOMIC CHARGES
-----------------------
   0 C :    0.000286
   1 O :    0.000028
   2 H :    0.000002
   3 H :   -0.000025
   4 H :   -0.000174
   5 H :   -0.000785
   6 C :   -0.175979
   7 O :   -0.484412
   8 H :    0.311771
   9 H :    0.115638
  10 H :    0.115482
  11 H :    0.118169
Sum of atomic charges:   -0.0000000

LOEWDIN ATOMIC CHARGES
----------------------
   0 C :   -0.000237
   1 O :   -0.000018
   2 H :   -0.000001
   3 H :   -0.000005
   4 H :   -0.000071
   5 H :   -0.000341
   6 C :   -0.344250
   7 O :   -0.127682
   8 H :    0.170733
   9 H :    0.095447
  10 H :    0.094094
  11 H :    0.112332

  Mayer bond orders larger than 0.1
B(  6-C ,  7-O ) :   0.9995 B(  6-C ,  9-H ) :   0.9773 B(  6-C , 10-H ) :   0.9725
B(  6-C , 11-H ) :   0.9802 B(  7-O ,  8-H ) :   0.9036

Dispersion correction           -0.000260909
FINAL SINGLE POINT ENERGY      -115.732398097049

DIPOLE MOMENT
-------------
                                X             Y             Z
Electronic contribution:     -0.73343       0.05676      -1.55230
Nuclear contribution   :      1.38243       0.24848       1.76588
                        -----------------------------------------
Total Dipole Moment    :      0.64900       0.30524       0.21358
                        -----------------------------------------
Magnitude (a.u.)       :      0.74832
Magnitude (Debye)      :      1.90209

Rotational constants in cm-1:     4.167138     0.788753     0.757226
Rotational constants in MHz : 124927.642270 23646.208890 22701.063274

                             ****ORCA TERMINATED NORMALLY****
TOTAL RUN TIME: 0 days 0 hours 1 minutes 0 seconds 383 msec
