                         Program Version 4.1.2  - RELEASE  -
|  1> #Run DFT-D3 single point of the dimer
|  2> ! wB97X-D3 def2-TZVP TIGHTSCF CHELPG PMODEL PAL8
|  3>
|  4> %base "1-3_DFT_AB"
|  5>
|  6> %scf
|  7> MaxIter 1000
|  8> end
|  9>
| 10> * xyz 0 1
| 11>   C                      -7.729322            4.427341             8.202547
| 12>   O                      -7.019809            3.335802             7.681465
| 13>   H                      -7.560810            2.547871             7.585349
| 14>   H                      -8.077797            4.298807             9.202275
| 15>   H                      -7.121937            5.329664             8.121222
| 16>   H                      -8.610645            4.817844             7.611276
| 17>   C                      -8.160840            1.187232             4.616737
| 18>   O                      -8.648820            -0.138235            4.714268
| 19>   H                      -9.531320            0.016735             5.051728
| 20>   H                      -8.105199            1.574976             5.631403
| 21>   H                      -7.148360            1.166433             4.303067
| 22>   H                      -8.733362            1.885189             3.929385
| 23> *
| 24>
| 25> #Run DFT-D3 single point of the molecule with dimer basis set
| 26> $new_job
| 27> %base "1-3_DFT_A"
| 28> ! wB97X-D3 def2-TZVP TIGHTSCF CHELPG PMODEL
| 29>
| 30> %scf
| 31> MaxIter 1000
| 32> end
| 33>
| 34> * xyz 0 1
| 35>   C                      -7.729322            4.427341             8.202547
| 36>   O                      -7.019809            3.335802             7.681465
| 37>   H                      -7.560810            2.547871             7.585349
| 38>   H                      -8.077797            4.298807             9.202275
| 39>   H                      -7.121937            5.329664             8.121222
| 40>   H                      -8.610645            4.817844             7.611276
| 41>   C                    : -8.160840            1.187232             4.616737
| 42>   O                    : -8.648820            -0.138235            4.714268
| 43>   H                    : -9.531320            0.016735             5.051728
| 44>   H                    : -8.105199            1.574976             5.631403
| 45>   H                    : -7.148360            1.166433             4.303067
| 46>   H                    : -8.733362            1.885189             3.929385
| 47> *
| 48>
| 49> #Run DFT-D3 single point of the particle with dimer basis set
| 50> $new_job
| 51> %base "1-3_DFT_B"
| 52> ! wB97X-D3 def2-TZVP TIGHTSCF CHELPG PMODEL
| 53>
| 54> %scf
| 55> MaxIter 1000
| 56> end
| 57>
| 58> * xyz 0 1
| 59>   C                    : -7.729322            4.427341             8.202547
| 60>   O                    : -7.019809            3.335802             7.681465
| 61>   H                    : -7.560810            2.547871             7.585349
| 62>   H                    : -8.077797            4.298807             9.202275
| 63>   H                    : -7.121937            5.329664             8.121222
| 64>   H                    : -8.610645            4.817844             7.611276
| 65>   C                      -8.160840            1.187232             4.616737
| 66>   O                      -8.648820            -0.138235            4.714268
| 67>   H                      -9.531320            0.016735             5.051728
| 68>   H                      -8.105199            1.574976             5.631403
| 69>   H                      -7.148360            1.166433             4.303067
| 70>   H                      -8.733362            1.885189             3.929385
| 71> *
| 72>
| 73>                          ****END OF INPUT****
 Total Charge           Charge          ....    0
 Multiplicity           Mult            ....    1
 Number of Electrons    NEL             ....   36
Dispersion correction           -0.001254146
FINAL SINGLE POINT ENERGY      -231.464812840949
Dispersion correction           -0.000274682
FINAL SINGLE POINT ENERGY      -115.732430240102

CARTESIAN COORDINATES (ANGSTROEM)
---------------------------------
  C     -7.729322    4.427341    8.202547
  O     -7.019809    3.335802    7.681465
  H     -7.560810    2.547871    7.585349
  H     -8.077797    4.298807    9.202275
  H     -7.121937    5.329664    8.121222
  H     -8.610645    4.817844    7.611276
  C     -8.160840    1.187232    4.616737
  O     -8.648820   -0.138235    4.714268
  H     -9.531320    0.016735    5.051728
  H     -8.105199    1.574976    5.631403
  H     -7.148360    1.166433    4.303067
  H     -8.733362    1.885189    3.929385

 Multiplicity           Mult            ....    1
 Number of Electrons    NEL             ....   18
 Basis Dimension        Dim             ....  172

ORBITAL ENERGIES
----------------

  NO   OCC          E(Eh)            E(eV)
   0   2.0000     -19.232241      -523.3359
   1   2.0000     -10.312857      -280.6271
   2   2.0000      -1.141490       -31.0615
   3   2.0000      -0.793803       -21.6005
   4   2.0000      -0.606721       -16.5097
   5   2.0000      -0.544680       -14.8215
   6   2.0000      -0.528327       -14.3765
   7   2.0000      -0.439860       -11.9692
   8   2.0000      -0.374945       -10.2028
   9   0.0000       0.083202         2.2640
  10   0.0000       0.117445         3.1958
  11   0.0000       0.149429         4.0662
  12   0.0000       0.171845         4.6761
  13   0.0000       0.194225         5.2851

MULLIKEN ATOMIC CHARGES
-----------------------
   0 C :   -0.000627
   1 O :   -0.000452
   2 H :    0.000900
   3 H :    0.000017
   4 H :    0.000003
   5 H :   -0.000044
   6 C :   -0.172574
   7 O :   -0.462791
   8 H :    0.314352
   9 H :    0.102095
  10 H :    0.119870
  11 H :    0.099251
Sum of atomic charges:   -0.0000000

LOEWDIN ATOMIC CHARGES
----------------------
   0 C :   -0.000365
   1 O :   -0.001419
   2 H :   -0.006529
   3 H :   -0.000002
   4 H :   -0.000003
   5 H :   -0.000051
   6 C :   -0.389367
   7 O :   -0.074491
   8 H :    0.170509
   9 H :    0.099129
  10 H :    0.101071
  11 H :    0.101518

  Mayer bond orders larger than 0.1
B(  6-C ,  7-O ) :   0.9948 B(  6-C ,  9-H ) :   0.9862 B(  6-C , 10-H ) :   0.9739
B(  6-C , 11-H ) :   0.9670 B(  7-O ,  8-H ) :   0.9041

Dispersion correction           -0.000226083
FINAL SINGLE POINT ENERGY      -115.732347461662

DIPOLE MOMENT
-------------
                                X             Y             Z
Electronic contribution:     -0.51435      -1.79483      -0.00393
Nuclear contribution   :      0.19365       2.38726       0.18570
                        -----------------------------------------
Total Dipole Moment    :     -0.32070       0.59243       0.18177
                        -----------------------------------------
Magnitude (a.u.)       :      0.69775
Magnitude (Debye)      :      1.77355

Rotational constants in cm-1:     4.249037     0.834211     0.809550
Rotational constants in MHz : 127382.926804 25009.024878 24269.710095

                             ****ORCA TERMINATED NORMALLY****
TOTAL RUN TIME: 0 days 0 hours 4 minutes 31 seconds 845 msec
