                         Program Version 4.1.2  - RELEASE  -
|  1> #Run DFT-D3 single point of the dimer
|  2> ! wB97X-D3 def2-TZVP TIGHTSCF CHELPG PMODEL PAL8
|  3>
|  4> %base "4-87_DFT_AB"
|  5>
|  6> %scf
|  7> MaxIter 1000
|  8> end
|  9>
| 10> * xyz 0 1
| 11>   C                      8.138163             2.013779             8.440012
| 12>   O                      8.449880             2.296050             7.073773
| 13>   H                      8.958610             1.573154             6.754095
| 14>   H                      7.680784             2.922407             8.860548
| 15>   H                      7.458505             1.109173             8.484702
| 16>   H                      9.035666             1.771950             8.988343
| 17>   C                      9.433927             3.809536             4.294545
| 18>   O                      10.619094            3.558914             3.626370
| 19>   H                      10.521387            3.870881             2.708562
| 20>   H                      9.059793             4.788925             4.102573
| 21>   H                      8.593438             3.107075             4.075959
| 22>   H                      9.706451             3.738270             5.396693
| 23> *
| 24>
| 25> #Run DFT-D3 single point of the molecule with dimer basis set
| 26> $new_job
| 27> %base "4-87_DFT_A"
| 28> ! wB97X-D3 def2-TZVP TIGHTSCF CHELPG PMODEL
| 29>
| 30> %scf
| 31> MaxIter 1000
| 32> end
| 33>
| 34> * xyz 0 1
| 35>   C                      8.138163             2.013779             8.440012
| 36>   O                      8.449880             2.296050             7.073773
| 37>   H                      8.958610             1.573154             6.754095
| 38>   H                      7.680784             2.922407             8.860548
| 39>   H                      7.458505             1.109173             8.484702
| 40>   H                      9.035666             1.771950             8.988343
| 41>   C                    : 9.433927             3.809536             4.294545
| 42>   O                    : 10.619094            3.558914             3.626370
| 43>   H                    : 10.521387            3.870881             2.708562
| 44>   H                    : 9.059793             4.788925             4.102573
| 45>   H                    : 8.593438             3.107075             4.075959
| 46>   H                    : 9.706451             3.738270             5.396693
| 47> *
| 48>
| 49> #Run DFT-D3 single point of the particle with dimer basis set
| 50> $new_job
| 51> %base "4-87_DFT_B"
| 52> ! wB97X-D3 def2-TZVP TIGHTSCF CHELPG PMODEL
| 53>
| 54> %scf
| 55> MaxIter 1000
| 56> end
| 57>
| 58> * xyz 0 1
| 59>   C                    : 8.138163             2.013779             8.440012
| 60>   O                    : 8.449880             2.296050             7.073773
| 61>   H                    : 8.958610             1.573154             6.754095
| 62>   H                    : 7.680784             2.922407             8.860548
| 63>   H                    : 7.458505             1.109173             8.484702
| 64>   H                    : 9.035666             1.771950             8.988343
| 65>   C                      9.433927             3.809536             4.294545
| 66>   O                      10.619094            3.558914             3.626370
| 67>   H                      10.521387            3.870881             2.708562
| 68>   H                      9.059793             4.788925             4.102573
| 69>   H                      8.593438             3.107075             4.075959
| 70>   H                      9.706451             3.738270             5.396693
| 71> *
| 72>
| 73>                          ****END OF INPUT****
 Total Charge           Charge          ....    0
 Multiplicity           Mult            ....    1
 Number of Electrons    NEL             ....   36
Dispersion correction           -0.001425930
FINAL SINGLE POINT ENERGY      -231.470740880117
Dispersion correction           -0.000231342
FINAL SINGLE POINT ENERGY      -115.735553209548

CARTESIAN COORDINATES (ANGSTROEM)
---------------------------------
  C      8.138163    2.013779    8.440012
  O      8.449880    2.296050    7.073773
  H      8.958610    1.573154    6.754095
  H      7.680784    2.922407    8.860548
  H      7.458505    1.109173    8.484702
  H      9.035666    1.771950    8.988343
  C      9.433927    3.809536    4.294545
  O     10.619094    3.558914    3.626370
  H     10.521387    3.870881    2.708562
  H      9.059793    4.788925    4.102573
  H      8.593438    3.107075    4.075959
  H      9.706451    3.738270    5.396693

 Multiplicity           Mult            ....    1
 Number of Electrons    NEL             ....   18
 Basis Dimension        Dim             ....  172

ORBITAL ENERGIES
----------------

  NO   OCC          E(Eh)            E(eV)
   0   2.0000     -19.232631      -523.3465
   1   2.0000     -10.313739      -280.6511
   2   2.0000      -1.144492       -31.1432
   3   2.0000      -0.789936       -21.4952
   4   2.0000      -0.619981       -16.8705
   5   2.0000      -0.541647       -14.7390
   6   2.0000      -0.523641       -14.2490
   7   2.0000      -0.431848       -11.7512
   8   2.0000      -0.372528       -10.1370
   9   0.0000       0.087302         2.3756
  10   0.0000       0.114457         3.1145
  11   0.0000       0.149908         4.0792
  12   0.0000       0.179355         4.8805
  13   0.0000       0.184401         5.0178

MULLIKEN ATOMIC CHARGES
-----------------------
   0 C :   -0.000844
   1 O :   -0.001095
   2 H :    0.000499
   3 H :    0.000002
   4 H :    0.000016
   5 H :    0.000016
   6 C :   -0.156019
   7 O :   -0.463722
   8 H :    0.314551
   9 H :    0.099995
  10 H :    0.090089
  11 H :    0.116512
Sum of atomic charges:   -0.0000000

LOEWDIN ATOMIC CHARGES
----------------------
   0 C :   -0.000515
   1 O :   -0.006264
   2 H :   -0.002109
   3 H :   -0.000023
   4 H :   -0.000012
   5 H :   -0.000015
   6 C :   -0.414151
   7 O :   -0.058715
   8 H :    0.178762
   9 H :    0.085781
  10 H :    0.095783
  11 H :    0.121477

  Mayer bond orders larger than 0.1
B(  6-C ,  7-O ) :   1.0079 B(  6-C ,  9-H ) :   0.9756 B(  6-C , 10-H ) :   0.9674
B(  6-C , 11-H ) :   0.9750 B(  7-O ,  8-H ) :   0.8961

Dispersion correction           -0.000238560
FINAL SINGLE POINT ENERGY      -115.733765708416

DIPOLE MOMENT
-------------
                                X             Y             Z
Electronic contribution:      1.60429      -0.36516      -0.85615
Nuclear contribution   :     -2.09282       0.68661       0.51397
                        -----------------------------------------
Total Dipole Moment    :     -0.48853       0.32145      -0.34218
                        -----------------------------------------
Magnitude (a.u.)       :      0.67755
Magnitude (Debye)      :      1.72220

Rotational constants in cm-1:     4.204048     0.860755     0.823412
Rotational constants in MHz : 126034.191868 25804.785303 24685.282739

                             ****ORCA TERMINATED NORMALLY****
TOTAL RUN TIME: 0 days 0 hours 1 minutes 32 seconds 908 msec
