                         Program Version 4.1.2  - RELEASE  -
|  1> #Run DFT-D3 single point of the dimer
|  2> ! wB97X-D3 def2-TZVP TIGHTSCF CHELPG PMODEL PAL8
|  3>
|  4> %base "10-144_DFT_AB"
|  5>
|  6> %scf
|  7> MaxIter 1000
|  8> end
|  9>
| 10> * xyz 0 1
| 11>   C                      -3.729851            3.038293             4.185323
| 12>   O                      -3.523052            2.471416             5.433180
| 13>   H                      -4.135422            2.762021             6.113348
| 14>   H                      -4.740345            3.461552             4.070275
| 15>   H                      -3.093136            3.884884             4.062776
| 16>   H                      -3.567683            2.320354             3.352861
| 17>   C                      -8.097292            3.456859             6.308405
| 18>   O                      -7.734762            3.411450             4.914045
| 19>   H                      -8.319699            2.743882             4.430816
| 20>   H                      -8.341245            4.456401             6.724178
| 21>   H                      -8.969842            2.828563             6.564867
| 22>   H                      -7.279462            3.065835             6.868088
| 23> *
| 24>
| 25> #Run DFT-D3 single point of the molecule with dimer basis set
| 26> $new_job
| 27> %base "10-144_DFT_A"
| 28> ! wB97X-D3 def2-TZVP TIGHTSCF CHELPG PMODEL
| 29>
| 30> %scf
| 31> MaxIter 1000
| 32> end
| 33>
| 34> * xyz 0 1
| 35>   C                      -3.729851            3.038293             4.185323
| 36>   O                      -3.523052            2.471416             5.433180
| 37>   H                      -4.135422            2.762021             6.113348
| 38>   H                      -4.740345            3.461552             4.070275
| 39>   H                      -3.093136            3.884884             4.062776
| 40>   H                      -3.567683            2.320354             3.352861
| 41>   C                    : -8.097292            3.456859             6.308405
| 42>   O                    : -7.734762            3.411450             4.914045
| 43>   H                    : -8.319699            2.743882             4.430816
| 44>   H                    : -8.341245            4.456401             6.724178
| 45>   H                    : -8.969842            2.828563             6.564867
| 46>   H                    : -7.279462            3.065835             6.868088
| 47> *
| 48>
| 49> #Run DFT-D3 single point of the particle with dimer basis set
| 50> $new_job
| 51> %base "10-144_DFT_B"
| 52> ! wB97X-D3 def2-TZVP TIGHTSCF CHELPG PMODEL
| 53>
| 54> %scf
| 55> MaxIter 1000
| 56> end
| 57>
| 58> * xyz 0 1
| 59>   C                    : -3.729851            3.038293             4.185323
| 60>   O                    : -3.523052            2.471416             5.433180
| 61>   H                    : -4.135422            2.762021             6.113348
| 62>   H                    : -4.740345            3.461552             4.070275
| 63>   H                    : -3.093136            3.884884             4.062776
| 64>   H                    : -3.567683            2.320354             3.352861
| 65>   C                      -8.097292            3.456859             6.308405
| 66>   O                      -7.734762            3.411450             4.914045
| 67>   H                      -8.319699            2.743882             4.430816
| 68>   H                      -8.341245            4.456401             6.724178
| 69>   H                      -8.969842            2.828563             6.564867
| 70>   H                      -7.279462            3.065835             6.868088
| 71> *
| 72>
| 73>                          ****END OF INPUT****
 Total Charge           Charge          ....    0
 Multiplicity           Mult            ....    1
 Number of Electrons    NEL             ....   36
Dispersion correction           -0.001277762
FINAL SINGLE POINT ENERGY      -231.465220034010
Dispersion correction           -0.000246681
FINAL SINGLE POINT ENERGY      -115.733255626041

CARTESIAN COORDINATES (ANGSTROEM)
---------------------------------
  C     -3.729851    3.038293    4.185323
  O     -3.523052    2.471416    5.433180
  H     -4.135422    2.762021    6.113348
  H     -4.740345    3.461552    4.070275
  H     -3.093136    3.884884    4.062776
  H     -3.567683    2.320354    3.352861
  C     -8.097292    3.456859    6.308405
  O     -7.734762    3.411450    4.914045
  H     -8.319699    2.743882    4.430816
  H     -8.341245    4.456401    6.724178
  H     -8.969842    2.828563    6.564867
  H     -7.279462    3.065835    6.868088

 Multiplicity           Mult            ....    1
 Number of Electrons    NEL             ....   18
 Basis Dimension        Dim             ....  172

ORBITAL ENERGIES
----------------

  NO   OCC          E(Eh)            E(eV)
   0   2.0000     -19.235576      -523.4266
   1   2.0000     -10.315065      -280.6872
   2   2.0000      -1.118346       -30.4317
   3   2.0000      -0.794799       -21.6276
   4   2.0000      -0.602488       -16.3945
   5   2.0000      -0.536607       -14.6018
   6   2.0000      -0.522379       -14.2146
   7   2.0000      -0.431147       -11.7321
   8   2.0000      -0.373954       -10.1758
   9   0.0000       0.093553         2.5457
  10   0.0000       0.114276         3.1096
  11   0.0000       0.144887         3.9426
  12   0.0000       0.168909         4.5963
  13   0.0000       0.198001         5.3879

MULLIKEN ATOMIC CHARGES
-----------------------
   0 C :    0.000512
   1 O :   -0.000009
   2 H :   -0.000091
   3 H :   -0.004330
   4 H :   -0.000151
   5 H :    0.000113
   6 C :   -0.175168
   7 O :   -0.480818
   8 H :    0.321048
   9 H :    0.110975
  10 H :    0.107208
  11 H :    0.120712
Sum of atomic charges:    0.0000000

LOEWDIN ATOMIC CHARGES
----------------------
   0 C :   -0.001478
   1 O :   -0.000023
   2 H :   -0.000254
   3 H :   -0.003823
   4 H :   -0.000015
   5 H :   -0.000009
   6 C :   -0.372789
   7 O :   -0.115676
   8 H :    0.196806
   9 H :    0.103747
  10 H :    0.099228
  11 H :    0.094286

  Mayer bond orders larger than 0.1
B(  6-C ,  7-O ) :   1.0068 B(  6-C ,  9-H ) :   0.9704 B(  6-C , 10-H ) :   0.9798
B(  6-C , 11-H ) :   0.9781 B(  7-O ,  8-H ) :   0.8902

Dispersion correction           -0.000275467
FINAL SINGLE POINT ENERGY      -115.730103200758

DIPOLE MOMENT
-------------
                                X             Y             Z
Electronic contribution:      0.56741       0.09411      -1.79615
Nuclear contribution   :     -1.10372      -0.51586       2.07317
                        -----------------------------------------
Total Dipole Moment    :     -0.53631      -0.42175       0.27702
                        -----------------------------------------
Magnitude (a.u.)       :      0.73637
Magnitude (Debye)      :      1.87170

Rotational constants in cm-1:     4.331999     0.794031     0.764376
Rotational constants in MHz : 129870.059094 23804.441719 22915.402490

                             ****ORCA TERMINATED NORMALLY****
TOTAL RUN TIME: 0 days 0 hours 1 minutes 4 seconds 612 msec
