                         Program Version 4.1.2  - RELEASE  -
|  1> #Run DFT-D3 single point of the dimer
|  2> ! wB97X-D3 def2-TZVP TIGHTSCF CHELPG PMODEL PAL8
|  3>
|  4> %base "22-169_DFT_AB"
|  5>
|  6> %scf
|  7> MaxIter 1000
|  8> end
|  9>
| 10> * xyz 0 1
| 11>   C                      -9.133581            -0.599938            -5.207455
| 12>   O                      -8.116543            0.232979             -4.788451
| 13>   H                      -7.332471            -0.148470            -4.425797
| 14>   H                      -9.887110            -0.015236            -5.739442
| 15>   H                      -8.710355            -1.313710            -5.952876
| 16>   H                      -9.499033            -1.169226            -4.389210
| 17>   C                      -5.553447            -1.981616            -4.515770
| 18>   O                      -6.053582            -1.815600            -5.802434
| 19>   H                      -6.670493            -2.484740            -6.045409
| 20>   H                      -4.929881            -1.186056            -4.211347
| 21>   H                      -6.329280            -2.029363            -3.850187
| 22>   H                      -4.934412            -2.900721            -4.445640
| 23> *
| 24>
| 25> #Run DFT-D3 single point of the molecule with dimer basis set
| 26> $new_job
| 27> %base "22-169_DFT_A"
| 28> ! wB97X-D3 def2-TZVP TIGHTSCF CHELPG PMODEL
| 29>
| 30> %scf
| 31> MaxIter 1000
| 32> end
| 33>
| 34> * xyz 0 1
| 35>   C                      -9.133581            -0.599938            -5.207455
| 36>   O                      -8.116543            0.232979             -4.788451
| 37>   H                      -7.332471            -0.148470            -4.425797
| 38>   H                      -9.887110            -0.015236            -5.739442
| 39>   H                      -8.710355            -1.313710            -5.952876
| 40>   H                      -9.499033            -1.169226            -4.389210
| 41>   C                    : -5.553447            -1.981616            -4.515770
| 42>   O                    : -6.053582            -1.815600            -5.802434
| 43>   H                    : -6.670493            -2.484740            -6.045409
| 44>   H                    : -4.929881            -1.186056            -4.211347
| 45>   H                    : -6.329280            -2.029363            -3.850187
| 46>   H                    : -4.934412            -2.900721            -4.445640
| 47> *
| 48>
| 49> #Run DFT-D3 single point of the particle with dimer basis set
| 50> $new_job
| 51> %base "22-169_DFT_B"
| 52> ! wB97X-D3 def2-TZVP TIGHTSCF CHELPG PMODEL
| 53>
| 54> %scf
| 55> MaxIter 1000
| 56> end
| 57>
| 58> * xyz 0 1
| 59>   C                    : -9.133581            -0.599938            -5.207455
| 60>   O                    : -8.116543            0.232979             -4.788451
| 61>   H                    : -7.332471            -0.148470            -4.425797
| 62>   H                    : -9.887110            -0.015236            -5.739442
| 63>   H                    : -8.710355            -1.313710            -5.952876
| 64>   H                    : -9.499033            -1.169226            -4.389210
| 65>   C                      -5.553447            -1.981616            -4.515770
| 66>   O                      -6.053582            -1.815600            -5.802434
| 67>   H                      -6.670493            -2.484740            -6.045409
| 68>   H                      -4.929881            -1.186056            -4.211347
| 69>   H                      -6.329280            -2.029363            -3.850187
| 70>   H                      -4.934412            -2.900721            -4.445640
| 71> *
| 72>
| 73>                          ****END OF INPUT****
 Total Charge           Charge          ....    0
 Multiplicity           Mult            ....    1
 Number of Electrons    NEL             ....   36
Dispersion correction           -0.002316065
FINAL SINGLE POINT ENERGY      -231.463552967852
Dispersion correction           -0.000230940
FINAL SINGLE POINT ENERGY      -115.731940700493

CARTESIAN COORDINATES (ANGSTROEM)
---------------------------------
  C     -9.133581   -0.599938   -5.207455
  O     -8.116543    0.232979   -4.788451
  H     -7.332471   -0.148470   -4.425797
  H     -9.887110   -0.015236   -5.739442
  H     -8.710355   -1.313710   -5.952876
  H     -9.499033   -1.169226   -4.389210
  C     -5.553447   -1.981616   -4.515770
  O     -6.053582   -1.815600   -5.802434
  H     -6.670493   -2.484740   -6.045409
  H     -4.929881   -1.186056   -4.211347
  H     -6.329280   -2.029363   -3.850187
  H     -4.934412   -2.900721   -4.445640

 Multiplicity           Mult            ....    1
 Number of Electrons    NEL             ....   18
 Basis Dimension        Dim             ....  172

ORBITAL ENERGIES
----------------

  NO   OCC          E(Eh)            E(eV)
   0   2.0000     -19.225428      -523.1505
   1   2.0000     -10.301398      -280.3153
   2   2.0000      -1.143288       -31.1105
   3   2.0000      -0.806780       -21.9536
   4   2.0000      -0.619024       -16.8445
   5   2.0000      -0.550822       -14.9886
   6   2.0000      -0.538465       -14.6524
   7   2.0000      -0.426837       -11.6148
   8   2.0000      -0.372747       -10.1430
   9   0.0000       0.087837         2.3902
  10   0.0000       0.139063         3.7841
  11   0.0000       0.149161         4.0589
  12   0.0000       0.184854         5.0301
  13   0.0000       0.190464         5.1828

MULLIKEN ATOMIC CHARGES
-----------------------
   0 C :   -0.000935
   1 O :    0.001427
   2 H :    0.003984
   3 H :   -0.000939
   4 H :   -0.011686
   5 H :    0.000368
   6 C :   -0.163630
   7 O :   -0.479545
   8 H :    0.317015
   9 H :    0.120789
  10 H :    0.108620
  11 H :    0.104532
Sum of atomic charges:    0.0000000

LOEWDIN ATOMIC CHARGES
----------------------
   0 C :   -0.008319
   1 O :   -0.003877
   2 H :   -0.010438
   3 H :   -0.000130
   4 H :   -0.007622
   5 H :   -0.000170
   6 C :   -0.380075
   7 O :   -0.034689
   8 H :    0.159407
   9 H :    0.103812
  10 H :    0.081936
  11 H :    0.100164

  Mayer bond orders larger than 0.1
B(  6-C ,  7-O ) :   0.9931 B(  6-C ,  9-H ) :   0.9737 B(  6-C , 10-H ) :   0.9855
B(  6-C , 11-H ) :   0.9815 B(  7-O ,  8-H ) :   0.8968

Dispersion correction           -0.000222817
FINAL SINGLE POINT ENERGY      -115.731454211179

DIPOLE MOMENT
-------------
                                X             Y             Z
Electronic contribution:     -0.59770       0.37608      -1.62012
Nuclear contribution   :      0.40043      -0.86264       2.00017
                        -----------------------------------------
Total Dipole Moment    :     -0.19727      -0.48656       0.38005
                        -----------------------------------------
Magnitude (a.u.)       :      0.64815
Magnitude (Debye)      :      1.64746

Rotational constants in cm-1:     4.617617     0.851818     0.828432
Rotational constants in MHz : 138432.684987 25536.874999 24835.780669

                             ****ORCA TERMINATED NORMALLY****
TOTAL RUN TIME: 0 days 0 hours 1 minutes 7 seconds 598 msec
