                         Program Version 4.1.2  - RELEASE  -
|  1> #Run DFT-D3 single point of the dimer
|  2> ! wB97X-D3 def2-TZVP TIGHTSCF CHELPG PMODEL PAL8
|  3>
|  4> %base "5-2_DFT_AB"
|  5>
|  6> %scf
|  7> MaxIter 1000
|  8> end
|  9>
| 10> * xyz 0 1
| 11>   C                      7.637502             -1.565497            0.430449
| 12>   O                      6.279459             -1.591730            0.075538
| 13>   H                      6.138315             -2.503580            0.236057
| 14>   H                      8.043561             -0.510717            0.303914
| 15>   H                      7.798157             -1.853950            1.427963
| 16>   H                      8.171181             -2.284390            -0.145285
| 17>   C                      2.972572             -0.901774            1.372664
| 18>   O                      3.715877             -0.053173            0.503747
| 19>   H                      4.643713             -0.350892            0.272494
| 20>   H                      2.042537             -0.463022            1.683760
| 21>   H                      2.718830             -1.816522            0.938662
| 22>   H                      3.540776             -1.169969            2.319029
| 23> *
| 24>
| 25> #Run DFT-D3 single point of the molecule with dimer basis set
| 26> $new_job
| 27> %base "5-2_DFT_A"
| 28> ! wB97X-D3 def2-TZVP TIGHTSCF CHELPG PMODEL
| 29>
| 30> %scf
| 31> MaxIter 1000
| 32> end
| 33>
| 34> * xyz 0 1
| 35>   C                      7.637502             -1.565497            0.430449
| 36>   O                      6.279459             -1.591730            0.075538
| 37>   H                      6.138315             -2.503580            0.236057
| 38>   H                      8.043561             -0.510717            0.303914
| 39>   H                      7.798157             -1.853950            1.427963
| 40>   H                      8.171181             -2.284390            -0.145285
| 41>   C                    : 2.972572             -0.901774            1.372664
| 42>   O                    : 3.715877             -0.053173            0.503747
| 43>   H                    : 4.643713             -0.350892            0.272494
| 44>   H                    : 2.042537             -0.463022            1.683760
| 45>   H                    : 2.718830             -1.816522            0.938662
| 46>   H                    : 3.540776             -1.169969            2.319029
| 47> *
| 48>
| 49> #Run DFT-D3 single point of the particle with dimer basis set
| 50> $new_job
| 51> %base "5-2_DFT_B"
| 52> ! wB97X-D3 def2-TZVP TIGHTSCF CHELPG PMODEL
| 53>
| 54> %scf
| 55> MaxIter 1000
| 56> end
| 57>
| 58> * xyz 0 1
| 59>   C                    : 7.637502             -1.565497            0.430449
| 60>   O                    : 6.279459             -1.591730            0.075538
| 61>   H                    : 6.138315             -2.503580            0.236057
| 62>   H                    : 8.043561             -0.510717            0.303914
| 63>   H                    : 7.798157             -1.853950            1.427963
| 64>   H                    : 8.171181             -2.284390            -0.145285
| 65>   C                      2.972572             -0.901774            1.372664
| 66>   O                      3.715877             -0.053173            0.503747
| 67>   H                      4.643713             -0.350892            0.272494
| 68>   H                      2.042537             -0.463022            1.683760
| 69>   H                      2.718830             -1.816522            0.938662
| 70>   H                      3.540776             -1.169969            2.319029
| 71> *
| 72>
| 73>                          ****END OF INPUT****
 Total Charge           Charge          ....    0
 Multiplicity           Mult            ....    1
 Number of Electrons    NEL             ....   36
Dispersion correction           -0.001577707
FINAL SINGLE POINT ENERGY      -231.465763083291
Dispersion correction           -0.000194780
FINAL SINGLE POINT ENERGY      -115.728593826195

CARTESIAN COORDINATES (ANGSTROEM)
---------------------------------
  C      7.637502   -1.565497    0.430449
  O      6.279459   -1.591730    0.075538
  H      6.138315   -2.503580    0.236057
  H      8.043561   -0.510717    0.303914
  H      7.798157   -1.853950    1.427963
  H      8.171181   -2.284390   -0.145285
  C      2.972572   -0.901774    1.372664
  O      3.715877   -0.053173    0.503747
  H      4.643713   -0.350892    0.272494
  H      2.042537   -0.463022    1.683760
  H      2.718830   -1.816522    0.938662
  H      3.540776   -1.169969    2.319029

 Multiplicity           Mult            ....    1
 Number of Electrons    NEL             ....   18
 Basis Dimension        Dim             ....  172

ORBITAL ENERGIES
----------------

  NO   OCC          E(Eh)            E(eV)
   0   2.0000     -19.231989      -523.3290
   1   2.0000     -10.311140      -280.5804
   2   2.0000      -1.120338       -30.4859
   3   2.0000      -0.800139       -21.7729
   4   2.0000      -0.608067       -16.5463
   5   2.0000      -0.535420       -14.5695
   6   2.0000      -0.530249       -14.4288
   7   2.0000      -0.423676       -11.5288
   8   2.0000      -0.372021       -10.1232
   9   0.0000       0.067624         1.8401
  10   0.0000       0.127693         3.4747
  11   0.0000       0.143469         3.9040
  12   0.0000       0.169652         4.6165
  13   0.0000       0.191444         5.2095

MULLIKEN ATOMIC CHARGES
-----------------------
   0 C :   -0.002465
   1 O :   -0.004199
   2 H :   -0.000069
   3 H :    0.000185
   4 H :    0.000103
   5 H :    0.000019
   6 C :   -0.145201
   7 O :   -0.497052
   8 H :    0.327492
   9 H :    0.122403
  10 H :    0.105065
  11 H :    0.093718
Sum of atomic charges:   -0.0000000

LOEWDIN ATOMIC CHARGES
----------------------
   0 C :   -0.001868
   1 O :   -0.016325
   2 H :   -0.001343
   3 H :   -0.000093
   4 H :   -0.000045
   5 H :   -0.000059
   6 C :   -0.373400
   7 O :   -0.096803
   8 H :    0.198762
   9 H :    0.105539
  10 H :    0.083244
  11 H :    0.102389

  Mayer bond orders larger than 0.1
B(  6-C ,  7-O ) :   0.9885 B(  6-C ,  9-H ) :   0.9727 B(  6-C , 10-H ) :   0.9763
B(  6-C , 11-H ) :   0.9790 B(  7-O ,  8-H ) :   0.8862

Dispersion correction           -0.000276552
FINAL SINGLE POINT ENERGY      -115.729559001184

DIPOLE MOMENT
-------------
                                X             Y             Z
Electronic contribution:      0.78086       1.18832      -1.19278
Nuclear contribution   :     -0.52208      -1.74225       1.39491
                        -----------------------------------------
Total Dipole Moment    :      0.25878      -0.55393       0.20214
                        -----------------------------------------
Magnitude (a.u.)       :      0.64395
Magnitude (Debye)      :      1.63679

Rotational constants in cm-1:     4.498391     0.803901     0.774598
Rotational constants in MHz : 134858.363932 24100.339232 23221.876660

                             ****ORCA TERMINATED NORMALLY****
TOTAL RUN TIME: 0 days 0 hours 0 minutes 57 seconds 828 msec
