                         Program Version 4.1.2  - RELEASE  -
|  1> #Run DFT-D3 single point of the dimer
|  2> ! wB97X-D3 def2-TZVP TIGHTSCF CHELPG PMODEL PAL8
|  3>
|  4> %base "11-52_DFT_AB"
|  5>
|  6> %scf
|  7> MaxIter 1000
|  8> end
|  9>
| 10> * xyz 0 1
| 11>   C                      -2.287004            -7.105774            -7.763036
| 12>   O                      -0.949285            -7.170664            -8.203545
| 13>   H                      -0.939735            -7.506460            -9.050222
| 14>   H                      -2.333886            -6.430946            -6.937260
| 15>   H                      -2.922818            -6.617067            -8.546304
| 16>   H                      -2.776979            -8.069040            -7.408969
| 17>   C                      -6.805916            -6.748151            -5.901701
| 18>   O                      -5.681329            -7.510598            -6.026313
| 19>   H                      -5.736484            -8.379775            -5.658797
| 20>   H                      -7.200829            -6.626899            -4.873511
| 21>   H                      -6.523811            -5.749640            -6.282327
| 22>   H                      -7.607116            -7.095424            -6.519180
| 23> *
| 24>
| 25> #Run DFT-D3 single point of the molecule with dimer basis set
| 26> $new_job
| 27> %base "11-52_DFT_A"
| 28> ! wB97X-D3 def2-TZVP TIGHTSCF CHELPG PMODEL
| 29>
| 30> %scf
| 31> MaxIter 1000
| 32> end
| 33>
| 34> * xyz 0 1
| 35>   C                      -2.287004            -7.105774            -7.763036
| 36>   O                      -0.949285            -7.170664            -8.203545
| 37>   H                      -0.939735            -7.506460            -9.050222
| 38>   H                      -2.333886            -6.430946            -6.937260
| 39>   H                      -2.922818            -6.617067            -8.546304
| 40>   H                      -2.776979            -8.069040            -7.408969
| 41>   C                    : -6.805916            -6.748151            -5.901701
| 42>   O                    : -5.681329            -7.510598            -6.026313
| 43>   H                    : -5.736484            -8.379775            -5.658797
| 44>   H                    : -7.200829            -6.626899            -4.873511
| 45>   H                    : -6.523811            -5.749640            -6.282327
| 46>   H                    : -7.607116            -7.095424            -6.519180
| 47> *
| 48>
| 49> #Run DFT-D3 single point of the particle with dimer basis set
| 50> $new_job
| 51> %base "11-52_DFT_B"
| 52> ! wB97X-D3 def2-TZVP TIGHTSCF CHELPG PMODEL
| 53>
| 54> %scf
| 55> MaxIter 1000
| 56> end
| 57>
| 58> * xyz 0 1
| 59>   C                    : -2.287004            -7.105774            -7.763036
| 60>   O                    : -0.949285            -7.170664            -8.203545
| 61>   H                    : -0.939735            -7.506460            -9.050222
| 62>   H                    : -2.333886            -6.430946            -6.937260
| 63>   H                    : -2.922818            -6.617067            -8.546304
| 64>   H                    : -2.776979            -8.069040            -7.408969
| 65>   C                      -6.805916            -6.748151            -5.901701
| 66>   O                      -5.681329            -7.510598            -6.026313
| 67>   H                      -5.736484            -8.379775            -5.658797
| 68>   H                      -7.200829            -6.626899            -4.873511
| 69>   H                      -6.523811            -5.749640            -6.282327
| 70>   H                      -7.607116            -7.095424            -6.519180
| 71> *
| 72>
| 73>                          ****END OF INPUT****
 Total Charge           Charge          ....    0
 Multiplicity           Mult            ....    1
 Number of Electrons    NEL             ....   36
Dispersion correction           -0.001130440
FINAL SINGLE POINT ENERGY      -231.467355169728
Dispersion correction           -0.000256816
FINAL SINGLE POINT ENERGY      -115.731671981297

CARTESIAN COORDINATES (ANGSTROEM)
---------------------------------
  C     -2.287004   -7.105774   -7.763036
  O     -0.949285   -7.170664   -8.203545
  H     -0.939735   -7.506460   -9.050222
  H     -2.333886   -6.430946   -6.937260
  H     -2.922818   -6.617067   -8.546304
  H     -2.776979   -8.069040   -7.408969
  C     -6.805916   -6.748151   -5.901701
  O     -5.681329   -7.510598   -6.026313
  H     -5.736484   -8.379775   -5.658797
  H     -7.200829   -6.626899   -4.873511
  H     -6.523811   -5.749640   -6.282327
  H     -7.607116   -7.095424   -6.519180

 Multiplicity           Mult            ....    1
 Number of Electrons    NEL             ....   18
 Basis Dimension        Dim             ....  172

ORBITAL ENERGIES
----------------

  NO   OCC          E(Eh)            E(eV)
   0   2.0000     -19.227419      -523.2047
   1   2.0000     -10.308650      -280.5126
   2   2.0000      -1.150860       -31.3165
   3   2.0000      -0.799722       -21.7615
   4   2.0000      -0.625042       -17.0083
   5   2.0000      -0.546444       -14.8695
   6   2.0000      -0.531457       -14.4617
   7   2.0000      -0.422821       -11.5055
   8   2.0000      -0.372500       -10.1362
   9   0.0000       0.095442         2.5971
  10   0.0000       0.121805         3.3145
  11   0.0000       0.155432         4.2295
  12   0.0000       0.174466         4.7475
  13   0.0000       0.201183         5.4745

MULLIKEN ATOMIC CHARGES
-----------------------
   0 C :    0.001748
   1 O :   -0.000075
   2 H :   -0.000019
   3 H :   -0.001700
   4 H :   -0.000863
   5 H :   -0.002663
   6 C :   -0.133118
   7 O :   -0.472878
   8 H :    0.314789
   9 H :    0.089319
  10 H :    0.110158
  11 H :    0.095303
Sum of atomic charges:    0.0000000

LOEWDIN ATOMIC CHARGES
----------------------
   0 C :   -0.003437
   1 O :   -0.000022
   2 H :   -0.000010
   3 H :   -0.000633
   4 H :   -0.000264
   5 H :   -0.001834
   6 C :   -0.419659
   7 O :   -0.028369
   8 H :    0.160103
   9 H :    0.094002
  10 H :    0.113261
  11 H :    0.086861

  Mayer bond orders larger than 0.1
B(  6-C ,  7-O ) :   1.0027 B(  6-C ,  9-H ) :   0.9715 B(  6-C , 10-H ) :   0.9765
B(  6-C , 11-H ) :   0.9768 B(  7-O ,  8-H ) :   0.8941

Dispersion correction           -0.000243027
FINAL SINGLE POINT ENERGY      -115.734372632248

DIPOLE MOMENT
-------------
                                X             Y             Z
Electronic contribution:      1.50327      -1.00772      -0.17136
Nuclear contribution   :     -1.97150       0.71882       0.45633
                        -----------------------------------------
Total Dipole Moment    :     -0.46824      -0.28891       0.28497
                        -----------------------------------------
Magnitude (a.u.)       :      0.61961
Magnitude (Debye)      :      1.57493

Rotational constants in cm-1:     4.445360     0.871089     0.840388
Rotational constants in MHz : 133268.530114 26114.602090 25194.186061

                             ****ORCA TERMINATED NORMALLY****
TOTAL RUN TIME: 0 days 0 hours 1 minutes 10 seconds 135 msec
