                         Program Version 4.1.2  - RELEASE  -
|  1> #Run DFT-D3 single point of the dimer
|  2> ! wB97X-D3 def2-TZVP TIGHTSCF CHELPG PMODEL PAL8
|  3>
|  4> %base "18-48_DFT_AB"
|  5>
|  6> %scf
|  7> MaxIter 1000
|  8> end
|  9>
| 10> * xyz 0 1
| 11>   C                      -2.012563            4.665636             -1.975602
| 12>   O                      -2.587163            3.443356             -2.387225
| 13>   H                      -2.699769            2.832937             -1.683804
| 14>   H                      -1.104865            4.452574             -1.373677
| 15>   H                      -1.693675            5.183946             -2.882772
| 16>   H                      -2.766827            5.318061             -1.491630
| 17>   C                      -0.737842            8.074966             -4.224974
| 18>   O                      -0.837398            7.776012             -2.862114
| 19>   H                      -0.171429            7.075582             -2.764346
| 20>   H                      0.352102             8.046983             -4.530430
| 21>   H                      -1.171739            7.360708             -4.842329
| 22>   H                      -1.044718            8.953931             -4.647239
| 23> *
| 24>
| 25> #Run DFT-D3 single point of the molecule with dimer basis set
| 26> $new_job
| 27> %base "18-48_DFT_A"
| 28> ! wB97X-D3 def2-TZVP TIGHTSCF CHELPG PMODEL
| 29>
| 30> %scf
| 31> MaxIter 1000
| 32> end
| 33>
| 34> * xyz 0 1
| 35>   C                      -2.012563            4.665636             -1.975602
| 36>   O                      -2.587163            3.443356             -2.387225
| 37>   H                      -2.699769            2.832937             -1.683804
| 38>   H                      -1.104865            4.452574             -1.373677
| 39>   H                      -1.693675            5.183946             -2.882772
| 40>   H                      -2.766827            5.318061             -1.491630
| 41>   C                    : -0.737842            8.074966             -4.224974
| 42>   O                    : -0.837398            7.776012             -2.862114
| 43>   H                    : -0.171429            7.075582             -2.764346
| 44>   H                    : 0.352102             8.046983             -4.530430
| 45>   H                    : -1.171739            7.360708             -4.842329
| 46>   H                    : -1.044718            8.953931             -4.647239
| 47> *
| 48>
| 49> #Run DFT-D3 single point of the particle with dimer basis set
| 50> $new_job
| 51> %base "18-48_DFT_B"
| 52> ! wB97X-D3 def2-TZVP TIGHTSCF CHELPG PMODEL
| 53>
| 54> %scf
| 55> MaxIter 1000
| 56> end
| 57>
| 58> * xyz 0 1
| 59>   C                    : -2.012563            4.665636             -1.975602
| 60>   O                    : -2.587163            3.443356             -2.387225
| 61>   H                    : -2.699769            2.832937             -1.683804
| 62>   H                    : -1.104865            4.452574             -1.373677
| 63>   H                    : -1.693675            5.183946             -2.882772
| 64>   H                    : -2.766827            5.318061             -1.491630
| 65>   C                      -0.737842            8.074966             -4.224974
| 66>   O                      -0.837398            7.776012             -2.862114
| 67>   H                      -0.171429            7.075582             -2.764346
| 68>   H                      0.352102             8.046983             -4.530430
| 69>   H                      -1.171739            7.360708             -4.842329
| 70>   H                      -1.044718            8.953931             -4.647239
| 71> *
| 72>
| 73>                          ****END OF INPUT****
 Total Charge           Charge          ....    0
 Multiplicity           Mult            ....    1
 Number of Electrons    NEL             ....   36
Dispersion correction           -0.001594041
FINAL SINGLE POINT ENERGY      -231.456399184998
Dispersion correction           -0.000246454
FINAL SINGLE POINT ENERGY      -115.735038480899

CARTESIAN COORDINATES (ANGSTROEM)
---------------------------------
  C     -2.012563    4.665636   -1.975602
  O     -2.587163    3.443356   -2.387225
  H     -2.699769    2.832937   -1.683804
  H     -1.104865    4.452574   -1.373677
  H     -1.693675    5.183946   -2.882772
  H     -2.766827    5.318061   -1.491630
  C     -0.737842    8.074966   -4.224974
  O     -0.837398    7.776012   -2.862114
  H     -0.171429    7.075582   -2.764346
  H      0.352102    8.046983   -4.530430
  H     -1.171739    7.360708   -4.842329
  H     -1.044718    8.953931   -4.647239

 Multiplicity           Mult            ....    1
 Number of Electrons    NEL             ....   18
 Basis Dimension        Dim             ....  172

ORBITAL ENERGIES
----------------

  NO   OCC          E(Eh)            E(eV)
   0   2.0000     -19.237617      -523.4822
   1   2.0000     -10.303546      -280.3737
   2   2.0000      -1.145515       -31.1711
   3   2.0000      -0.805741       -21.9253
   4   2.0000      -0.614803       -16.7297
   5   2.0000      -0.547226       -14.8908
   6   2.0000      -0.541198       -14.7267
   7   2.0000      -0.433915       -11.8074
   8   2.0000      -0.374879       -10.2010
   9   0.0000       0.083527         2.2729
  10   0.0000       0.121039         3.2936
  11   0.0000       0.150275         4.0892
  12   0.0000       0.178937         4.8691
  13   0.0000       0.193976         5.2783

MULLIKEN ATOMIC CHARGES
-----------------------
   0 C :    0.003413
   1 O :   -0.000323
   2 H :   -0.000033
   3 H :   -0.000498
   4 H :   -0.011070
   5 H :   -0.001419
   6 C :   -0.185894
   7 O :   -0.453857
   8 H :    0.327304
   9 H :    0.090207
  10 H :    0.106281
  11 H :    0.125888
Sum of atomic charges:    0.0000000

LOEWDIN ATOMIC CHARGES
----------------------
   0 C :   -0.008271
   1 O :   -0.000043
   2 H :   -0.000023
   3 H :   -0.000343
   4 H :   -0.006423
   5 H :   -0.001086
   6 C :   -0.396458
   7 O :   -0.053682
   8 H :    0.187845
   9 H :    0.103859
  10 H :    0.084108
  11 H :    0.090517

  Mayer bond orders larger than 0.1
B(  6-C ,  7-O ) :   1.0123 B(  6-C ,  9-H ) :   0.9965 B(  6-C , 10-H ) :   0.9745
B(  6-C , 11-H ) :   0.9759 B(  7-O ,  8-H ) :   0.8924

Dispersion correction           -0.000218873
FINAL SINGLE POINT ENERGY      -115.720444517468

DIPOLE MOMENT
-------------
                                X             Y             Z
Electronic contribution:     -0.49786      -0.14666       1.97015
Nuclear contribution   :      0.93627      -0.14913      -2.44889
                        -----------------------------------------
Total Dipole Moment    :      0.43841      -0.29579      -0.47874
                        -----------------------------------------
Magnitude (a.u.)       :      0.71337
Magnitude (Debye)      :      1.81323

Rotational constants in cm-1:     4.660019     0.843276     0.809886
Rotational constants in MHz : 139703.867612 25280.774437 24279.765195

                             ****ORCA TERMINATED NORMALLY****
TOTAL RUN TIME: 0 days 0 hours 1 minutes 1 seconds 30 msec
