                         Program Version 4.1.2  - RELEASE  -
|  1> #Run DFT-D3 single point of the dimer
|  2> ! wB97X-D3 def2-TZVP TIGHTSCF CHELPG PMODEL PAL8
|  3>
|  4> %base "11-16_DFT_AB"
|  5>
|  6> %scf
|  7> MaxIter 1000
|  8> end
|  9>
| 10> * xyz 0 1
| 11>   C                      -9.588072            -1.444471            5.461368
| 12>   O                      -10.403230           -2.633637            5.367968
| 13>   H                      -11.278415           -2.425012            5.028035
| 14>   H                      -9.139766            -1.218325            4.490122
| 15>   H                      -10.162974           -0.559693            5.727943
| 16>   H                      -8.740249            -1.545357            6.116138
| 17>   C                      -6.180716            -0.682254            7.171741
| 18>   O                      -6.499451            -2.054292            7.213974
| 19>   H                      -5.640469            -2.484737            7.183619
| 20>   H                      -6.759320            -0.134508            6.378333
| 21>   H                      -6.352808            -0.289618            8.170732
| 22>   H                      -5.133995            -0.500338            6.914693
| 23> *
| 24>
| 25> #Run DFT-D3 single point of the molecule with dimer basis set
| 26> $new_job
| 27> %base "11-16_DFT_A"
| 28> ! wB97X-D3 def2-TZVP TIGHTSCF CHELPG PMODEL
| 29>
| 30> %scf
| 31> MaxIter 1000
| 32> end
| 33>
| 34> * xyz 0 1
| 35>   C                      -9.588072            -1.444471            5.461368
| 36>   O                      -10.403230           -2.633637            5.367968
| 37>   H                      -11.278415           -2.425012            5.028035
| 38>   H                      -9.139766            -1.218325            4.490122
| 39>   H                      -10.162974           -0.559693            5.727943
| 40>   H                      -8.740249            -1.545357            6.116138
| 41>   C                    : -6.180716            -0.682254            7.171741
| 42>   O                    : -6.499451            -2.054292            7.213974
| 43>   H                    : -5.640469            -2.484737            7.183619
| 44>   H                    : -6.759320            -0.134508            6.378333
| 45>   H                    : -6.352808            -0.289618            8.170732
| 46>   H                    : -5.133995            -0.500338            6.914693
| 47> *
| 48>
| 49> #Run DFT-D3 single point of the particle with dimer basis set
| 50> $new_job
| 51> %base "11-16_DFT_B"
| 52> ! wB97X-D3 def2-TZVP TIGHTSCF CHELPG PMODEL
| 53>
| 54> %scf
| 55> MaxIter 1000
| 56> end
| 57>
| 58> * xyz 0 1
| 59>   C                    : -9.588072            -1.444471            5.461368
| 60>   O                    : -10.403230           -2.633637            5.367968
| 61>   H                    : -11.278415           -2.425012            5.028035
| 62>   H                    : -9.139766            -1.218325            4.490122
| 63>   H                    : -10.162974           -0.559693            5.727943
| 64>   H                    : -8.740249            -1.545357            6.116138
| 65>   C                      -6.180716            -0.682254            7.171741
| 66>   O                      -6.499451            -2.054292            7.213974
| 67>   H                      -5.640469            -2.484737            7.183619
| 68>   H                      -6.759320            -0.134508            6.378333
| 69>   H                      -6.352808            -0.289618            8.170732
| 70>   H                      -5.133995            -0.500338            6.914693
| 71> *
| 72>
| 73>                          ****END OF INPUT****
 Total Charge           Charge          ....    0
 Multiplicity           Mult            ....    1
 Number of Electrons    NEL             ....   36
Dispersion correction           -0.001592601
FINAL SINGLE POINT ENERGY      -231.467904412565
Dispersion correction           -0.000263343
FINAL SINGLE POINT ENERGY      -115.733689196740

CARTESIAN COORDINATES (ANGSTROEM)
---------------------------------
  C     -9.588072   -1.444471    5.461368
  O    -10.403230   -2.633637    5.367968
  H    -11.278415   -2.425012    5.028035
  H     -9.139766   -1.218325    4.490122
  H    -10.162974   -0.559693    5.727943
  H     -8.740249   -1.545357    6.116138
  C     -6.180716   -0.682254    7.171741
  O     -6.499451   -2.054292    7.213974
  H     -5.640469   -2.484737    7.183619
  H     -6.759320   -0.134508    6.378333
  H     -6.352808   -0.289618    8.170732
  H     -5.133995   -0.500338    6.914693

 Multiplicity           Mult            ....    1
 Number of Electrons    NEL             ....   18
 Basis Dimension        Dim             ....  172

ORBITAL ENERGIES
----------------

  NO   OCC          E(Eh)            E(eV)
   0   2.0000     -19.230738      -523.2950
   1   2.0000     -10.314837      -280.6810
   2   2.0000      -1.140790       -31.0425
   3   2.0000      -0.790613       -21.5137
   4   2.0000      -0.613348       -16.6900
   5   2.0000      -0.546901       -14.8819
   6   2.0000      -0.520664       -14.1680
   7   2.0000      -0.435816       -11.8592
   8   2.0000      -0.373983       -10.1766
   9   0.0000       0.093666         2.5488
  10   0.0000       0.117435         3.1956
  11   0.0000       0.152269         4.1435
  12   0.0000       0.175446         4.7741
  13   0.0000       0.196133         5.3371

MULLIKEN ATOMIC CHARGES
-----------------------
   0 C :   -0.004858
   1 O :    0.000163
   2 H :    0.000002
   3 H :   -0.000088
   4 H :   -0.000079
   5 H :    0.004811
   6 C :   -0.173884
   7 O :   -0.461935
   8 H :    0.313761
   9 H :    0.110086
  10 H :    0.108509
  11 H :    0.103513
Sum of atomic charges:    0.0000000

LOEWDIN ATOMIC CHARGES
----------------------
   0 C :   -0.004787
   1 O :   -0.000018
   2 H :   -0.000003
   3 H :   -0.000187
   4 H :   -0.000071
   5 H :   -0.007945
   6 C :   -0.392122
   7 O :   -0.068970
   8 H :    0.172612
   9 H :    0.108757
  10 H :    0.097647
  11 H :    0.095087

  Mayer bond orders larger than 0.1
B(  6-C ,  7-O ) :   1.0014 B(  6-C ,  9-H ) :   0.9721 B(  6-C , 10-H ) :   0.9796
B(  6-C , 11-H ) :   0.9827 B(  7-O ,  8-H ) :   0.9020

Dispersion correction           -0.000234367
FINAL SINGLE POINT ENERGY      -115.733266179356

DIPOLE MOMENT
-------------
                                X             Y             Z
Electronic contribution:     -0.58178      -1.75812       0.07124
Nuclear contribution   :      1.28033       2.00321      -0.11127
                        -----------------------------------------
Total Dipole Moment    :      0.69855       0.24510      -0.04003
                        -----------------------------------------
Magnitude (a.u.)       :      0.74139
Magnitude (Debye)      :      1.88445

Rotational constants in cm-1:     4.193778     0.837743     0.812848
Rotational constants in MHz : 125726.297901 25114.901576 24368.565662

                             ****ORCA TERMINATED NORMALLY****
TOTAL RUN TIME: 0 days 0 hours 1 minutes 8 seconds 274 msec
