                         Program Version 4.1.2  - RELEASE  -
|  1> #Run DFT-D3 single point of the dimer
|  2> ! wB97X-D3 def2-TZVP TIGHTSCF CHELPG PMODEL PAL8
|  3>
|  4> %base "18-143_DFT_AB"
|  5>
|  6> %scf
|  7> MaxIter 1000
|  8> end
|  9>
| 10> * xyz 0 1
| 11>   C                      2.523888             4.676657             7.090738
| 12>   O                      2.566897             6.070124             6.773619
| 13>   H                      1.949694             6.599378             7.303895
| 14>   H                      3.367195             4.206097             6.586594
| 15>   H                      2.634672             4.644139             8.164876
| 16>   H                      1.636308             4.135860             6.734283
| 17>   C                      4.925837             7.410630             4.917166
| 18>   O                      4.454631             8.192782             6.072312
| 19>   H                      4.090017             7.434244             6.638904
| 20>   H                      4.138016             7.472935             4.115969
| 21>   H                      5.899441             7.748438             4.407945
| 22>   H                      4.893873             6.343783             5.211386
| 23> *
| 24>
| 25> #Run DFT-D3 single point of the molecule with dimer basis set
| 26> $new_job
| 27> %base "18-143_DFT_A"
| 28> ! wB97X-D3 def2-TZVP TIGHTSCF CHELPG PMODEL
| 29>
| 30> %scf
| 31> MaxIter 1000
| 32> end
| 33>
| 34> * xyz 0 1
| 35>   C                      2.523888             4.676657             7.090738
| 36>   O                      2.566897             6.070124             6.773619
| 37>   H                      1.949694             6.599378             7.303895
| 38>   H                      3.367195             4.206097             6.586594
| 39>   H                      2.634672             4.644139             8.164876
| 40>   H                      1.636308             4.135860             6.734283
| 41>   C                    : 4.925837             7.410630             4.917166
| 42>   O                    : 4.454631             8.192782             6.072312
| 43>   H                    : 4.090017             7.434244             6.638904
| 44>   H                    : 4.138016             7.472935             4.115969
| 45>   H                    : 5.899441             7.748438             4.407945
| 46>   H                    : 4.893873             6.343783             5.211386
| 47> *
| 48>
| 49> #Run DFT-D3 single point of the particle with dimer basis set
| 50> $new_job
| 51> %base "18-143_DFT_B"
| 52> ! wB97X-D3 def2-TZVP TIGHTSCF CHELPG PMODEL
| 53>
| 54> %scf
| 55> MaxIter 1000
| 56> end
| 57>
| 58> * xyz 0 1
| 59>   C                    : 2.523888             4.676657             7.090738
| 60>   O                    : 2.566897             6.070124             6.773619
| 61>   H                    : 1.949694             6.599378             7.303895
| 62>   H                    : 3.367195             4.206097             6.586594
| 63>   H                    : 2.634672             4.644139             8.164876
| 64>   H                    : 1.636308             4.135860             6.734283
| 65>   C                      4.925837             7.410630             4.917166
| 66>   O                      4.454631             8.192782             6.072312
| 67>   H                      4.090017             7.434244             6.638904
| 68>   H                      4.138016             7.472935             4.115969
| 69>   H                      5.899441             7.748438             4.407945
| 70>   H                      4.893873             6.343783             5.211386
| 71> *
| 72>
| 73>                          ****END OF INPUT****
 Total Charge           Charge          ....    0
 Multiplicity           Mult            ....    1
 Number of Electrons    NEL             ....   36
Dispersion correction           -0.001967047
FINAL SINGLE POINT ENERGY      -231.464515639771
Dispersion correction           -0.000249218
FINAL SINGLE POINT ENERGY      -115.734135057040

CARTESIAN COORDINATES (ANGSTROEM)
---------------------------------
  C      2.523888    4.676657    7.090738
  O      2.566897    6.070124    6.773619
  H      1.949694    6.599378    7.303895
  H      3.367195    4.206097    6.586594
  H      2.634672    4.644139    8.164876
  H      1.636308    4.135860    6.734283
  C      4.925837    7.410630    4.917166
  O      4.454631    8.192782    6.072312
  H      4.090017    7.434244    6.638904
  H      4.138016    7.472935    4.115969
  H      5.899441    7.748438    4.407945
  H      4.893873    6.343783    5.211386

 Multiplicity           Mult            ....    1
 Number of Electrons    NEL             ....   18
 Basis Dimension        Dim             ....  172

ORBITAL ENERGIES
----------------

  NO   OCC          E(Eh)            E(eV)
   0   2.0000     -19.239474      -523.5327
   1   2.0000     -10.330164      -281.0981
   2   2.0000      -1.116714       -30.3873
   3   2.0000      -0.783783       -21.3278
   4   2.0000      -0.596601       -16.2343
   5   2.0000      -0.524636       -14.2761
   6   2.0000      -0.521072       -14.1791
   7   2.0000      -0.443942       -12.0803
   8   2.0000      -0.371832       -10.1181
   9   0.0000       0.064412         1.7527
  10   0.0000       0.127584         3.4717
  11   0.0000       0.136855         3.7240
  12   0.0000       0.162568         4.4237
  13   0.0000       0.188964         5.1420

MULLIKEN ATOMIC CHARGES
-----------------------
   0 C :   -0.001298
   1 O :   -0.005263
   2 H :   -0.001485
   3 H :   -0.000151
   4 H :    0.000159
   5 H :   -0.000034
   6 C :   -0.199903
   7 O :   -0.460124
   8 H :    0.316867
   9 H :    0.111486
  10 H :    0.127500
  11 H :    0.112247
Sum of atomic charges:   -0.0000000

LOEWDIN ATOMIC CHARGES
----------------------
   0 C :   -0.002351
   1 O :   -0.017699
   2 H :   -0.002853
   3 H :   -0.000678
   4 H :   -0.000048
   5 H :   -0.000045
   6 C :   -0.369284
   7 O :   -0.131049
   8 H :    0.206365
   9 H :    0.102616
  10 H :    0.115155
  11 H :    0.099871

  Mayer bond orders larger than 0.1
B(  6-C ,  7-O ) :   0.9950 B(  6-C ,  9-H ) :   0.9752 B(  6-C , 10-H ) :   0.9653
B(  6-C , 11-H ) :   0.9860 B(  7-O ,  8-H ) :   0.9015

Dispersion correction           -0.000266798
FINAL SINGLE POINT ENERGY      -115.722297468375

DIPOLE MOMENT
-------------
                                X             Y             Z
Electronic contribution:     -0.35559       1.21654       1.44267
Nuclear contribution   :      0.32044      -1.98692      -1.57763
                        -----------------------------------------
Total Dipole Moment    :     -0.03515      -0.77039      -0.13496
                        -----------------------------------------
Magnitude (a.u.)       :      0.78291
Magnitude (Debye)      :      1.98999

Rotational constants in cm-1:     3.966868     0.783469     0.743245
Rotational constants in MHz : 118923.718918 23487.821806 22281.926390

                             ****ORCA TERMINATED NORMALLY****
TOTAL RUN TIME: 0 days 0 hours 1 minutes 0 seconds 164 msec
