                         Program Version 4.1.2  - RELEASE  -
|  1> #Run DFT-D3 single point of the dimer
|  2> ! wB97X-D3 def2-TZVP TIGHTSCF CHELPG PMODEL PAL8
|  3>
|  4> %base "6-206_DFT_AB"
|  5>
|  6> %scf
|  7> MaxIter 1000
|  8> end
|  9>
| 10> * xyz 0 1
| 11>   C                      10.895019            6.531657             -6.355594
| 12>   O                      9.685644             5.754134             -6.415221
| 13>   H                      9.301084             5.789789             -7.336204
| 14>   H                      10.717590            7.557502             -5.882452
| 15>   H                      11.654161            5.986355             -5.825441
| 16>   H                      11.412275            6.696927             -7.304675
| 17>   C                      9.765368             5.188127             -9.706514
| 18>   O                      9.447055             6.533350             -9.160003
| 19>   H                      9.942647             7.193370             -9.609561
| 20>   H                      10.730488            4.911969             -9.319203
| 21>   H                      8.967978             4.481743             -9.474042
| 22>   H                      9.787479             5.140489             -10.783970
| 23> *
| 24>
| 25> #Run DFT-D3 single point of the molecule with dimer basis set
| 26> $new_job
| 27> %base "6-206_DFT_A"
| 28> ! wB97X-D3 def2-TZVP TIGHTSCF CHELPG PMODEL
| 29>
| 30> %scf
| 31> MaxIter 1000
| 32> end
| 33>
| 34> * xyz 0 1
| 35>   C                      10.895019            6.531657             -6.355594
| 36>   O                      9.685644             5.754134             -6.415221
| 37>   H                      9.301084             5.789789             -7.336204
| 38>   H                      10.717590            7.557502             -5.882452
| 39>   H                      11.654161            5.986355             -5.825441
| 40>   H                      11.412275            6.696927             -7.304675
| 41>   C                    : 9.765368             5.188127             -9.706514
| 42>   O                    : 9.447055             6.533350             -9.160003
| 43>   H                    : 9.942647             7.193370             -9.609561
| 44>   H                    : 10.730488            4.911969             -9.319203
| 45>   H                    : 8.967978             4.481743             -9.474042
| 46>   H                    : 9.787479             5.140489             -10.783970
| 47> *
| 48>
| 49> #Run DFT-D3 single point of the particle with dimer basis set
| 50> $new_job
| 51> %base "6-206_DFT_B"
| 52> ! wB97X-D3 def2-TZVP TIGHTSCF CHELPG PMODEL
| 53>
| 54> %scf
| 55> MaxIter 1000
| 56> end
| 57>
| 58> * xyz 0 1
| 59>   C                    : 10.895019            6.531657             -6.355594
| 60>   O                    : 9.685644             5.754134             -6.415221
| 61>   H                    : 9.301084             5.789789             -7.336204
| 62>   H                    : 10.717590            7.557502             -5.882452
| 63>   H                    : 11.654161            5.986355             -5.825441
| 64>   H                    : 11.412275            6.696927             -7.304675
| 65>   C                      9.765368             5.188127             -9.706514
| 66>   O                      9.447055             6.533350             -9.160003
| 67>   H                      9.942647             7.193370             -9.609561
| 68>   H                      10.730488            4.911969             -9.319203
| 69>   H                      8.967978             4.481743             -9.474042
| 70>   H                      9.787479             5.140489             -10.783970
| 71> *
| 72>
| 73>                          ****END OF INPUT****
 Total Charge           Charge          ....    0
 Multiplicity           Mult            ....    1
 Number of Electrons    NEL             ....   36
Dispersion correction           -0.002357816
FINAL SINGLE POINT ENERGY      -231.468570130026
Dispersion correction           -0.000284439
FINAL SINGLE POINT ENERGY      -115.731107837852

CARTESIAN COORDINATES (ANGSTROEM)
---------------------------------
  C     10.895019    6.531657   -6.355594
  O      9.685644    5.754134   -6.415221
  H      9.301084    5.789789   -7.336204
  H     10.717590    7.557502   -5.882452
  H     11.654161    5.986355   -5.825441
  H     11.412275    6.696927   -7.304675
  C      9.765368    5.188127   -9.706514
  O      9.447055    6.533350   -9.160003
  H      9.942647    7.193370   -9.609561
  H     10.730488    4.911969   -9.319203
  H      8.967978    4.481743   -9.474042
  H      9.787479    5.140489  -10.783970

 Multiplicity           Mult            ....    1
 Number of Electrons    NEL             ....   18
 Basis Dimension        Dim             ....  172

ORBITAL ENERGIES
----------------

  NO   OCC          E(Eh)            E(eV)
   0   2.0000     -19.227127      -523.1967
   1   2.0000     -10.317048      -280.7412
   2   2.0000      -1.118185       -30.4274
   3   2.0000      -0.804811       -21.9000
   4   2.0000      -0.600902       -16.3514
   5   2.0000      -0.548157       -14.9161
   6   2.0000      -0.513920       -13.9845
   7   2.0000      -0.435029       -11.8377
   8   2.0000      -0.377915       -10.2836
   9   0.0000       0.096172         2.6170
  10   0.0000       0.135904         3.6981
  11   0.0000       0.146455         3.9852
  12   0.0000       0.182889         4.9767
  13   0.0000       0.192004         5.2247

MULLIKEN ATOMIC CHARGES
-----------------------
   0 C :    0.008229
   1 O :   -0.001022
   2 H :    0.001783
   3 H :   -0.000726
   4 H :   -0.001036
   5 H :   -0.015037
   6 C :   -0.179917
   7 O :   -0.487588
   8 H :    0.308710
   9 H :    0.116396
  10 H :    0.130879
  11 H :    0.119328
Sum of atomic charges:   -0.0000000

LOEWDIN ATOMIC CHARGES
----------------------
   0 C :   -0.013201
   1 O :   -0.004866
   2 H :   -0.031815
   3 H :   -0.000333
   4 H :   -0.000179
   5 H :   -0.006882
   6 C :   -0.320132
   7 O :   -0.075737
   8 H :    0.147736
   9 H :    0.097290
  10 H :    0.112328
  11 H :    0.095790

  Mayer bond orders larger than 0.1
B(  6-C ,  7-O ) :   0.9802 B(  6-C ,  9-H ) :   0.9771 B(  6-C , 10-H ) :   0.9751
B(  6-C , 11-H ) :   0.9697 B(  7-O ,  8-H ) :   0.9041

Dispersion correction           -0.000270900
FINAL SINGLE POINT ENERGY      -115.731430865450

DIPOLE MOMENT
-------------
                                X             Y             Z
Electronic contribution:     -0.45549       1.52621       0.74385
Nuclear contribution   :      0.89500      -1.71147      -1.31566
                        -----------------------------------------
Total Dipole Moment    :      0.43951      -0.18526      -0.57181
                        -----------------------------------------
Magnitude (a.u.)       :      0.74462
Magnitude (Debye)      :      1.89267

Rotational constants in cm-1:     4.432523     0.763050     0.743140
Rotational constants in MHz : 132883.684458 22875.678370 22278.786205

                             ****ORCA TERMINATED NORMALLY****
TOTAL RUN TIME: 0 days 0 hours 1 minutes 6 seconds 583 msec
