                         Program Version 4.1.2  - RELEASE  -
|  1> #Run DFT-D3 single point of the dimer
|  2> ! wB97X-D3 def2-TZVP TIGHTSCF CHELPG PMODEL PAL8
|  3>
|  4> %base "9-195_DFT_AB"
|  5>
|  6> %scf
|  7> MaxIter 1000
|  8> end
|  9>
| 10> * xyz 0 1
| 11>   C                      6.643819             -5.073961            2.193083
| 12>   O                      6.713602             -3.959975            1.388510
| 13>   H                      7.603339             -3.876061            1.129665
| 14>   H                      5.676125             -5.296266            2.692927
| 15>   H                      7.024868             -5.958597            1.775256
| 16>   H                      7.375252             -4.882919            3.008673
| 17>   C                      4.357055             -0.921012            0.508239
| 18>   O                      4.768038             -2.020735            -0.250055
| 19>   H                      5.388173             -2.572599            0.225571
| 20>   H                      3.704529             -1.196182            1.324755
| 21>   H                      5.206016             -0.304580            0.819030
| 22>   H                      3.826832             -0.204135            -0.156533
| 23> *
| 24>
| 25> #Run DFT-D3 single point of the molecule with dimer basis set
| 26> $new_job
| 27> %base "9-195_DFT_A"
| 28> ! wB97X-D3 def2-TZVP TIGHTSCF CHELPG PMODEL
| 29>
| 30> %scf
| 31> MaxIter 1000
| 32> end
| 33>
| 34> * xyz 0 1
| 35>   C                      6.643819             -5.073961            2.193083
| 36>   O                      6.713602             -3.959975            1.388510
| 37>   H                      7.603339             -3.876061            1.129665
| 38>   H                      5.676125             -5.296266            2.692927
| 39>   H                      7.024868             -5.958597            1.775256
| 40>   H                      7.375252             -4.882919            3.008673
| 41>   C                    : 4.357055             -0.921012            0.508239
| 42>   O                    : 4.768038             -2.020735            -0.250055
| 43>   H                    : 5.388173             -2.572599            0.225571
| 44>   H                    : 3.704529             -1.196182            1.324755
| 45>   H                    : 5.206016             -0.304580            0.819030
| 46>   H                    : 3.826832             -0.204135            -0.156533
| 47> *
| 48>
| 49> #Run DFT-D3 single point of the particle with dimer basis set
| 50> $new_job
| 51> %base "9-195_DFT_B"
| 52> ! wB97X-D3 def2-TZVP TIGHTSCF CHELPG PMODEL
| 53>
| 54> %scf
| 55> MaxIter 1000
| 56> end
| 57>
| 58> * xyz 0 1
| 59>   C                    : 6.643819             -5.073961            2.193083
| 60>   O                    : 6.713602             -3.959975            1.388510
| 61>   H                    : 7.603339             -3.876061            1.129665
| 62>   H                    : 5.676125             -5.296266            2.692927
| 63>   H                    : 7.024868             -5.958597            1.775256
| 64>   H                    : 7.375252             -4.882919            3.008673
| 65>   C                      4.357055             -0.921012            0.508239
| 66>   O                      4.768038             -2.020735            -0.250055
| 67>   H                      5.388173             -2.572599            0.225571
| 68>   H                      3.704529             -1.196182            1.324755
| 69>   H                      5.206016             -0.304580            0.819030
| 70>   H                      3.826832             -0.204135            -0.156533
| 71> *
| 72>
| 73>                          ****END OF INPUT****
 Total Charge           Charge          ....    0
 Multiplicity           Mult            ....    1
 Number of Electrons    NEL             ....   36
Dispersion correction           -0.001296987
FINAL SINGLE POINT ENERGY      -231.469462679980
Dispersion correction           -0.000209873
FINAL SINGLE POINT ENERGY      -115.727326562668

CARTESIAN COORDINATES (ANGSTROEM)
---------------------------------
  C      6.643819   -5.073961    2.193083
  O      6.713602   -3.959975    1.388510
  H      7.603339   -3.876061    1.129665
  H      5.676125   -5.296266    2.692927
  H      7.024868   -5.958597    1.775256
  H      7.375252   -4.882919    3.008673
  C      4.357055   -0.921012    0.508239
  O      4.768038   -2.020735   -0.250055
  H      5.388173   -2.572599    0.225571
  H      3.704529   -1.196182    1.324755
  H      5.206016   -0.304580    0.819030
  H      3.826832   -0.204135   -0.156533

 Multiplicity           Mult            ....    1
 Number of Electrons    NEL             ....   18
 Basis Dimension        Dim             ....  172

ORBITAL ENERGIES
----------------

  NO   OCC          E(Eh)            E(eV)
   0   2.0000     -19.228237      -523.2269
   1   2.0000     -10.312004      -280.6039
   2   2.0000      -1.138981       -30.9932
   3   2.0000      -0.796984       -21.6870
   4   2.0000      -0.612476       -16.6663
   5   2.0000      -0.552622       -15.0376
   6   2.0000      -0.524294       -14.2668
   7   2.0000      -0.421448       -11.4682
   8   2.0000      -0.375898       -10.2287
   9   0.0000       0.071280         1.9396
  10   0.0000       0.126136         3.4323
  11   0.0000       0.150206         4.0873
  12   0.0000       0.169382         4.6091
  13   0.0000       0.197884         5.3847

MULLIKEN ATOMIC CHARGES
-----------------------
   0 C :   -0.000987
   1 O :   -0.001397
   2 H :   -0.000353
   3 H :   -0.000027
   4 H :    0.000037
   5 H :    0.000025
   6 C :   -0.152376
   7 O :   -0.478341
   8 H :    0.313284
   9 H :    0.104418
  10 H :    0.100907
  11 H :    0.114809
Sum of atomic charges:   -0.0000000

LOEWDIN ATOMIC CHARGES
----------------------
   0 C :   -0.001097
   1 O :   -0.009394
   2 H :   -0.000943
   3 H :   -0.000061
   4 H :   -0.000023
   5 H :   -0.000027
   6 C :   -0.397959
   7 O :   -0.060472
   8 H :    0.169007
   9 H :    0.092077
  10 H :    0.095481
  11 H :    0.113411

  Mayer bond orders larger than 0.1
B(  6-C ,  7-O ) :   0.9913 B(  6-C ,  9-H ) :   0.9731 B(  6-C , 10-H ) :   0.9783
B(  6-C , 11-H ) :   0.9731 B(  7-O ,  8-H ) :   0.9045

Dispersion correction           -0.000245963
FINAL SINGLE POINT ENERGY      -115.735243064875

DIPOLE MOMENT
-------------
                                X             Y             Z
Electronic contribution:      0.43771      -1.46985      -0.96693
Nuclear contribution   :     -0.19548       1.56607       1.56269
                        -----------------------------------------
Total Dipole Moment    :      0.24224       0.09621       0.59576
                        -----------------------------------------
Magnitude (a.u.)       :      0.65028
Magnitude (Debye)      :      1.65288

Rotational constants in cm-1:     4.361802     0.835968     0.816020
Rotational constants in MHz : 130763.520301 25061.690214 24463.666355

                             ****ORCA TERMINATED NORMALLY****
TOTAL RUN TIME: 0 days 0 hours 0 minutes 43 seconds 971 msec
