                         Program Version 4.1.2  - RELEASE  -
|  1> #Run DFT-D3 single point of the dimer
|  2> ! wB97X-D3 def2-TZVP TIGHTSCF  CHELPG PAL8
|  3>
|  4> %base "172_charges"
|  5>
|  6> %scf
|  7> MaxIter 1000
|  8> end
|  9> %output
| 10>   Print[ P_Mayer ] 1
| 11>   Print[ P_NatPop ] 1
| 12>   Print[ P_Hirshfeld ] 1
| 13>   Print[ P_Mulliken ] 1
| 14>   Print [ P_Loewdin ] 1
| 15> end
| 16>
| 17> * xyz 0 1
| 18>   C                      1.192799             -4.195803            -0.602249
| 19>   O                      1.666724             -4.088809            0.709919
| 20>   H                      2.433013             -4.743410            0.702376
| 21>   H                      0.465404             -3.426715            -0.760269
| 22>   H                      1.994914             -4.012707            -1.327426
| 23>   H                      0.776439             -5.122151            -0.877539
| 24> *
| 25>
| 26>                          ****END OF INPUT****

CARTESIAN COORDINATES (ANGSTROEM)
---------------------------------
  C      1.192799   -4.195803   -0.602249
  O      1.666724   -4.088809    0.709919
  H      2.433013   -4.743410    0.702376
  H      0.465404   -3.426715   -0.760269
  H      1.994914   -4.012707   -1.327426
  H      0.776439   -5.122151   -0.877539

 Total Charge           Charge          ....    0
 Multiplicity           Mult            ....    1
 Number of Electrons    NEL             ....   18
 Basis Dimension        Dim             ....   86

ORBITAL ENERGIES
----------------

  NO   OCC          E(Eh)            E(eV)
   0   2.0000     -19.236830      -523.4608
   1   2.0000     -10.304098      -280.3888
   2   2.0000      -1.136934       -30.9375
   3   2.0000      -0.794277       -21.6134
   4   2.0000      -0.612050       -16.6547
   5   2.0000      -0.543579       -14.7915
   6   2.0000      -0.526932       -14.3385
   7   2.0000      -0.441012       -12.0005
   8   2.0000      -0.373118       -10.1530
   9   0.0000       0.108906         2.9635
  10   0.0000       0.157118         4.2754
  11   0.0000       0.203646         5.5415
  12   0.0000       0.209673         5.7055
  13   0.0000       0.229132         6.2350

MULLIKEN ATOMIC CHARGES
-----------------------
   0 C :   -0.162462
   1 O :   -0.462783
   2 H :    0.315010
   3 H :    0.114956
   4 H :    0.094910
   5 H :    0.100369
Sum of atomic charges:   -0.0000000

LOEWDIN ATOMIC CHARGES
----------------------
   0 C :   -0.400954
   1 O :   -0.081844
   2 H :    0.200652
   3 H :    0.104117
   4 H :    0.094538
   5 H :    0.083490

  Mayer bond orders larger than 0.1
B(  0-C ,  1-O ) :   1.0082 B(  0-C ,  3-H ) :   0.9771 B(  0-C ,  4-H ) :   0.9835
B(  0-C ,  5-H ) :   0.9707 B(  1-O ,  2-H ) :   0.8971

Dispersion correction           -0.000217017
FINAL SINGLE POINT ENERGY      -115.731503060264

DIPOLE MOMENT
-------------
                                X             Y             Z
Electronic contribution:      0.42357       0.19700       1.82439
Nuclear contribution   :     -0.14800      -0.62736      -2.32921
                        -----------------------------------------
Total Dipole Moment    :      0.27557      -0.43036      -0.50482
                        -----------------------------------------
Magnitude (a.u.)       :      0.71833
Magnitude (Debye)      :      1.82585

Rotational constants in cm-1:     4.323400     0.855428     0.815835
Rotational constants in MHz : 129612.257622 25645.092913 24458.111815

                             ****ORCA TERMINATED NORMALLY****
TOTAL RUN TIME: 0 days 0 hours 0 minutes 41 seconds 81 msec
