                         Program Version 4.1.2  - RELEASE  -
|  1> #Run DFT-D3 single point of the dimer
|  2> ! wB97X-D3 def2-TZVP TIGHTSCF CHELPG PMODEL PAL8
|  3>
|  4> %base "20-18_DFT_AB"
|  5>
|  6> %scf
|  7> MaxIter 1000
|  8> end
|  9>
| 10> * xyz 0 1
| 11>   C                      -3.541612            8.218738             -6.097579
| 12>   O                      -2.500026            7.841059             -5.165467
| 13>   H                      -2.808424            8.091062             -4.276652
| 14>   H                      -4.504519            8.175344             -5.636522
| 15>   H                      -3.270904            9.255707             -6.480989
| 16>   H                      -3.586497            7.616042             -6.948879
| 17>   C                      -3.434642            10.098755            -2.541995
| 18>   O                      -2.486791            9.020784             -2.459724
| 19>   H                      -1.622324            9.363562             -2.421603
| 20>   H                      -4.241317            9.969688             -1.871554
| 21>   H                      -2.977795            11.011380            -2.118214
| 22>   H                      -3.871249            10.220332            -3.510029
| 23> *
| 24>
| 25> #Run DFT-D3 single point of the molecule with dimer basis set
| 26> $new_job
| 27> %base "20-18_DFT_A"
| 28> ! wB97X-D3 def2-TZVP TIGHTSCF CHELPG PMODEL
| 29>
| 30> %scf
| 31> MaxIter 1000
| 32> end
| 33>
| 34> * xyz 0 1
| 35>   C                      -3.541612            8.218738             -6.097579
| 36>   O                      -2.500026            7.841059             -5.165467
| 37>   H                      -2.808424            8.091062             -4.276652
| 38>   H                      -4.504519            8.175344             -5.636522
| 39>   H                      -3.270904            9.255707             -6.480989
| 40>   H                      -3.586497            7.616042             -6.948879
| 41>   C                    : -3.434642            10.098755            -2.541995
| 42>   O                    : -2.486791            9.020784             -2.459724
| 43>   H                    : -1.622324            9.363562             -2.421603
| 44>   H                    : -4.241317            9.969688             -1.871554
| 45>   H                    : -2.977795            11.011380            -2.118214
| 46>   H                    : -3.871249            10.220332            -3.510029
| 47> *
| 48>
| 49> #Run DFT-D3 single point of the particle with dimer basis set
| 50> $new_job
| 51> %base "20-18_DFT_B"
| 52> ! wB97X-D3 def2-TZVP TIGHTSCF CHELPG PMODEL
| 53>
| 54> %scf
| 55> MaxIter 1000
| 56> end
| 57>
| 58> * xyz 0 1
| 59>   C                    : -3.541612            8.218738             -6.097579
| 60>   O                    : -2.500026            7.841059             -5.165467
| 61>   H                    : -2.808424            8.091062             -4.276652
| 62>   H                    : -4.504519            8.175344             -5.636522
| 63>   H                    : -3.270904            9.255707             -6.480989
| 64>   H                    : -3.586497            7.616042             -6.948879
| 65>   C                      -3.434642            10.098755            -2.541995
| 66>   O                      -2.486791            9.020784             -2.459724
| 67>   H                      -1.622324            9.363562             -2.421603
| 68>   H                      -4.241317            9.969688             -1.871554
| 69>   H                      -2.977795            11.011380            -2.118214
| 70>   H                      -3.871249            10.220332            -3.510029
| 71> *
| 72>
| 73>                          ****END OF INPUT****
 Total Charge           Charge          ....    0
 Multiplicity           Mult            ....    1
 Number of Electrons    NEL             ....   36
Dispersion correction           -0.001945255
FINAL SINGLE POINT ENERGY      -231.468985021374
Dispersion correction           -0.000249729
FINAL SINGLE POINT ENERGY      -115.731124072061

CARTESIAN COORDINATES (ANGSTROEM)
---------------------------------
  C     -3.541612    8.218738   -6.097579
  O     -2.500026    7.841059   -5.165467
  H     -2.808424    8.091062   -4.276652
  H     -4.504519    8.175344   -5.636522
  H     -3.270904    9.255707   -6.480989
  H     -3.586497    7.616042   -6.948879
  C     -3.434642   10.098755   -2.541995
  O     -2.486791    9.020784   -2.459724
  H     -1.622324    9.363562   -2.421603
  H     -4.241317    9.969688   -1.871554
  H     -2.977795   11.011380   -2.118214
  H     -3.871249   10.220332   -3.510029

 Multiplicity           Mult            ....    1
 Number of Electrons    NEL             ....   18
 Basis Dimension        Dim             ....  172

ORBITAL ENERGIES
----------------

  NO   OCC          E(Eh)            E(eV)
   0   2.0000     -19.227178      -523.1981
   1   2.0000     -10.310462      -280.5619
   2   2.0000      -1.133815       -30.8527
   3   2.0000      -0.805944       -21.9308
   4   2.0000      -0.609627       -16.5888
   5   2.0000      -0.548517       -14.9259
   6   2.0000      -0.528882       -14.3916
   7   2.0000      -0.427897       -11.6437
   8   2.0000      -0.378801       -10.3077
   9   0.0000       0.093339         2.5399
  10   0.0000       0.124856         3.3975
  11   0.0000       0.152334         4.1452
  12   0.0000       0.189463         5.1555
  13   0.0000       0.197599         5.3769

MULLIKEN ATOMIC CHARGES
-----------------------
   0 C :    0.000002
   1 O :   -0.002862
   2 H :   -0.003743
   3 H :   -0.000195
   4 H :   -0.000362
   5 H :   -0.000032
   6 C :   -0.165676
   7 O :   -0.476244
   8 H :    0.314685
   9 H :    0.118041
  10 H :    0.103435
  11 H :    0.112951
Sum of atomic charges:    0.0000000

LOEWDIN ATOMIC CHARGES
----------------------
   0 C :   -0.002298
   1 O :   -0.006020
   2 H :   -0.032908
   3 H :   -0.000357
   4 H :   -0.000235
   5 H :   -0.000016
   6 C :   -0.354745
   7 O :   -0.047942
   8 H :    0.148416
   9 H :    0.096851
  10 H :    0.103625
  11 H :    0.095629

  Mayer bond orders larger than 0.1
B(  6-C ,  7-O ) :   0.9945 B(  6-C ,  9-H ) :   0.9775 B(  6-C , 10-H ) :   0.9870
B(  6-C , 11-H ) :   0.9740 B(  7-O ,  8-H ) :   0.9041

Dispersion correction           -0.000253835
FINAL SINGLE POINT ENERGY      -115.731015175733

DIPOLE MOMENT
-------------
                                X             Y             Z
Electronic contribution:      1.08321      -1.46400      -0.01735
Nuclear contribution   :     -0.92817       2.15119       0.04856
                        -----------------------------------------
Total Dipole Moment    :      0.15504       0.68719       0.03121
                        -----------------------------------------
Magnitude (a.u.)       :      0.70515
Magnitude (Debye)      :      1.79235

Rotational constants in cm-1:     4.525831     0.807230     0.781685
Rotational constants in MHz : 135681.003453 24200.154018 23434.321959

                             ****ORCA TERMINATED NORMALLY****
TOTAL RUN TIME: 0 days 0 hours 1 minutes 10 seconds 506 msec
