                         Program Version 4.1.2  - RELEASE  -
|  1> #Run DFT-D3 single point of the dimer
|  2> ! wB97X-D3 def2-TZVP TIGHTSCF CHELPG PMODEL PAL8
|  3>
|  4> %base "6-98_DFT_AB"
|  5>
|  6> %scf
|  7> MaxIter 1000
|  8> end
|  9>
| 10> * xyz 0 1
| 11>   C                      6.664978             3.067073             1.226311
| 12>   O                      8.059023             2.989451             1.564592
| 13>   H                      8.160365             2.945944             2.478638
| 14>   H                      6.091341             2.145018             1.217380
| 15>   H                      6.072127             3.731938             1.852075
| 16>   H                      6.459341             3.559162             0.310594
| 17>   C                      9.600174             3.759440             -1.563080
| 18>   O                      10.220656            3.064717             -0.513133
| 19>   H                      9.647173             3.138024             0.292966
| 20>   H                      10.327221            4.358785             -2.119791
| 21>   H                      9.367296             3.070825             -2.353056
| 22>   H                      8.678184             4.269215             -1.272704
| 23> *
| 24>
| 25> #Run DFT-D3 single point of the molecule with dimer basis set
| 26> $new_job
| 27> %base "6-98_DFT_A"
| 28> ! wB97X-D3 def2-TZVP TIGHTSCF CHELPG PMODEL
| 29>
| 30> %scf
| 31> MaxIter 1000
| 32> end
| 33>
| 34> * xyz 0 1
| 35>   C                      6.664978             3.067073             1.226311
| 36>   O                      8.059023             2.989451             1.564592
| 37>   H                      8.160365             2.945944             2.478638
| 38>   H                      6.091341             2.145018             1.217380
| 39>   H                      6.072127             3.731938             1.852075
| 40>   H                      6.459341             3.559162             0.310594
| 41>   C                    : 9.600174             3.759440             -1.563080
| 42>   O                    : 10.220656            3.064717             -0.513133
| 43>   H                    : 9.647173             3.138024             0.292966
| 44>   H                    : 10.327221            4.358785             -2.119791
| 45>   H                    : 9.367296             3.070825             -2.353056
| 46>   H                    : 8.678184             4.269215             -1.272704
| 47> *
| 48>
| 49> #Run DFT-D3 single point of the particle with dimer basis set
| 50> $new_job
| 51> %base "6-98_DFT_B"
| 52> ! wB97X-D3 def2-TZVP TIGHTSCF CHELPG PMODEL
| 53>
| 54> %scf
| 55> MaxIter 1000
| 56> end
| 57>
| 58> * xyz 0 1
| 59>   C                    : 6.664978             3.067073             1.226311
| 60>   O                    : 8.059023             2.989451             1.564592
| 61>   H                    : 8.160365             2.945944             2.478638
| 62>   H                    : 6.091341             2.145018             1.217380
| 63>   H                    : 6.072127             3.731938             1.852075
| 64>   H                    : 6.459341             3.559162             0.310594
| 65>   C                      9.600174             3.759440             -1.563080
| 66>   O                      10.220656            3.064717             -0.513133
| 67>   H                      9.647173             3.138024             0.292966
| 68>   H                      10.327221            4.358785             -2.119791
| 69>   H                      9.367296             3.070825             -2.353056
| 70>   H                      8.678184             4.269215             -1.272704
| 71> *
| 72>
| 73>                          ****END OF INPUT****
 Total Charge           Charge          ....    0
 Multiplicity           Mult            ....    1
 Number of Electrons    NEL             ....   36
Dispersion correction           -0.001867134
FINAL SINGLE POINT ENERGY      -231.466562902658
Dispersion correction           -0.000278732
FINAL SINGLE POINT ENERGY      -115.728125644106

CARTESIAN COORDINATES (ANGSTROEM)
---------------------------------
  C      6.664978    3.067073    1.226311
  O      8.059023    2.989451    1.564592
  H      8.160365    2.945944    2.478638
  H      6.091341    2.145018    1.217380
  H      6.072127    3.731938    1.852075
  H      6.459341    3.559162    0.310594
  C      9.600174    3.759440   -1.563080
  O     10.220656    3.064717   -0.513133
  H      9.647173    3.138024    0.292966
  H     10.327221    4.358785   -2.119791
  H      9.367296    3.070825   -2.353056
  H      8.678184    4.269215   -1.272704

 Multiplicity           Mult            ....    1
 Number of Electrons    NEL             ....   18
 Basis Dimension        Dim             ....  172

ORBITAL ENERGIES
----------------

  NO   OCC          E(Eh)            E(eV)
   0   2.0000     -19.232671      -523.3476
   1   2.0000     -10.309082      -280.5244
   2   2.0000      -1.133300       -30.8387
   3   2.0000      -0.795730       -21.6529
   4   2.0000      -0.611461       -16.6387
   5   2.0000      -0.540631       -14.7113
   6   2.0000      -0.526904       -14.3378
   7   2.0000      -0.439300       -11.9540
   8   2.0000      -0.364908        -9.9297
   9   0.0000       0.066645         1.8135
  10   0.0000       0.130124         3.5409
  11   0.0000       0.140792         3.8311
  12   0.0000       0.176059         4.7908
  13   0.0000       0.186764         5.0821

MULLIKEN ATOMIC CHARGES
-----------------------
   0 C :   -0.001972
   1 O :   -0.003327
   2 H :   -0.000502
   3 H :    0.000095
   4 H :    0.000036
   5 H :    0.000287
   6 C :   -0.166127
   7 O :   -0.471845
   8 H :    0.318805
   9 H :    0.110910
  10 H :    0.105301
  11 H :    0.108339
Sum of atomic charges:    0.0000000

LOEWDIN ATOMIC CHARGES
----------------------
   0 C :   -0.003126
   1 O :   -0.016177
   2 H :   -0.001113
   3 H :   -0.000039
   4 H :   -0.000051
   5 H :   -0.000946
   6 C :   -0.396812
   7 O :   -0.075878
   8 H :    0.196488
   9 H :    0.103490
  10 H :    0.095510
  11 H :    0.098654

  Mayer bond orders larger than 0.1
B(  6-C ,  7-O ) :   1.0026 B(  6-C ,  9-H ) :   0.9813 B(  6-C , 10-H ) :   0.9783
B(  6-C , 11-H ) :   0.9789 B(  7-O ,  8-H ) :   0.9003

Dispersion correction           -0.000247905
FINAL SINGLE POINT ENERGY      -115.730030856713

DIPOLE MOMENT
-------------
                                X             Y             Z
Electronic contribution:      0.85987      -0.83076       1.38783
Nuclear contribution   :     -1.47019       1.13193      -1.30408
                        -----------------------------------------
Total Dipole Moment    :     -0.61032       0.30118       0.08375
                        -----------------------------------------
Magnitude (a.u.)       :      0.68572
Magnitude (Debye)      :      1.74297

Rotational constants in cm-1:     4.332380     0.848730     0.797658
Rotational constants in MHz : 129881.477162 25444.271806 23913.197877

                             ****ORCA TERMINATED NORMALLY****
TOTAL RUN TIME: 0 days 0 hours 0 minutes 49 seconds 148 msec
