                         Program Version 4.1.2  - RELEASE  -
|  1> #Run DFT-D3 single point of the dimer
|  2> ! wB97X-D3 def2-TZVP TIGHTSCF CHELPG PMODEL PAL8
|  3>
|  4> %base "14-19_DFT_AB"
|  5>
|  6> %scf
|  7> MaxIter 1000
|  8> end
|  9>
| 10> * xyz 0 1
| 11>   C                      -9.672709            4.006744             2.552932
| 12>   O                      -10.300829           4.988320             3.368327
| 13>   H                      -10.582800           4.429678             4.110281
| 14>   H                      -10.532027           3.583830             1.937451
| 15>   H                      -9.091793            4.425824             1.762786
| 16>   H                      -9.184682            3.240365             3.147805
| 17>   C                      -6.408294            -0.389796            2.551598
| 18>   O                      -6.420254            -1.093540            1.289207
| 19>   H                      -7.153297            -1.705362            1.230921
| 20>   H                      -7.216559            0.336001             2.634509
| 21>   H                      -6.554467            -1.105852            3.362458
| 22>   H                      -5.458639            0.152382             2.759192
| 23> *
| 24>
| 25> #Run DFT-D3 single point of the molecule with dimer basis set
| 26> $new_job
| 27> %base "14-19_DFT_A"
| 28> ! wB97X-D3 def2-TZVP TIGHTSCF CHELPG PMODEL
| 29>
| 30> %scf
| 31> MaxIter 1000
| 32> end
| 33>
| 34> * xyz 0 1
| 35>   C                      -9.672709            4.006744             2.552932
| 36>   O                      -10.300829           4.988320             3.368327
| 37>   H                      -10.582800           4.429678             4.110281
| 38>   H                      -10.532027           3.583830             1.937451
| 39>   H                      -9.091793            4.425824             1.762786
| 40>   H                      -9.184682            3.240365             3.147805
| 41>   C                    : -6.408294            -0.389796            2.551598
| 42>   O                    : -6.420254            -1.093540            1.289207
| 43>   H                    : -7.153297            -1.705362            1.230921
| 44>   H                    : -7.216559            0.336001             2.634509
| 45>   H                    : -6.554467            -1.105852            3.362458
| 46>   H                    : -5.458639            0.152382             2.759192
| 47> *
| 48>
| 49> #Run DFT-D3 single point of the particle with dimer basis set
| 50> $new_job
| 51> %base "14-19_DFT_B"
| 52> ! wB97X-D3 def2-TZVP TIGHTSCF CHELPG PMODEL
| 53>
| 54> %scf
| 55> MaxIter 1000
| 56> end
| 57>
| 58> * xyz 0 1
| 59>   C                    : -9.672709            4.006744             2.552932
| 60>   O                    : -10.300829           4.988320             3.368327
| 61>   H                    : -10.582800           4.429678             4.110281
| 62>   H                    : -10.532027           3.583830             1.937451
| 63>   H                    : -9.091793            4.425824             1.762786
| 64>   H                    : -9.184682            3.240365             3.147805
| 65>   C                      -6.408294            -0.389796            2.551598
| 66>   O                      -6.420254            -1.093540            1.289207
| 67>   H                      -7.153297            -1.705362            1.230921
| 68>   H                      -7.216559            0.336001             2.634509
| 69>   H                      -6.554467            -1.105852            3.362458
| 70>   H                      -5.458639            0.152382             2.759192
| 71> *
| 72>
| 73>                          ****END OF INPUT****
 Total Charge           Charge          ....    0
 Multiplicity           Mult            ....    1
 Number of Electrons    NEL             ....   36
Dispersion correction           -0.000679683
FINAL SINGLE POINT ENERGY      -231.461125616500
Dispersion correction           -0.000215645
FINAL SINGLE POINT ENERGY      -115.727277874599

CARTESIAN COORDINATES (ANGSTROEM)
---------------------------------
  C     -9.672709    4.006744    2.552932
  O    -10.300829    4.988320    3.368327
  H    -10.582800    4.429678    4.110281
  H    -10.532027    3.583830    1.937451
  H     -9.091793    4.425824    1.762786
  H     -9.184682    3.240365    3.147805
  C     -6.408294   -0.389796    2.551598
  O     -6.420254   -1.093540    1.289207
  H     -7.153297   -1.705362    1.230921
  H     -7.216559    0.336001    2.634509
  H     -6.554467   -1.105852    3.362458
  H     -5.458639    0.152382    2.759192

 Multiplicity           Mult            ....    1
 Number of Electrons    NEL             ....   18
 Basis Dimension        Dim             ....  172

ORBITAL ENERGIES
----------------

  NO   OCC          E(Eh)            E(eV)
   0   2.0000     -19.228326      -523.2294
   1   2.0000     -10.318389      -280.7777
   2   2.0000      -1.124870       -30.6093
   3   2.0000      -0.798164       -21.7191
   4   2.0000      -0.606726       -16.5099
   5   2.0000      -0.536008       -14.5855
   6   2.0000      -0.526805       -14.3351
   7   2.0000      -0.429550       -11.6887
   8   2.0000      -0.373882       -10.1739
   9   0.0000       0.084818         2.3080
  10   0.0000       0.116404         3.1675
  11   0.0000       0.143212         3.8970
  12   0.0000       0.166233         4.5234
  13   0.0000       0.181826         4.9477

MULLIKEN ATOMIC CHARGES
-----------------------
   0 C :    0.000109
   1 O :   -0.000001
   2 H :   -0.000000
   3 H :   -0.000017
   4 H :   -0.000019
   5 H :   -0.000257
   6 C :   -0.162940
   7 O :   -0.489447
   8 H :    0.316426
   9 H :    0.105976
  10 H :    0.104934
  11 H :    0.125237
Sum of atomic charges:   -0.0000000

LOEWDIN ATOMIC CHARGES
----------------------
   0 C :   -0.000125
   1 O :   -0.000002
   2 H :   -0.000000
   3 H :   -0.000002
   4 H :   -0.000004
   5 H :   -0.000328
   6 C :   -0.362862
   7 O :   -0.101047
   8 H :    0.163143
   9 H :    0.092861
  10 H :    0.094865
  11 H :    0.113502

  Mayer bond orders larger than 0.1
B(  6-C ,  7-O ) :   0.9900 B(  6-C ,  9-H ) :   0.9731 B(  6-C , 10-H ) :   0.9827
B(  6-C , 11-H ) :   0.9696 B(  7-O ,  8-H ) :   0.8968

Dispersion correction           -0.000264329
FINAL SINGLE POINT ENERGY      -115.733797741255

DIPOLE MOMENT
-------------
                                X             Y             Z
Electronic contribution:      0.12644      -0.79038      -1.66549
Nuclear contribution   :     -0.59224       0.68752       2.17633
                        -----------------------------------------
Total Dipole Moment    :     -0.46581      -0.10286       0.51084
                        -----------------------------------------
Magnitude (a.u.)       :      0.69894
Magnitude (Debye)      :      1.77656

Rotational constants in cm-1:     4.383309     0.792657     0.764894
Rotational constants in MHz : 131408.294412 23763.257513 22930.942914

                             ****ORCA TERMINATED NORMALLY****
TOTAL RUN TIME: 0 days 0 hours 0 minutes 55 seconds 445 msec
