                         Program Version 4.1.2  - RELEASE  -
|  1> #Run DFT-D3 single point of the dimer
|  2> ! wB97X-D3 def2-TZVP TIGHTSCF CHELPG PMODEL PAL8
|  3>
|  4> %base "10-198_DFT_AB"
|  5>
|  6> %scf
|  7> MaxIter 1000
|  8> end
|  9>
| 10> * xyz 0 1
| 11>   C                      10.553579            -10.361185           -4.924094
| 12>   O                      11.211412            -9.180508            -4.962315
| 13>   H                      10.618224            -8.582765            -5.366408
| 14>   H                      10.282078            -10.801141           -5.920180
| 15>   H                      11.125890            -11.106062           -4.366319
| 16>   H                      9.646097             -10.159804           -4.349246
| 17>   C                      10.023771            -10.286522           -9.739660
| 18>   O                      10.617201            -10.202391           -8.395839
| 19>   H                      10.159955            -9.439116            -8.025711
| 20>   H                      8.981691             -10.357590           -9.573096
| 21>   H                      10.004867            -9.246787            -10.215997
| 22>   H                      10.421825            -10.998180           -10.401071
| 23> *
| 24>
| 25> #Run DFT-D3 single point of the molecule with dimer basis set
| 26> $new_job
| 27> %base "10-198_DFT_A"
| 28> ! wB97X-D3 def2-TZVP TIGHTSCF CHELPG PMODEL
| 29>
| 30> %scf
| 31> MaxIter 1000
| 32> end
| 33>
| 34> * xyz 0 1
| 35>   C                      10.553579            -10.361185           -4.924094
| 36>   O                      11.211412            -9.180508            -4.962315
| 37>   H                      10.618224            -8.582765            -5.366408
| 38>   H                      10.282078            -10.801141           -5.920180
| 39>   H                      11.125890            -11.106062           -4.366319
| 40>   H                      9.646097             -10.159804           -4.349246
| 41>   C                    : 10.023771            -10.286522           -9.739660
| 42>   O                    : 10.617201            -10.202391           -8.395839
| 43>   H                    : 10.159955            -9.439116            -8.025711
| 44>   H                    : 8.981691             -10.357590           -9.573096
| 45>   H                    : 10.004867            -9.246787            -10.215997
| 46>   H                    : 10.421825            -10.998180           -10.401071
| 47> *
| 48>
| 49> #Run DFT-D3 single point of the particle with dimer basis set
| 50> $new_job
| 51> %base "10-198_DFT_B"
| 52> ! wB97X-D3 def2-TZVP TIGHTSCF CHELPG PMODEL
| 53>
| 54> %scf
| 55> MaxIter 1000
| 56> end
| 57>
| 58> * xyz 0 1
| 59>   C                    : 10.553579            -10.361185           -4.924094
| 60>   O                    : 11.211412            -9.180508            -4.962315
| 61>   H                    : 10.618224            -8.582765            -5.366408
| 62>   H                    : 10.282078            -10.801141           -5.920180
| 63>   H                    : 11.125890            -11.106062           -4.366319
| 64>   H                    : 9.646097             -10.159804           -4.349246
| 65>   C                      10.023771            -10.286522           -9.739660
| 66>   O                      10.617201            -10.202391           -8.395839
| 67>   H                      10.159955            -9.439116            -8.025711
| 68>   H                      8.981691             -10.357590           -9.573096
| 69>   H                      10.004867            -9.246787            -10.215997
| 70>   H                      10.421825            -10.998180           -10.401071
| 71> *
| 72>
| 73>                          ****END OF INPUT****
 Total Charge           Charge          ....    0
 Multiplicity           Mult            ....    1
 Number of Electrons    NEL             ....   36
Dispersion correction           -0.001497425
FINAL SINGLE POINT ENERGY      -231.453601181463
Dispersion correction           -0.000202847
FINAL SINGLE POINT ENERGY      -115.730978685497

CARTESIAN COORDINATES (ANGSTROEM)
---------------------------------
  C     10.553579  -10.361185   -4.924094
  O     11.211412   -9.180508   -4.962315
  H     10.618224   -8.582765   -5.366408
  H     10.282078  -10.801141   -5.920180
  H     11.125890  -11.106062   -4.366319
  H      9.646097  -10.159804   -4.349246
  C     10.023771  -10.286522   -9.739660
  O     10.617201  -10.202391   -8.395839
  H     10.159955   -9.439116   -8.025711
  H      8.981691  -10.357590   -9.573096
  H     10.004867   -9.246787  -10.215997
  H     10.421825  -10.998180  -10.401071

 Multiplicity           Mult            ....    1
 Number of Electrons    NEL             ....   18
 Basis Dimension        Dim             ....  172

ORBITAL ENERGIES
----------------

  NO   OCC          E(Eh)            E(eV)
   0   2.0000     -19.232174      -523.3341
   1   2.0000     -10.316692      -280.7315
   2   2.0000      -1.123788       -30.5798
   3   2.0000      -0.800280       -21.7767
   4   2.0000      -0.604427       -16.4473
   5   2.0000      -0.542949       -14.7744
   6   2.0000      -0.519129       -14.1262
   7   2.0000      -0.449038       -12.2189
   8   2.0000      -0.368813       -10.0359
   9   0.0000       0.085876         2.3368
  10   0.0000       0.123054         3.3485
  11   0.0000       0.152063         4.1378
  12   0.0000       0.173838         4.7304
  13   0.0000       0.194821         5.3013

MULLIKEN ATOMIC CHARGES
-----------------------
   0 C :    0.004203
   1 O :    0.000002
   2 H :   -0.000209
   3 H :   -0.014245
   4 H :   -0.000453
   5 H :    0.000074
   6 C :   -0.208977
   7 O :   -0.463712
   8 H :    0.316520
   9 H :    0.122665
  10 H :    0.102617
  11 H :    0.141514
Sum of atomic charges:   -0.0000000

LOEWDIN ATOMIC CHARGES
----------------------
   0 C :   -0.005030
   1 O :   -0.000256
   2 H :   -0.000719
   3 H :   -0.011159
   4 H :   -0.000047
   5 H :   -0.000027
   6 C :   -0.343019
   7 O :   -0.107955
   8 H :    0.172197
   9 H :    0.091778
  10 H :    0.106085
  11 H :    0.098153

  Mayer bond orders larger than 0.1
B(  6-C ,  7-O ) :   0.9810 B(  6-C ,  9-H ) :   0.9807 B(  6-C , 10-H ) :   0.9772
B(  6-C , 11-H ) :   0.9693 B(  7-O ,  8-H ) :   0.8994

Dispersion correction           -0.000227334
FINAL SINGLE POINT ENERGY      -115.723227313333

DIPOLE MOMENT
-------------
                                X             Y             Z
Electronic contribution:      0.98575      -0.31886       1.54539
Nuclear contribution   :     -1.53931       0.74822      -1.89926
                        -----------------------------------------
Total Dipole Moment    :     -0.55356       0.42936      -0.35387
                        -----------------------------------------
Magnitude (a.u.)       :      0.78486
Magnitude (Debye)      :      1.99496

Rotational constants in cm-1:     4.302215     0.795777     0.752237
Rotational constants in MHz : 128977.155123 23856.790803 22551.495579

                             ****ORCA TERMINATED NORMALLY****
TOTAL RUN TIME: 0 days 0 hours 1 minutes 2 seconds 757 msec
