                         Program Version 4.1.2  - RELEASE  -
|  1> #Run DFT-D3 single point of the dimer
|  2> ! wB97X-D3 def2-TZVP TIGHTSCF CHELPG PMODEL PAL8
|  3>
|  4> %base "14-140_DFT_AB"
|  5>
|  6> %scf
|  7> MaxIter 1000
|  8> end
|  9>
| 10> * xyz 0 1
| 11>   C                      -6.355175            4.803348             -0.633554
| 12>   O                      -6.165207            4.170899             0.606047
| 13>   H                      -6.825564            3.483296             0.638373
| 14>   H                      -7.380405            5.187809             -0.791474
| 15>   H                      -5.628031            5.602576             -0.976239
| 16>   H                      -6.191720            4.108695             -1.435763
| 17>   C                      -10.153095           2.654705             -1.361434
| 18>   O                      -9.305407            2.119193             -2.346991
| 19>   H                      -9.041517            1.209079             -2.149409
| 20>   H                      -9.846451            2.527660             -0.345899
| 21>   H                      -10.374274           3.691955             -1.601794
| 22>   H                      -11.080361           2.100532             -1.473576
| 23> *
| 24>
| 25> #Run DFT-D3 single point of the molecule with dimer basis set
| 26> $new_job
| 27> %base "14-140_DFT_A"
| 28> ! wB97X-D3 def2-TZVP TIGHTSCF CHELPG PMODEL
| 29>
| 30> %scf
| 31> MaxIter 1000
| 32> end
| 33>
| 34> * xyz 0 1
| 35>   C                      -6.355175            4.803348             -0.633554
| 36>   O                      -6.165207            4.170899             0.606047
| 37>   H                      -6.825564            3.483296             0.638373
| 38>   H                      -7.380405            5.187809             -0.791474
| 39>   H                      -5.628031            5.602576             -0.976239
| 40>   H                      -6.191720            4.108695             -1.435763
| 41>   C                    : -10.153095           2.654705             -1.361434
| 42>   O                    : -9.305407            2.119193             -2.346991
| 43>   H                    : -9.041517            1.209079             -2.149409
| 44>   H                    : -9.846451            2.527660             -0.345899
| 45>   H                    : -10.374274           3.691955             -1.601794
| 46>   H                    : -11.080361           2.100532             -1.473576
| 47> *
| 48>
| 49> #Run DFT-D3 single point of the particle with dimer basis set
| 50> $new_job
| 51> %base "14-140_DFT_B"
| 52> ! wB97X-D3 def2-TZVP TIGHTSCF CHELPG PMODEL
| 53>
| 54> %scf
| 55> MaxIter 1000
| 56> end
| 57>
| 58> * xyz 0 1
| 59>   C                    : -6.355175            4.803348             -0.633554
| 60>   O                    : -6.165207            4.170899             0.606047
| 61>   H                    : -6.825564            3.483296             0.638373
| 62>   H                    : -7.380405            5.187809             -0.791474
| 63>   H                    : -5.628031            5.602576             -0.976239
| 64>   H                    : -6.191720            4.108695             -1.435763
| 65>   C                      -10.153095           2.654705             -1.361434
| 66>   O                      -9.305407            2.119193             -2.346991
| 67>   H                      -9.041517            1.209079             -2.149409
| 68>   H                      -9.846451            2.527660             -0.345899
| 69>   H                      -10.374274           3.691955             -1.601794
| 70>   H                      -11.080361           2.100532             -1.473576
| 71> *
| 72>
| 73>                          ****END OF INPUT****
 Total Charge           Charge          ....    0
 Multiplicity           Mult            ....    1
 Number of Electrons    NEL             ....   36
Dispersion correction           -0.001300419
FINAL SINGLE POINT ENERGY      -231.463080335878
Dispersion correction           -0.000243351
FINAL SINGLE POINT ENERGY      -115.728646643724

CARTESIAN COORDINATES (ANGSTROEM)
---------------------------------
  C     -6.355175    4.803348   -0.633554
  O     -6.165207    4.170899    0.606047
  H     -6.825564    3.483296    0.638373
  H     -7.380405    5.187809   -0.791474
  H     -5.628031    5.602576   -0.976239
  H     -6.191720    4.108695   -1.435763
  C    -10.153095    2.654705   -1.361434
  O     -9.305407    2.119193   -2.346991
  H     -9.041517    1.209079   -2.149409
  H     -9.846451    2.527660   -0.345899
  H    -10.374274    3.691955   -1.601794
  H    -11.080361    2.100532   -1.473576

 Multiplicity           Mult            ....    1
 Number of Electrons    NEL             ....   18
 Basis Dimension        Dim             ....  172

ORBITAL ENERGIES
----------------

  NO   OCC          E(Eh)            E(eV)
   0   2.0000     -19.226701      -523.1851
   1   2.0000     -10.307771      -280.4887
   2   2.0000      -1.133490       -30.8438
   3   2.0000      -0.798531       -21.7291
   4   2.0000      -0.614060       -16.7094
   5   2.0000      -0.540804       -14.7160
   6   2.0000      -0.531394       -14.4600
   7   2.0000      -0.431599       -11.7444
   8   2.0000      -0.367954       -10.0125
   9   0.0000       0.086540         2.3549
  10   0.0000       0.121776         3.3137
  11   0.0000       0.152700         4.1552
  12   0.0000       0.165001         4.4899
  13   0.0000       0.195572         5.3218

MULLIKEN ATOMIC CHARGES
-----------------------
   0 C :    0.000812
   1 O :   -0.000068
   2 H :   -0.000043
   3 H :   -0.000117
   4 H :   -0.000077
   5 H :   -0.001852
   6 C :   -0.157016
   7 O :   -0.488197
   8 H :    0.316231
   9 H :    0.105702
  10 H :    0.120562
  11 H :    0.104063
Sum of atomic charges:    0.0000000

LOEWDIN ATOMIC CHARGES
----------------------
   0 C :   -0.000754
   1 O :   -0.000024
   2 H :   -0.000226
   3 H :   -0.000187
   4 H :   -0.000012
   5 H :   -0.000875
   6 C :   -0.384917
   7 O :   -0.078851
   8 H :    0.171836
   9 H :    0.088489
  10 H :    0.109474
  11 H :    0.096048

  Mayer bond orders larger than 0.1
B(  6-C ,  7-O ) :   0.9833 B(  6-C ,  9-H ) :   0.9708 B(  6-C , 10-H ) :   0.9727
B(  6-C , 11-H ) :   0.9882 B(  7-O ,  8-H ) :   0.8942

Dispersion correction           -0.000232588
FINAL SINGLE POINT ENERGY      -115.733364145779

DIPOLE MOMENT
-------------
                                X             Y             Z
Electronic contribution:      1.17401      -0.48111      -1.21057
Nuclear contribution   :     -1.36098       0.10637       1.73701
                        -----------------------------------------
Total Dipole Moment    :     -0.18697      -0.37474       0.52643
                        -----------------------------------------
Magnitude (a.u.)       :      0.67269
Magnitude (Debye)      :      1.70985

Rotational constants in cm-1:     4.405134     0.842215     0.807334
Rotational constants in MHz : 132062.581724 25248.955844 24203.272023

                             ****ORCA TERMINATED NORMALLY****
TOTAL RUN TIME: 0 days 0 hours 1 minutes 9 seconds 130 msec
