                         Program Version 4.1.2  - RELEASE  -
|  1> #Run DFT-D3 single point of the dimer
|  2> ! wB97X-D3 def2-TZVP TIGHTSCF CHELPG PMODEL PAL8
|  3>
|  4> %base "2-42_DFT_AB"
|  5>
|  6> %scf
|  7> MaxIter 1000
|  8> end
|  9>
| 10> * xyz 0 1
| 11>   C                      -10.786374           -2.434926            6.102013
| 12>   O                      -9.534967            -2.920032            6.721126
| 13>   H                      -9.546065            -3.876163            6.859019
| 14>   H                      -10.700096           -1.362841            6.063289
| 15>   H                      -10.879818           -2.671802            5.082183
| 16>   H                      -11.722517           -2.729585            6.503359
| 17>   C                      -8.858361            0.599760             5.266893
| 18>   O                      -8.070024            0.651154             6.431593
| 19>   H                      -7.598837            1.501472             6.559302
| 20>   H                      -9.791042            1.088440             5.490044
| 21>   H                      -8.279464            0.920911             4.389770
| 22>   H                      -9.148679            -0.456298            5.047756
| 23> *
| 24>
| 25> #Run DFT-D3 single point of the molecule with dimer basis set
| 26> $new_job
| 27> %base "2-42_DFT_A"
| 28> ! wB97X-D3 def2-TZVP TIGHTSCF CHELPG PMODEL
| 29>
| 30> %scf
| 31> MaxIter 1000
| 32> end
| 33>
| 34> * xyz 0 1
| 35>   C                      -10.786374           -2.434926            6.102013
| 36>   O                      -9.534967            -2.920032            6.721126
| 37>   H                      -9.546065            -3.876163            6.859019
| 38>   H                      -10.700096           -1.362841            6.063289
| 39>   H                      -10.879818           -2.671802            5.082183
| 40>   H                      -11.722517           -2.729585            6.503359
| 41>   C                    : -8.858361            0.599760             5.266893
| 42>   O                    : -8.070024            0.651154             6.431593
| 43>   H                    : -7.598837            1.501472             6.559302
| 44>   H                    : -9.791042            1.088440             5.490044
| 45>   H                    : -8.279464            0.920911             4.389770
| 46>   H                    : -9.148679            -0.456298            5.047756
| 47> *
| 48>
| 49> #Run DFT-D3 single point of the particle with dimer basis set
| 50> $new_job
| 51> %base "2-42_DFT_B"
| 52> ! wB97X-D3 def2-TZVP TIGHTSCF CHELPG PMODEL
| 53>
| 54> %scf
| 55> MaxIter 1000
| 56> end
| 57>
| 58> * xyz 0 1
| 59>   C                    : -10.786374           -2.434926            6.102013
| 60>   O                    : -9.534967            -2.920032            6.721126
| 61>   H                    : -9.546065            -3.876163            6.859019
| 62>   H                    : -10.700096           -1.362841            6.063289
| 63>   H                    : -10.879818           -2.671802            5.082183
| 64>   H                    : -11.722517           -2.729585            6.503359
| 65>   C                      -8.858361            0.599760             5.266893
| 66>   O                      -8.070024            0.651154             6.431593
| 67>   H                      -7.598837            1.501472             6.559302
| 68>   H                      -9.791042            1.088440             5.490044
| 69>   H                      -8.279464            0.920911             4.389770
| 70>   H                      -9.148679            -0.456298            5.047756
| 71> *
| 72>
| 73>                          ****END OF INPUT****
 Total Charge           Charge          ....    0
 Multiplicity           Mult            ....    1
 Number of Electrons    NEL             ....   36
Dispersion correction           -0.001777157
FINAL SINGLE POINT ENERGY      -231.458063395998
Dispersion correction           -0.000293167
FINAL SINGLE POINT ENERGY      -115.727897382236

CARTESIAN COORDINATES (ANGSTROEM)
---------------------------------
  C    -10.786374   -2.434926    6.102013
  O     -9.534967   -2.920032    6.721126
  H     -9.546065   -3.876163    6.859019
  H    -10.700096   -1.362841    6.063289
  H    -10.879818   -2.671802    5.082183
  H    -11.722517   -2.729585    6.503359
  C     -8.858361    0.599760    5.266893
  O     -8.070024    0.651154    6.431593
  H     -7.598837    1.501472    6.559302
  H     -9.791042    1.088440    5.490044
  H     -8.279464    0.920911    4.389770
  H     -9.148679   -0.456298    5.047756

 Multiplicity           Mult            ....    1
 Number of Electrons    NEL             ....   18
 Basis Dimension        Dim             ....  172

ORBITAL ENERGIES
----------------

  NO   OCC          E(Eh)            E(eV)
   0   2.0000     -19.225912      -523.1637
   1   2.0000     -10.313051      -280.6324
   2   2.0000      -1.128764       -30.7152
   3   2.0000      -0.794132       -21.6094
   4   2.0000      -0.603101       -16.4112
   5   2.0000      -0.554498       -15.0887
   6   2.0000      -0.524514       -14.2728
   7   2.0000      -0.416426       -11.3315
   8   2.0000      -0.371912       -10.1202
   9   0.0000       0.090998         2.4762
  10   0.0000       0.117019         3.1843
  11   0.0000       0.153326         4.1722
  12   0.0000       0.176502         4.8029
  13   0.0000       0.189750         5.1633

MULLIKEN ATOMIC CHARGES
-----------------------
   0 C :    0.005844
   1 O :   -0.000401
   2 H :   -0.000003
   3 H :   -0.002549
   4 H :   -0.001388
   5 H :    0.000034
   6 C :   -0.139325
   7 O :   -0.493802
   8 H :    0.319570
   9 H :    0.101059
  10 H :    0.107851
  11 H :    0.103111
Sum of atomic charges:    0.0000000

LOEWDIN ATOMIC CHARGES
----------------------
   0 C :   -0.009142
   1 O :   -0.000393
   2 H :   -0.000020
   3 H :   -0.008070
   4 H :   -0.000847
   5 H :   -0.000070
   6 C :   -0.383651
   7 O :   -0.088289
   8 H :    0.178495
   9 H :    0.094981
  10 H :    0.097808
  11 H :    0.119198

  Mayer bond orders larger than 0.1
B(  6-C ,  7-O ) :   1.0056 B(  6-C ,  9-H ) :   0.9845 B(  6-C , 10-H ) :   0.9753
B(  6-C , 11-H ) :   0.9707 B(  7-O ,  8-H ) :   0.8894

Dispersion correction           -0.000247560
FINAL SINGLE POINT ENERGY      -115.731946613077

DIPOLE MOMENT
-------------
                                X             Y             Z
Electronic contribution:      0.94942       0.06952       1.43810
Nuclear contribution   :     -0.96690       0.44135      -1.83008
                        -----------------------------------------
Total Dipole Moment    :     -0.01747       0.51087      -0.39198
                        -----------------------------------------
Magnitude (a.u.)       :      0.64416
Magnitude (Debye)      :      1.63733

Rotational constants in cm-1:     4.278496     0.828905     0.808357
Rotational constants in MHz : 128266.083329 24849.943107 24233.939532

                             ****ORCA TERMINATED NORMALLY****
TOTAL RUN TIME: 0 days 0 hours 5 minutes 39 seconds 888 msec
