                         Program Version 4.1.2  - RELEASE  -
|  1> #Run DFT-D3 single point of the dimer
|  2> ! wB97X-D3 def2-TZVP TIGHTSCF CHELPG PMODEL PAL8
|  3>
|  4> %base "19-6_DFT_AB"
|  5>
|  6> %scf
|  7> MaxIter 1000
|  8> end
|  9>
| 10> * xyz 0 1
| 11>   C                      -7.667179            -9.209066            3.339312
| 12>   O                      -8.331323            -9.779651            4.428187
| 13>   H                      -8.630029            -10.674345           4.174091
| 14>   H                      -6.594837            -9.317972            3.473686
| 15>   H                      -7.952272            -9.648018            2.417688
| 16>   H                      -7.931544            -8.142269            3.023550
| 17>   C                      -4.824653            -10.147423           5.995258
| 18>   O                      -3.540694            -9.794573            6.520729
| 19>   H                      -3.402781            -8.849417            6.277806
| 20>   H                      -5.412021            -9.291457            5.854448
| 21>   H                      -4.591156            -10.588656           5.073679
| 22>   H                      -5.447185            -10.807198           6.600243
| 23> *
| 24>
| 25> #Run DFT-D3 single point of the molecule with dimer basis set
| 26> $new_job
| 27> %base "19-6_DFT_A"
| 28> ! wB97X-D3 def2-TZVP TIGHTSCF CHELPG PMODEL
| 29>
| 30> %scf
| 31> MaxIter 1000
| 32> end
| 33>
| 34> * xyz 0 1
| 35>   C                      -7.667179            -9.209066            3.339312
| 36>   O                      -8.331323            -9.779651            4.428187
| 37>   H                      -8.630029            -10.674345           4.174091
| 38>   H                      -6.594837            -9.317972            3.473686
| 39>   H                      -7.952272            -9.648018            2.417688
| 40>   H                      -7.931544            -8.142269            3.023550
| 41>   C                    : -4.824653            -10.147423           5.995258
| 42>   O                    : -3.540694            -9.794573            6.520729
| 43>   H                    : -3.402781            -8.849417            6.277806
| 44>   H                    : -5.412021            -9.291457            5.854448
| 45>   H                    : -4.591156            -10.588656           5.073679
| 46>   H                    : -5.447185            -10.807198           6.600243
| 47> *
| 48>
| 49> #Run DFT-D3 single point of the particle with dimer basis set
| 50> $new_job
| 51> %base "19-6_DFT_B"
| 52> ! wB97X-D3 def2-TZVP TIGHTSCF CHELPG PMODEL
| 53>
| 54> %scf
| 55> MaxIter 1000
| 56> end
| 57>
| 58> * xyz 0 1
| 59>   C                    : -7.667179            -9.209066            3.339312
| 60>   O                    : -8.331323            -9.779651            4.428187
| 61>   H                    : -8.630029            -10.674345           4.174091
| 62>   H                    : -6.594837            -9.317972            3.473686
| 63>   H                    : -7.952272            -9.648018            2.417688
| 64>   H                    : -7.931544            -8.142269            3.023550
| 65>   C                      -4.824653            -10.147423           5.995258
| 66>   O                      -3.540694            -9.794573            6.520729
| 67>   H                      -3.402781            -8.849417            6.277806
| 68>   H                      -5.412021            -9.291457            5.854448
| 69>   H                      -4.591156            -10.588656           5.073679
| 70>   H                      -5.447185            -10.807198           6.600243
| 71> *
| 72>
| 73>                          ****END OF INPUT****
 Total Charge           Charge          ....    0
 Multiplicity           Mult            ....    1
 Number of Electrons    NEL             ....   36
Dispersion correction           -0.001530473
FINAL SINGLE POINT ENERGY      -231.456623173789
Dispersion correction           -0.000250984
FINAL SINGLE POINT ENERGY      -115.727053964305

CARTESIAN COORDINATES (ANGSTROEM)
---------------------------------
  C     -7.667179   -9.209066    3.339312
  O     -8.331323   -9.779651    4.428187
  H     -8.630029  -10.674345    4.174091
  H     -6.594837   -9.317972    3.473686
  H     -7.952272   -9.648018    2.417688
  H     -7.931544   -8.142269    3.023550
  C     -4.824653  -10.147423    5.995258
  O     -3.540694   -9.794573    6.520729
  H     -3.402781   -8.849417    6.277806
  H     -5.412021   -9.291457    5.854448
  H     -4.591156  -10.588656    5.073679
  H     -5.447185  -10.807198    6.600243

 Multiplicity           Mult            ....    1
 Number of Electrons    NEL             ....   18
 Basis Dimension        Dim             ....  172

ORBITAL ENERGIES
----------------

  NO   OCC          E(Eh)            E(eV)
   0   2.0000     -19.228960      -523.2466
   1   2.0000     -10.303246      -280.3656
   2   2.0000      -1.126157       -30.6443
   3   2.0000      -0.799789       -21.7634
   4   2.0000      -0.606028       -16.4909
   5   2.0000      -0.549946       -14.9648
   6   2.0000      -0.525851       -14.3091
   7   2.0000      -0.433641       -11.8000
   8   2.0000      -0.371775       -10.1165
   9   0.0000       0.081244         2.2108
  10   0.0000       0.112021         3.0482
  11   0.0000       0.151049         4.1102
  12   0.0000       0.166088         4.5195
  13   0.0000       0.180529         4.9124

MULLIKEN ATOMIC CHARGES
-----------------------
   0 C :    0.001215
   1 O :    0.000099
   2 H :   -0.000014
   3 H :   -0.003744
   4 H :   -0.000172
   5 H :   -0.000077
   6 C :   -0.159293
   7 O :   -0.481770
   8 H :    0.316969
   9 H :    0.106555
  10 H :    0.109124
  11 H :    0.111108
Sum of atomic charges:   -0.0000000

LOEWDIN ATOMIC CHARGES
----------------------
   0 C :   -0.002481
   1 O :   -0.000297
   2 H :   -0.000034
   3 H :   -0.003032
   4 H :   -0.000025
   5 H :   -0.000023
   6 C :   -0.360826
   7 O :   -0.103347
   8 H :    0.184022
   9 H :    0.088921
  10 H :    0.092284
  11 H :    0.104839

  Mayer bond orders larger than 0.1
B(  6-C ,  7-O ) :   0.9979 B(  6-C ,  9-H ) :   0.9876 B(  6-C , 10-H ) :   0.9863
B(  6-C , 11-H ) :   0.9671 B(  7-O ,  8-H ) :   0.8981

Dispersion correction           -0.000224396
FINAL SINGLE POINT ENERGY      -115.727970220175

DIPOLE MOMENT
-------------
                                X             Y             Z
Electronic contribution:      1.57490       0.26372       0.75470
Nuclear contribution   :     -2.03121       0.20452      -1.12405
                        -----------------------------------------
Total Dipole Moment    :     -0.45632       0.46824      -0.36935
                        -----------------------------------------
Magnitude (a.u.)       :      0.75093
Magnitude (Debye)      :      1.90870

Rotational constants in cm-1:     4.452113     0.822404     0.795052
Rotational constants in MHz : 133470.990674 24655.056657 23835.060229

                             ****ORCA TERMINATED NORMALLY****
TOTAL RUN TIME: 0 days 0 hours 0 minutes 49 seconds 807 msec
