                         Program Version 4.1.2  - RELEASE  -
|  1> #Run DFT-D3 single point of the dimer
|  2> ! wB97X-D3 def2-TZVP TIGHTSCF  CHELPG PAL8
|  3>
|  4> %base "145_charges"
|  5>
|  6> %scf
|  7> MaxIter 1000
|  8> end
|  9> %output
| 10>   Print[ P_Mayer ] 1
| 11>   Print[ P_NatPop ] 1
| 12>   Print[ P_Hirshfeld ] 1
| 13>   Print[ P_Mulliken ] 1
| 14>   Print [ P_Loewdin ] 1
| 15> end
| 16>
| 17> * xyz 0 1
| 18>   C                      5.436401             5.682114             -7.953049
| 19>   O                      5.447600             4.319745             -7.916725
| 20>   H                      5.328296             3.934206             -8.837398
| 21>   H                      4.483021             6.011303             -7.510054
| 22>   H                      6.295782             6.141067             -7.449564
| 23>   H                      5.344783             6.044554             -8.997836
| 24> *
| 25>
| 26>                          ****END OF INPUT****

CARTESIAN COORDINATES (ANGSTROEM)
---------------------------------
  C      5.436401    5.682114   -7.953049
  O      5.447600    4.319745   -7.916725
  H      5.328296    3.934206   -8.837398
  H      4.483021    6.011303   -7.510054
  H      6.295782    6.141067   -7.449564
  H      5.344783    6.044554   -8.997836

 Total Charge           Charge          ....    0
 Multiplicity           Mult            ....    1
 Number of Electrons    NEL             ....   18
 Basis Dimension        Dim             ....   86

ORBITAL ENERGIES
----------------

  NO   OCC          E(Eh)            E(eV)
   0   2.0000     -19.230591      -523.2910
   1   2.0000     -10.310295      -280.5574
   2   2.0000      -1.143135       -31.1063
   3   2.0000      -0.786930       -21.4135
   4   2.0000      -0.616215       -16.7681
   5   2.0000      -0.549091       -14.9415
   6   2.0000      -0.529545       -14.4097
   7   2.0000      -0.421743       -11.4762
   8   2.0000      -0.366866        -9.9829
   9   0.0000       0.105318         2.8659
  10   0.0000       0.156092         4.2475
  11   0.0000       0.197245         5.3673
  12   0.0000       0.211357         5.7513
  13   0.0000       0.238493         6.4897

MULLIKEN ATOMIC CHARGES
-----------------------
   0 C :   -0.153103
   1 O :   -0.469884
   2 H :    0.325453
   3 H :    0.095567
   4 H :    0.108975
   5 H :    0.092991
Sum of atomic charges:    0.0000000

LOEWDIN ATOMIC CHARGES
----------------------
   0 C :   -0.431490
   1 O :   -0.063142
   2 H :    0.199992
   3 H :    0.097437
   4 H :    0.100504
   5 H :    0.096699

  Mayer bond orders larger than 0.1
B(  0-C ,  1-O ) :   1.0165 B(  0-C ,  3-H ) :   0.9785 B(  0-C ,  4-H ) :   0.9691
B(  0-C ,  5-H ) :   0.9899 B(  1-O ,  2-H ) :   0.8868

Dispersion correction           -0.000232790
FINAL SINGLE POINT ENERGY      -115.729272905805

DIPOLE MOMENT
-------------
                                X             Y             Z
Electronic contribution:      0.17714      -1.80999       0.23979
Nuclear contribution   :     -0.26165       2.05308      -0.87323
                        -----------------------------------------
Total Dipole Moment    :     -0.08451       0.24309      -0.63344
                        -----------------------------------------
Magnitude (a.u.)       :      0.68373
Magnitude (Debye)      :      1.73790

Rotational constants in cm-1:     4.188352     0.877688     0.843268
Rotational constants in MHz : 125563.645965 26312.424576 25280.549590

                             ****ORCA TERMINATED NORMALLY****
TOTAL RUN TIME: 0 days 0 hours 0 minutes 40 seconds 445 msec
