                         Program Version 4.1.2  - RELEASE  -
|  1> #Run DFT-D3 single point of the dimer
|  2> ! wB97X-D3 def2-TZVP TIGHTSCF CHELPG PMODEL PAL8
|  3>
|  4> %base "2-126_DFT_AB"
|  5>
|  6> %scf
|  7> MaxIter 1000
|  8> end
|  9>
| 10> * xyz 0 1
| 11>   C                      -10.353476           -3.644243            -1.666090
| 12>   O                      -10.961982           -3.131352            -2.793197
| 13>   H                      -10.428086           -2.428784            -3.211941
| 14>   H                      -9.308761            -3.229230            -1.545156
| 15>   H                      -10.916785           -3.388706            -0.756654
| 16>   H                      -10.260516           -4.742474            -1.658339
| 17>   C                      -9.677697            -6.786690            -3.192593
| 18>   O                      -9.648923            -7.128070            -1.859023
| 19>   H                      -10.382050           -7.654785            -1.584098
| 20>   H                      -9.396301            -7.601122            -3.900959
| 21>   H                      -10.684429           -6.391497            -3.514179
| 22>   H                      -8.983916            -5.944792            -3.377370
| 23> *
| 24>
| 25> #Run DFT-D3 single point of the molecule with dimer basis set
| 26> $new_job
| 27> %base "2-126_DFT_A"
| 28> ! wB97X-D3 def2-TZVP TIGHTSCF CHELPG PMODEL
| 29>
| 30> %scf
| 31> MaxIter 1000
| 32> end
| 33>
| 34> * xyz 0 1
| 35>   C                      -10.353476           -3.644243            -1.666090
| 36>   O                      -10.961982           -3.131352            -2.793197
| 37>   H                      -10.428086           -2.428784            -3.211941
| 38>   H                      -9.308761            -3.229230            -1.545156
| 39>   H                      -10.916785           -3.388706            -0.756654
| 40>   H                      -10.260516           -4.742474            -1.658339
| 41>   C                    : -9.677697            -6.786690            -3.192593
| 42>   O                    : -9.648923            -7.128070            -1.859023
| 43>   H                    : -10.382050           -7.654785            -1.584098
| 44>   H                    : -9.396301            -7.601122            -3.900959
| 45>   H                    : -10.684429           -6.391497            -3.514179
| 46>   H                    : -8.983916            -5.944792            -3.377370
| 47> *
| 48>
| 49> #Run DFT-D3 single point of the particle with dimer basis set
| 50> $new_job
| 51> %base "2-126_DFT_B"
| 52> ! wB97X-D3 def2-TZVP TIGHTSCF CHELPG PMODEL
| 53>
| 54> %scf
| 55> MaxIter 1000
| 56> end
| 57>
| 58> * xyz 0 1
| 59>   C                    : -10.353476           -3.644243            -1.666090
| 60>   O                    : -10.961982           -3.131352            -2.793197
| 61>   H                    : -10.428086           -2.428784            -3.211941
| 62>   H                    : -9.308761            -3.229230            -1.545156
| 63>   H                    : -10.916785           -3.388706            -0.756654
| 64>   H                    : -10.260516           -4.742474            -1.658339
| 65>   C                      -9.677697            -6.786690            -3.192593
| 66>   O                      -9.648923            -7.128070            -1.859023
| 67>   H                      -10.382050           -7.654785            -1.584098
| 68>   H                      -9.396301            -7.601122            -3.900959
| 69>   H                      -10.684429           -6.391497            -3.514179
| 70>   H                      -8.983916            -5.944792            -3.377370
| 71> *
| 72>
| 73>                          ****END OF INPUT****
 Total Charge           Charge          ....    0
 Multiplicity           Mult            ....    1
 Number of Electrons    NEL             ....   36
Dispersion correction           -0.001967930
FINAL SINGLE POINT ENERGY      -231.470416337464
Dispersion correction           -0.000252607
FINAL SINGLE POINT ENERGY      -115.733348382855

CARTESIAN COORDINATES (ANGSTROEM)
---------------------------------
  C    -10.353476   -3.644243   -1.666090
  O    -10.961982   -3.131352   -2.793197
  H    -10.428086   -2.428784   -3.211941
  H     -9.308761   -3.229230   -1.545156
  H    -10.916785   -3.388706   -0.756654
  H    -10.260516   -4.742474   -1.658339
  C     -9.677697   -6.786690   -3.192593
  O     -9.648923   -7.128070   -1.859023
  H    -10.382050   -7.654785   -1.584098
  H     -9.396301   -7.601122   -3.900959
  H    -10.684429   -6.391497   -3.514179
  H     -8.983916   -5.944792   -3.377370

 Multiplicity           Mult            ....    1
 Number of Electrons    NEL             ....   18
 Basis Dimension        Dim             ....  172

ORBITAL ENERGIES
----------------

  NO   OCC          E(Eh)            E(eV)
   0   2.0000     -19.230362      -523.2847
   1   2.0000     -10.318032      -280.7679
   2   2.0000      -1.149358       -31.2756
   3   2.0000      -0.795483       -21.6462
   4   2.0000      -0.621192       -16.9035
   5   2.0000      -0.540885       -14.7182
   6   2.0000      -0.532032       -14.4773
   7   2.0000      -0.423049       -11.5118
   8   2.0000      -0.373611       -10.1665
   9   0.0000       0.089821         2.4442
  10   0.0000       0.123933         3.3724
  11   0.0000       0.153077         4.1654
  12   0.0000       0.177390         4.8270
  13   0.0000       0.182708         4.9717

MULLIKEN ATOMIC CHARGES
-----------------------
   0 C :   -0.003432
   1 O :    0.000180
   2 H :   -0.000049
   3 H :   -0.000342
   4 H :    0.000014
   5 H :    0.000211
   6 C :   -0.159957
   7 O :   -0.476177
   8 H :    0.318541
   9 H :    0.107600
  10 H :    0.094029
  11 H :    0.119382
Sum of atomic charges:    0.0000000

LOEWDIN ATOMIC CHARGES
----------------------
   0 C :   -0.007256
   1 O :   -0.000390
   2 H :   -0.000050
   3 H :   -0.000158
   4 H :   -0.000038
   5 H :   -0.012745
   6 C :   -0.417098
   7 O :   -0.031698
   8 H :    0.161099
   9 H :    0.096362
  10 H :    0.099041
  11 H :    0.112930

  Mayer bond orders larger than 0.1
B(  6-C ,  7-O ) :   0.9882 B(  6-C ,  9-H ) :   0.9656 B(  6-C , 10-H ) :   0.9829
B(  6-C , 11-H ) :   0.9768 B(  7-O ,  8-H ) :   0.8950

Dispersion correction           -0.000257741
FINAL SINGLE POINT ENERGY      -115.735027854126

DIPOLE MOMENT
-------------
                                X             Y             Z
Electronic contribution:      0.16878      -0.48279       1.85171
Nuclear contribution   :     -0.65689       0.27204      -2.16618
                        -----------------------------------------
Total Dipole Moment    :     -0.48812      -0.21075      -0.31447
                        -----------------------------------------
Magnitude (a.u.)       :      0.61771
Magnitude (Debye)      :      1.57010

Rotational constants in cm-1:     4.331711     0.847121     0.823063
Rotational constants in MHz : 129861.431545 25396.061637 24674.816028

                             ****ORCA TERMINATED NORMALLY****
TOTAL RUN TIME: 0 days 0 hours 6 minutes 23 seconds 714 msec
