                         Program Version 4.1.2  - RELEASE  -
|  1> #Run DFT-D3 single point of the dimer
|  2> ! wB97X-D3 def2-TZVP TIGHTSCF CHELPG PMODEL PAL8
|  3>
|  4> %base "16-174_DFT_AB"
|  5>
|  6> %scf
|  7> MaxIter 1000
|  8> end
|  9>
| 10> * xyz 0 1
| 11>   C                      -2.833394            3.356421             -5.756961
| 12>   O                      -2.355531            4.681336             -5.753562
| 13>   H                      -2.846205            5.233091             -6.310607
| 14>   H                      -2.789939            2.826615             -6.740365
| 15>   H                      -2.255881            2.728479             -5.178716
| 16>   H                      -3.909778            3.281264             -5.410658
| 17>   C                      0.274920             3.925468             -3.263197
| 18>   O                      0.237037             4.835659             -4.358688
| 19>   H                      -0.711993            4.816995             -4.566247
| 20>   H                      1.183004             3.952553             -2.643056
| 21>   H                      -0.466177            4.226683             -2.456109
| 22>   H                      -0.052460            2.866320             -3.460820
| 23> *
| 24>
| 25> #Run DFT-D3 single point of the molecule with dimer basis set
| 26> $new_job
| 27> %base "16-174_DFT_A"
| 28> ! wB97X-D3 def2-TZVP TIGHTSCF CHELPG PMODEL
| 29>
| 30> %scf
| 31> MaxIter 1000
| 32> end
| 33>
| 34> * xyz 0 1
| 35>   C                      -2.833394            3.356421             -5.756961
| 36>   O                      -2.355531            4.681336             -5.753562
| 37>   H                      -2.846205            5.233091             -6.310607
| 38>   H                      -2.789939            2.826615             -6.740365
| 39>   H                      -2.255881            2.728479             -5.178716
| 40>   H                      -3.909778            3.281264             -5.410658
| 41>   C                    : 0.274920             3.925468             -3.263197
| 42>   O                    : 0.237037             4.835659             -4.358688
| 43>   H                    : -0.711993            4.816995             -4.566247
| 44>   H                    : 1.183004             3.952553             -2.643056
| 45>   H                    : -0.466177            4.226683             -2.456109
| 46>   H                    : -0.052460            2.866320             -3.460820
| 47> *
| 48>
| 49> #Run DFT-D3 single point of the particle with dimer basis set
| 50> $new_job
| 51> %base "16-174_DFT_B"
| 52> ! wB97X-D3 def2-TZVP TIGHTSCF CHELPG PMODEL
| 53>
| 54> %scf
| 55> MaxIter 1000
| 56> end
| 57>
| 58> * xyz 0 1
| 59>   C                    : -2.833394            3.356421             -5.756961
| 60>   O                    : -2.355531            4.681336             -5.753562
| 61>   H                    : -2.846205            5.233091             -6.310607
| 62>   H                    : -2.789939            2.826615             -6.740365
| 63>   H                    : -2.255881            2.728479             -5.178716
| 64>   H                    : -3.909778            3.281264             -5.410658
| 65>   C                      0.274920             3.925468             -3.263197
| 66>   O                      0.237037             4.835659             -4.358688
| 67>   H                      -0.711993            4.816995             -4.566247
| 68>   H                      1.183004             3.952553             -2.643056
| 69>   H                      -0.466177            4.226683             -2.456109
| 70>   H                      -0.052460            2.866320             -3.460820
| 71> *
| 72>
| 73>                          ****END OF INPUT****
 Total Charge           Charge          ....    0
 Multiplicity           Mult            ....    1
 Number of Electrons    NEL             ....   36
Dispersion correction           -0.001920106
FINAL SINGLE POINT ENERGY      -231.465533622372
Dispersion correction           -0.000264746
FINAL SINGLE POINT ENERGY      -115.730736809732

CARTESIAN COORDINATES (ANGSTROEM)
---------------------------------
  C     -2.833394    3.356421   -5.756961
  O     -2.355531    4.681336   -5.753562
  H     -2.846205    5.233091   -6.310607
  H     -2.789939    2.826615   -6.740365
  H     -2.255881    2.728479   -5.178716
  H     -3.909778    3.281264   -5.410658
  C      0.274920    3.925468   -3.263197
  O      0.237037    4.835659   -4.358688
  H     -0.711993    4.816995   -4.566247
  H      1.183004    3.952553   -2.643056
  H     -0.466177    4.226683   -2.456109
  H     -0.052460    2.866320   -3.460820

 Multiplicity           Mult            ....    1
 Number of Electrons    NEL             ....   18
 Basis Dimension        Dim             ....  172

ORBITAL ENERGIES
----------------

  NO   OCC          E(Eh)            E(eV)
   0   2.0000     -19.241507      -523.5880
   1   2.0000     -10.323662      -280.9211
   2   2.0000      -1.140103       -31.0238
   3   2.0000      -0.790134       -21.5006
   4   2.0000      -0.610272       -16.6064
   5   2.0000      -0.537739       -14.6326
   6   2.0000      -0.522195       -14.2097
   7   2.0000      -0.441187       -12.0053
   8   2.0000      -0.374979       -10.2037
   9   0.0000       0.069319         1.8863
  10   0.0000       0.130660         3.5554
  11   0.0000       0.138791         3.7767
  12   0.0000       0.168193         4.5768
  13   0.0000       0.190388         5.1807

MULLIKEN ATOMIC CHARGES
-----------------------
   0 C :   -0.004224
   1 O :   -0.001204
   2 H :   -0.000173
   3 H :    0.000237
   4 H :    0.000709
   5 H :   -0.000027
   6 C :   -0.210698
   7 O :   -0.444560
   8 H :    0.317671
   9 H :    0.132716
  10 H :    0.101436
  11 H :    0.108117
Sum of atomic charges:   -0.0000000

LOEWDIN ATOMIC CHARGES
----------------------
   0 C :   -0.005209
   1 O :   -0.015607
   2 H :   -0.000780
   3 H :   -0.000068
   4 H :   -0.001553
   5 H :   -0.000082
   6 C :   -0.405997
   7 O :   -0.071114
   8 H :    0.189489
   9 H :    0.109832
  10 H :    0.101107
  11 H :    0.099981

  Mayer bond orders larger than 0.1
B(  6-C ,  7-O ) :   1.0051 B(  6-C ,  9-H ) :   0.9712 B(  6-C , 10-H ) :   0.9821
B(  6-C , 11-H ) :   0.9622 B(  7-O ,  8-H ) :   0.9025

Dispersion correction           -0.000256175
FINAL SINGLE POINT ENERGY      -115.727663103407

DIPOLE MOMENT
-------------
                                X             Y             Z
Electronic contribution:      0.30746       1.23542      -1.67174
Nuclear contribution   :     -0.86969      -1.56705       1.98439
                        -----------------------------------------
Total Dipole Moment    :     -0.56223      -0.33164       0.31266
                        -----------------------------------------
Magnitude (a.u.)       :      0.72377
Magnitude (Debye)      :      1.83967

Rotational constants in cm-1:     4.239298     0.809669     0.777428
Rotational constants in MHz : 127090.961718 24273.264258 23306.690664

                             ****ORCA TERMINATED NORMALLY****
TOTAL RUN TIME: 0 days 0 hours 1 minutes 9 seconds 668 msec
