                         Program Version 4.1.2  - RELEASE  -
|  1> #Run DFT-D3 single point of the dimer
|  2> ! wB97X-D3 def2-TZVP TIGHTSCF CHELPG PMODEL PAL8
|  3>
|  4> %base "18-113_DFT_AB"
|  5>
|  6> %scf
|  7> MaxIter 1000
|  8> end
|  9>
| 10> * xyz 0 1
| 11>   C                      1.536306             -11.056976           -5.681817
| 12>   O                      1.443532             -9.917052            -6.467092
| 13>   H                      2.378982             -9.721470            -6.647489
| 14>   H                      0.576598             -11.390417           -5.272839
| 15>   H                      1.904503             -11.918158           -6.229317
| 16>   H                      2.254301             -10.950616           -4.839417
| 17>   C                      5.145212             -11.023255           -6.473144
| 18>   O                      6.165765             -10.033122           -6.475074
| 19>   H                      6.160345             -9.606264            -7.317652
| 20>   H                      4.241159             -10.711664           -5.988630
| 21>   H                      4.936577             -11.255154           -7.514384
| 22>   H                      5.558417             -11.941200           -6.064285
| 23> *
| 24>
| 25> #Run DFT-D3 single point of the molecule with dimer basis set
| 26> $new_job
| 27> %base "18-113_DFT_A"
| 28> ! wB97X-D3 def2-TZVP TIGHTSCF CHELPG PMODEL
| 29>
| 30> %scf
| 31> MaxIter 1000
| 32> end
| 33>
| 34> * xyz 0 1
| 35>   C                      1.536306             -11.056976           -5.681817
| 36>   O                      1.443532             -9.917052            -6.467092
| 37>   H                      2.378982             -9.721470            -6.647489
| 38>   H                      0.576598             -11.390417           -5.272839
| 39>   H                      1.904503             -11.918158           -6.229317
| 40>   H                      2.254301             -10.950616           -4.839417
| 41>   C                    : 5.145212             -11.023255           -6.473144
| 42>   O                    : 6.165765             -10.033122           -6.475074
| 43>   H                    : 6.160345             -9.606264            -7.317652
| 44>   H                    : 4.241159             -10.711664           -5.988630
| 45>   H                    : 4.936577             -11.255154           -7.514384
| 46>   H                    : 5.558417             -11.941200           -6.064285
| 47> *
| 48>
| 49> #Run DFT-D3 single point of the particle with dimer basis set
| 50> $new_job
| 51> %base "18-113_DFT_B"
| 52> ! wB97X-D3 def2-TZVP TIGHTSCF CHELPG PMODEL
| 53>
| 54> %scf
| 55> MaxIter 1000
| 56> end
| 57>
| 58> * xyz 0 1
| 59>   C                    : 1.536306             -11.056976           -5.681817
| 60>   O                    : 1.443532             -9.917052            -6.467092
| 61>   H                    : 2.378982             -9.721470            -6.647489
| 62>   H                    : 0.576598             -11.390417           -5.272839
| 63>   H                    : 1.904503             -11.918158           -6.229317
| 64>   H                    : 2.254301             -10.950616           -4.839417
| 65>   C                      5.145212             -11.023255           -6.473144
| 66>   O                      6.165765             -10.033122           -6.475074
| 67>   H                      6.160345             -9.606264            -7.317652
| 68>   H                      4.241159             -10.711664           -5.988630
| 69>   H                      4.936577             -11.255154           -7.514384
| 70>   H                      5.558417             -11.941200           -6.064285
| 71> *
| 72>
| 73>                          ****END OF INPUT****
 Total Charge           Charge          ....    0
 Multiplicity           Mult            ....    1
 Number of Electrons    NEL             ....   36
Dispersion correction           -0.001797207
FINAL SINGLE POINT ENERGY      -231.467899271540
Dispersion correction           -0.000221920
FINAL SINGLE POINT ENERGY      -115.733765180232

CARTESIAN COORDINATES (ANGSTROEM)
---------------------------------
  C      1.536306  -11.056976   -5.681817
  O      1.443532   -9.917052   -6.467092
  H      2.378982   -9.721470   -6.647489
  H      0.576598  -11.390417   -5.272839
  H      1.904503  -11.918158   -6.229317
  H      2.254301  -10.950616   -4.839417
  C      5.145212  -11.023255   -6.473144
  O      6.165765  -10.033122   -6.475074
  H      6.160345   -9.606264   -7.317652
  H      4.241159  -10.711664   -5.988630
  H      4.936577  -11.255154   -7.514384
  H      5.558417  -11.941200   -6.064285

 Multiplicity           Mult            ....    1
 Number of Electrons    NEL             ....   18
 Basis Dimension        Dim             ....  172

ORBITAL ENERGIES
----------------

  NO   OCC          E(Eh)            E(eV)
   0   2.0000     -19.225299      -523.1470
   1   2.0000     -10.309495      -280.5356
   2   2.0000      -1.135455       -30.8973
   3   2.0000      -0.798543       -21.7295
   4   2.0000      -0.610735       -16.6190
   5   2.0000      -0.550147       -14.9703
   6   2.0000      -0.525992       -14.3130
   7   2.0000      -0.428057       -11.6480
   8   2.0000      -0.376187       -10.2366
   9   0.0000       0.085571         2.3285
  10   0.0000       0.114705         3.1213
  11   0.0000       0.160594         4.3700
  12   0.0000       0.167400         4.5552
  13   0.0000       0.184296         5.0150

MULLIKEN ATOMIC CHARGES
-----------------------
   0 C :   -0.006413
   1 O :    0.000771
   2 H :    0.001082
   3 H :   -0.000156
   4 H :    0.000860
   5 H :    0.000968
   6 C :   -0.160384
   7 O :   -0.475772
   8 H :    0.313887
   9 H :    0.114421
  10 H :    0.097626
  11 H :    0.113110
Sum of atomic charges:    0.0000000

LOEWDIN ATOMIC CHARGES
----------------------
   0 C :   -0.010335
   1 O :   -0.000450
   2 H :   -0.004860
   3 H :   -0.000094
   4 H :   -0.001302
   5 H :   -0.003810
   6 C :   -0.363185
   7 O :   -0.077189
   8 H :    0.157637
   9 H :    0.100934
  10 H :    0.097947
  11 H :    0.104706

  Mayer bond orders larger than 0.1
B(  6-C ,  7-O ) :   1.0035 B(  6-C ,  9-H ) :   0.9689 B(  6-C , 10-H ) :   0.9965
B(  6-C , 11-H ) :   0.9711 B(  7-O ,  8-H ) :   0.9048

Dispersion correction           -0.000233327
FINAL SINGLE POINT ENERGY      -115.733915671938

DIPOLE MOMENT
-------------
                                X             Y             Z
Electronic contribution:      1.23475       1.23722       0.23879
Nuclear contribution   :     -1.64601      -1.37359      -0.80980
                        -----------------------------------------
Total Dipole Moment    :     -0.41125      -0.13637      -0.57102
                        -----------------------------------------
Magnitude (a.u.)       :      0.71679
Magnitude (Debye)      :      1.82193

Rotational constants in cm-1:     4.353277     0.828478     0.805885
Rotational constants in MHz : 130507.970429 24837.143111 24159.810198

                             ****ORCA TERMINATED NORMALLY****
TOTAL RUN TIME: 0 days 0 hours 1 minutes 7 seconds 84 msec
