                         Program Version 4.1.2  - RELEASE  -
|  1> #Run DFT-D3 single point of the dimer
|  2> ! wB97X-D3 def2-TZVP TIGHTSCF CHELPG PMODEL PAL8
|  3>
|  4> %base "7-76_DFT_AB"
|  5>
|  6> %scf
|  7> MaxIter 1000
|  8> end
|  9>
| 10> * xyz 0 1
| 11>   C                      7.285926             0.821066             2.316241
| 12>   O                      7.532912             0.471736             1.007627
| 13>   H                      8.045949             -0.406475            0.930814
| 14>   H                      7.486048             -0.087081            3.004934
| 15>   H                      7.841240             1.695538             2.765298
| 16>   H                      6.188296             0.937388             2.320612
| 17>   C                      10.560418            3.098178             -0.880398
| 18>   O                      11.202843            3.408740             0.386204
| 19>   H                      10.928286            2.683354             0.941212
| 20>   H                      9.677609             3.810956             -0.896926
| 21>   H                      11.240863            3.265396             -1.742691
| 22>   H                      10.141027            2.036011             -0.992917
| 23> *
| 24>
| 25> #Run DFT-D3 single point of the molecule with dimer basis set
| 26> $new_job
| 27> %base "7-76_DFT_A"
| 28> ! wB97X-D3 def2-TZVP TIGHTSCF CHELPG PMODEL
| 29>
| 30> %scf
| 31> MaxIter 1000
| 32> end
| 33>
| 34> * xyz 0 1
| 35>   C                      7.285926             0.821066             2.316241
| 36>   O                      7.532912             0.471736             1.007627
| 37>   H                      8.045949             -0.406475            0.930814
| 38>   H                      7.486048             -0.087081            3.004934
| 39>   H                      7.841240             1.695538             2.765298
| 40>   H                      6.188296             0.937388             2.320612
| 41>   C                    : 10.560418            3.098178             -0.880398
| 42>   O                    : 11.202843            3.408740             0.386204
| 43>   H                    : 10.928286            2.683354             0.941212
| 44>   H                    : 9.677609             3.810956             -0.896926
| 45>   H                    : 11.240863            3.265396             -1.742691
| 46>   H                    : 10.141027            2.036011             -0.992917
| 47> *
| 48>
| 49> #Run DFT-D3 single point of the particle with dimer basis set
| 50> $new_job
| 51> %base "7-76_DFT_B"
| 52> ! wB97X-D3 def2-TZVP TIGHTSCF CHELPG PMODEL
| 53>
| 54> %scf
| 55> MaxIter 1000
| 56> end
| 57>
| 58> * xyz 0 1
| 59>   C                    : 7.285926             0.821066             2.316241
| 60>   O                    : 7.532912             0.471736             1.007627
| 61>   H                    : 8.045949             -0.406475            0.930814
| 62>   H                    : 7.486048             -0.087081            3.004934
| 63>   H                    : 7.841240             1.695538             2.765298
| 64>   H                    : 6.188296             0.937388             2.320612
| 65>   C                      10.560418            3.098178             -0.880398
| 66>   O                      11.202843            3.408740             0.386204
| 67>   H                      10.928286            2.683354             0.941212
| 68>   H                      9.677609             3.810956             -0.896926
| 69>   H                      11.240863            3.265396             -1.742691
| 70>   H                      10.141027            2.036011             -0.992917
| 71> *
| 72>
| 73>                          ****END OF INPUT****
 Total Charge           Charge          ....    0
 Multiplicity           Mult            ....    1
 Number of Electrons    NEL             ....   36
Dispersion correction           -0.001042658
FINAL SINGLE POINT ENERGY      -231.453561295408
Dispersion correction           -0.000256815
FINAL SINGLE POINT ENERGY      -115.723669921649

CARTESIAN COORDINATES (ANGSTROEM)
---------------------------------
  C      7.285926    0.821066    2.316241
  O      7.532912    0.471736    1.007627
  H      8.045949   -0.406475    0.930814
  H      7.486048   -0.087081    3.004934
  H      7.841240    1.695538    2.765298
  H      6.188296    0.937388    2.320612
  C     10.560418    3.098178   -0.880398
  O     11.202843    3.408740    0.386204
  H     10.928286    2.683354    0.941212
  H      9.677609    3.810956   -0.896926
  H     11.240863    3.265396   -1.742691
  H     10.141027    2.036011   -0.992917

 Multiplicity           Mult            ....    1
 Number of Electrons    NEL             ....   18
 Basis Dimension        Dim             ....  172

ORBITAL ENERGIES
----------------

  NO   OCC          E(Eh)            E(eV)
   0   2.0000     -19.231756      -523.3227
   1   2.0000     -10.328312      -281.0477
   2   2.0000      -1.130225       -30.7550
   3   2.0000      -0.786419       -21.3996
   4   2.0000      -0.602507       -16.3950
   5   2.0000      -0.538412       -14.6509
   6   2.0000      -0.511183       -13.9100
   7   2.0000      -0.442645       -12.0450
   8   2.0000      -0.372992       -10.1496
   9   0.0000       0.072181         1.9641
  10   0.0000       0.117702         3.2028
  11   0.0000       0.142637         3.8814
  12   0.0000       0.162575         4.4239
  13   0.0000       0.186787         5.0827

MULLIKEN ATOMIC CHARGES
-----------------------
   0 C :    0.000081
   1 O :    0.000030
   2 H :   -0.000059
   3 H :   -0.000004
   4 H :   -0.000318
   5 H :   -0.000008
   6 C :   -0.191465
   7 O :   -0.465414
   8 H :    0.313630
   9 H :    0.112261
  10 H :    0.123286
  11 H :    0.107979
Sum of atomic charges:    0.0000000

LOEWDIN ATOMIC CHARGES
----------------------
   0 C :   -0.000135
   1 O :   -0.000134
   2 H :   -0.000096
   3 H :   -0.000001
   4 H :   -0.000160
   5 H :   -0.000002
   6 C :   -0.376089
   7 O :   -0.104065
   8 H :    0.163375
   9 H :    0.107057
  10 H :    0.105559
  11 H :    0.104689

  Mayer bond orders larger than 0.1
B(  6-C ,  7-O ) :   0.9970 B(  6-C ,  9-H ) :   0.9798 B(  6-C , 10-H ) :   0.9678
B(  6-C , 11-H ) :   0.9721 B(  7-O ,  8-H ) :   0.9052

Dispersion correction           -0.000268129
FINAL SINGLE POINT ENERGY      -115.728775191863

DIPOLE MOMENT
-------------
                                X             Y             Z
Electronic contribution:      0.98613       0.47528       1.53166
Nuclear contribution   :     -1.40710      -1.06895      -1.68341
                        -----------------------------------------
Total Dipole Moment    :     -0.42098      -0.59368      -0.15175
                        -----------------------------------------
Magnitude (a.u.)       :      0.74344
Magnitude (Debye)      :      1.88967

Rotational constants in cm-1:     4.029192     0.792973     0.766975
Rotational constants in MHz : 120792.125392 23772.742021 22993.322219

                             ****ORCA TERMINATED NORMALLY****
TOTAL RUN TIME: 0 days 0 hours 1 minutes 9 seconds 645 msec
