                         Program Version 4.1.2  - RELEASE  -
|  1> #Run DFT-D3 single point of the dimer
|  2> ! wB97X-D3 def2-TZVP TIGHTSCF CHELPG PMODEL PAL8
|  3>
|  4> %base "1-174_DFT_AB"
|  5>
|  6> %scf
|  7> MaxIter 1000
|  8> end
|  9>
| 10> * xyz 0 1
| 11>   C                      3.124411             6.760712             0.079226
| 12>   O                      3.436967             7.917179             -0.688378
| 13>   H                      4.331407             7.963091             -0.943924
| 14>   H                      3.279896             7.001139             1.161215
| 15>   H                      2.073027             6.448068             0.115483
| 16>   H                      3.707843             5.875850             -0.206455
| 17>   C                      2.048376             4.863387             1.672935
| 18>   O                      2.054165             6.299924             1.791389
| 19>   H                      2.832459             6.575149             2.255047
| 20>   H                      1.922047             4.439233             2.619953
| 21>   H                      1.223006             4.407376             1.191580
| 22>   H                      3.058283             4.518590             1.360563
| 23> *
| 24>
| 25> #Run DFT-D3 single point of the molecule with dimer basis set
| 26> $new_job
| 27> %base "1-174_DFT_A"
| 28> ! wB97X-D3 def2-TZVP TIGHTSCF CHELPG PMODEL
| 29>
| 30> %scf
| 31> MaxIter 1000
| 32> end
| 33>
| 34> * xyz 0 1
| 35>   C                      3.124411             6.760712             0.079226
| 36>   O                      3.436967             7.917179             -0.688378
| 37>   H                      4.331407             7.963091             -0.943924
| 38>   H                      3.279896             7.001139             1.161215
| 39>   H                      2.073027             6.448068             0.115483
| 40>   H                      3.707843             5.875850             -0.206455
| 41>   C                    : 2.048376             4.863387             1.672935
| 42>   O                    : 2.054165             6.299924             1.791389
| 43>   H                    : 2.832459             6.575149             2.255047
| 44>   H                    : 1.922047             4.439233             2.619953
| 45>   H                    : 1.223006             4.407376             1.191580
| 46>   H                    : 3.058283             4.518590             1.360563
| 47> *
| 48>
| 49> #Run DFT-D3 single point of the particle with dimer basis set
| 50> $new_job
| 51> %base "1-174_DFT_B"
| 52> ! wB97X-D3 def2-TZVP TIGHTSCF CHELPG PMODEL
| 53>
| 54> %scf
| 55> MaxIter 1000
| 56> end
| 57>
| 58> * xyz 0 1
| 59>   C                    : 3.124411             6.760712             0.079226
| 60>   O                    : 3.436967             7.917179             -0.688378
| 61>   H                    : 4.331407             7.963091             -0.943924
| 62>   H                    : 3.279896             7.001139             1.161215
| 63>   H                    : 2.073027             6.448068             0.115483
| 64>   H                    : 3.707843             5.875850             -0.206455
| 65>   C                      2.048376             4.863387             1.672935
| 66>   O                      2.054165             6.299924             1.791389
| 67>   H                      2.832459             6.575149             2.255047
| 68>   H                      1.922047             4.439233             2.619953
| 69>   H                      1.223006             4.407376             1.191580
| 70>   H                      3.058283             4.518590             1.360563
| 71> *
| 72>
| 73>                          ****END OF INPUT****
 Total Charge           Charge          ....    0
 Multiplicity           Mult            ....    1
 Number of Electrons    NEL             ....   36
Dispersion correction           -0.001914865
FINAL SINGLE POINT ENERGY      -231.348113458920
Dispersion correction           -0.000269780
FINAL SINGLE POINT ENERGY      -115.730503917576

CARTESIAN COORDINATES (ANGSTROEM)
---------------------------------
  C      3.124411    6.760712    0.079226
  O      3.436967    7.917179   -0.688378
  H      4.331407    7.963091   -0.943924
  H      3.279896    7.001139    1.161215
  H      2.073027    6.448068    0.115483
  H      3.707843    5.875850   -0.206455
  C      2.048376    4.863387    1.672935
  O      2.054165    6.299924    1.791389
  H      2.832459    6.575149    2.255047
  H      1.922047    4.439233    2.619953
  H      1.223006    4.407376    1.191580
  H      3.058283    4.518590    1.360563

 Multiplicity           Mult            ....    1
 Number of Electrons    NEL             ....   18
 Basis Dimension        Dim             ....  172

ORBITAL ENERGIES
----------------

  NO   OCC          E(Eh)            E(eV)
   0   2.0000     -19.230135      -523.2786
   1   2.0000     -10.310296      -280.5574
   2   2.0000      -1.130601       -30.7652
   3   2.0000      -0.807856       -21.9829
   4   2.0000      -0.609949       -16.5976
   5   2.0000      -0.549943       -14.9647
   6   2.0000      -0.525235       -14.2924
   7   2.0000      -0.435730       -11.8568
   8   2.0000      -0.372289       -10.1305
   9   0.0000       0.095004         2.5852
  10   0.0000       0.139453         3.7947
  11   0.0000       0.148947         4.0531
  12   0.0000       0.189082         5.1452
  13   0.0000       0.198655         5.4057

MULLIKEN ATOMIC CHARGES
-----------------------
   0 C :    0.019727
   1 O :   -0.002869
   2 H :   -0.000561
   3 H :   -0.044884
   4 H :   -0.002510
   5 H :    0.000871
   6 C :   -0.190217
   7 O :   -0.448327
   8 H :    0.316405
   9 H :    0.115552
  10 H :    0.130606
  11 H :    0.106208
Sum of atomic charges:    0.0000000

LOEWDIN ATOMIC CHARGES
----------------------
   0 C :   -0.147338
   1 O :   -0.001274
   2 H :   -0.000247
   3 H :   -0.087188
   4 H :   -0.054899
   5 H :   -0.007843
   6 C :   -0.317887
   7 O :    0.108385
   8 H :    0.195768
   9 H :    0.090441
  10 H :    0.107831
  11 H :    0.114251

  Mayer bond orders larger than 0.1
B(  6-C ,  7-O ) :   0.9752 B(  6-C ,  9-H ) :   0.9819 B(  6-C , 10-H ) :   0.9736
B(  6-C , 11-H ) :   0.9869 B(  7-O ,  8-H ) :   0.8990

Dispersion correction           -0.000239157
FINAL SINGLE POINT ENERGY      -115.726506528831

DIPOLE MOMENT
-------------
                                X             Y             Z
Electronic contribution:     -0.22980       1.81901      -0.08413
Nuclear contribution   :      0.67958      -2.28210       0.38170
                        -----------------------------------------
Total Dipole Moment    :      0.44979      -0.46309       0.29757
                        -----------------------------------------
Magnitude (a.u.)       :      0.71085
Magnitude (Debye)      :      1.80685

Rotational constants in cm-1:     4.562628     0.808942     0.771503
Rotational constants in MHz : 136784.132588 24251.457223 23129.078301

                             ****ORCA TERMINATED NORMALLY****
TOTAL RUN TIME: 0 days 0 hours 6 minutes 0 seconds 675 msec
