                         Program Version 4.1.2  - RELEASE  -
|  1> #Run DFT-D3 single point of the dimer
|  2> ! wB97X-D3 def2-TZVP TIGHTSCF CHELPG PMODEL PAL8
|  3>
|  4> %base "8-122_DFT_AB"
|  5>
|  6> %scf
|  7> MaxIter 1000
|  8> end
|  9>
| 10> * xyz 0 1
| 11>   C                      -6.308179            -5.387465            -2.161918
| 12>   O                      -4.901234            -5.451709            -1.749648
| 13>   H                      -4.873933            -6.027285            -0.960875
| 14>   H                      -6.791508            -4.616564            -1.659120
| 15>   H                      -6.432112            -5.097386            -3.261564
| 16>   H                      -6.785034            -6.313867            -1.949980
| 17>   C                      -2.777689            -7.211392            -3.956291
| 18>   O                      -3.585356            -6.113868            -4.081193
| 19>   H                      -4.096781            -6.082679            -3.274285
| 20>   H                      -2.257111            -7.294132            -2.998504
| 21>   H                      -3.385381            -8.071290            -4.182716
| 22>   H                      -2.046691            -7.163911            -4.738484
| 23> *
| 24>
| 25> #Run DFT-D3 single point of the molecule with dimer basis set
| 26> $new_job
| 27> %base "8-122_DFT_A"
| 28> ! wB97X-D3 def2-TZVP TIGHTSCF CHELPG PMODEL
| 29>
| 30> %scf
| 31> MaxIter 1000
| 32> end
| 33>
| 34> * xyz 0 1
| 35>   C                      -6.308179            -5.387465            -2.161918
| 36>   O                      -4.901234            -5.451709            -1.749648
| 37>   H                      -4.873933            -6.027285            -0.960875
| 38>   H                      -6.791508            -4.616564            -1.659120
| 39>   H                      -6.432112            -5.097386            -3.261564
| 40>   H                      -6.785034            -6.313867            -1.949980
| 41>   C                    : -2.777689            -7.211392            -3.956291
| 42>   O                    : -3.585356            -6.113868            -4.081193
| 43>   H                    : -4.096781            -6.082679            -3.274285
| 44>   H                    : -2.257111            -7.294132            -2.998504
| 45>   H                    : -3.385381            -8.071290            -4.182716
| 46>   H                    : -2.046691            -7.163911            -4.738484
| 47> *
| 48>
| 49> #Run DFT-D3 single point of the particle with dimer basis set
| 50> $new_job
| 51> %base "8-122_DFT_B"
| 52> ! wB97X-D3 def2-TZVP TIGHTSCF CHELPG PMODEL
| 53>
| 54> %scf
| 55> MaxIter 1000
| 56> end
| 57>
| 58> * xyz 0 1
| 59>   C                    : -6.308179            -5.387465            -2.161918
| 60>   O                    : -4.901234            -5.451709            -1.749648
| 61>   H                    : -4.873933            -6.027285            -0.960875
| 62>   H                    : -6.791508            -4.616564            -1.659120
| 63>   H                    : -6.432112            -5.097386            -3.261564
| 64>   H                    : -6.785034            -6.313867            -1.949980
| 65>   C                      -2.777689            -7.211392            -3.956291
| 66>   O                      -3.585356            -6.113868            -4.081193
| 67>   H                      -4.096781            -6.082679            -3.274285
| 68>   H                      -2.257111            -7.294132            -2.998504
| 69>   H                      -3.385381            -8.071290            -4.182716
| 70>   H                      -2.046691            -7.163911            -4.738484
| 71> *
| 72>
| 73>                          ****END OF INPUT****
 Total Charge           Charge          ....    0
 Multiplicity           Mult            ....    1
 Number of Electrons    NEL             ....   36
Dispersion correction           -0.001781633
FINAL SINGLE POINT ENERGY      -231.470244093856
Dispersion correction           -0.000252693
FINAL SINGLE POINT ENERGY      -115.729547382761

CARTESIAN COORDINATES (ANGSTROEM)
---------------------------------
  C     -6.308179   -5.387465   -2.161918
  O     -4.901234   -5.451709   -1.749648
  H     -4.873933   -6.027285   -0.960875
  H     -6.791508   -4.616564   -1.659120
  H     -6.432112   -5.097386   -3.261564
  H     -6.785034   -6.313867   -1.949980
  C     -2.777689   -7.211392   -3.956291
  O     -3.585356   -6.113868   -4.081193
  H     -4.096781   -6.082679   -3.274285
  H     -2.257111   -7.294132   -2.998504
  H     -3.385381   -8.071290   -4.182716
  H     -2.046691   -7.163911   -4.738484

 Multiplicity           Mult            ....    1
 Number of Electrons    NEL             ....   18
 Basis Dimension        Dim             ....  172

ORBITAL ENERGIES
----------------

  NO   OCC          E(Eh)            E(eV)
   0   2.0000     -19.228841      -523.2434
   1   2.0000     -10.303661      -280.3769
   2   2.0000      -1.153741       -31.3949
   3   2.0000      -0.795309       -21.6414
   4   2.0000      -0.617738       -16.8095
   5   2.0000      -0.554390       -15.0857
   6   2.0000      -0.533206       -14.5093
   7   2.0000      -0.433750       -11.8029
   8   2.0000      -0.370981       -10.0949
   9   0.0000       0.071118         1.9352
  10   0.0000       0.133635         3.6364
  11   0.0000       0.162434         4.4200
  12   0.0000       0.168888         4.5957
  13   0.0000       0.192174         5.2293

MULLIKEN ATOMIC CHARGES
-----------------------
   0 C :   -0.002079
   1 O :   -0.004047
   2 H :   -0.000137
   3 H :   -0.000151
   4 H :   -0.000967
   5 H :    0.000389
   6 C :   -0.156625
   7 O :   -0.455301
   8 H :    0.311419
   9 H :    0.098943
  10 H :    0.098447
  11 H :    0.110110
Sum of atomic charges:   -0.0000000

LOEWDIN ATOMIC CHARGES
----------------------
   0 C :   -0.009358
   1 O :   -0.024963
   2 H :   -0.001520
   3 H :   -0.000198
   4 H :   -0.001769
   5 H :   -0.000244
   6 C :   -0.415398
   7 O :   -0.023738
   8 H :    0.185241
   9 H :    0.095133
  10 H :    0.092916
  11 H :    0.103897

  Mayer bond orders larger than 0.1
B(  6-C ,  7-O ) :   0.9988 B(  6-C ,  9-H ) :   0.9753 B(  6-C , 10-H ) :   0.9860
B(  6-C , 11-H ) :   0.9756 B(  7-O ,  8-H ) :   0.9072

Dispersion correction           -0.000203514
FINAL SINGLE POINT ENERGY      -115.733472993622

DIPOLE MOMENT
-------------
                                X             Y             Z
Electronic contribution:     -0.95895       1.47607      -0.21598
Nuclear contribution   :      0.95397      -1.85695       0.75046
                        -----------------------------------------
Total Dipole Moment    :     -0.00498      -0.38088       0.53447
                        -----------------------------------------
Magnitude (a.u.)       :      0.65632
Magnitude (Debye)      :      1.66824

Rotational constants in cm-1:     4.324418     0.888005     0.856527
Rotational constants in MHz : 129642.792566 26621.712508 25678.028444

                             ****ORCA TERMINATED NORMALLY****
TOTAL RUN TIME: 0 days 0 hours 0 minutes 49 seconds 436 msec
