                         Program Version 4.1.2  - RELEASE  -
|  1> #Run DFT-D3 single point of the dimer
|  2> ! wB97X-D3 def2-TZVP TIGHTSCF CHELPG PMODEL PAL8
|  3>
|  4> %base "4-121_DFT_AB"
|  5>
|  6> %scf
|  7> MaxIter 1000
|  8> end
|  9>
| 10> * xyz 0 1
| 11>   C                      9.259929             9.340491             6.579696
| 12>   O                      8.283990             8.796414             5.726483
| 13>   H                      8.184360             9.462535             4.981736
| 14>   H                      8.917364             9.644283             7.550036
| 15>   H                      10.140764            8.691353             6.699170
| 16>   H                      9.716501             10.227955            6.261082
| 17>   C                      6.954746             7.491548             2.890849
| 18>   O                      6.315243             6.971353             1.717059
| 19>   H                      5.920077             7.735909             1.324826
| 20>   H                      7.605254             6.722106             3.359889
| 21>   H                      7.647488             8.305513             2.508878
| 22>   H                      6.250953             7.862724             3.602146
| 23> *
| 24>
| 25> #Run DFT-D3 single point of the molecule with dimer basis set
| 26> $new_job
| 27> %base "4-121_DFT_A"
| 28> ! wB97X-D3 def2-TZVP TIGHTSCF CHELPG PMODEL
| 29>
| 30> %scf
| 31> MaxIter 1000
| 32> end
| 33>
| 34> * xyz 0 1
| 35>   C                      9.259929             9.340491             6.579696
| 36>   O                      8.283990             8.796414             5.726483
| 37>   H                      8.184360             9.462535             4.981736
| 38>   H                      8.917364             9.644283             7.550036
| 39>   H                      10.140764            8.691353             6.699170
| 40>   H                      9.716501             10.227955            6.261082
| 41>   C                    : 6.954746             7.491548             2.890849
| 42>   O                    : 6.315243             6.971353             1.717059
| 43>   H                    : 5.920077             7.735909             1.324826
| 44>   H                    : 7.605254             6.722106             3.359889
| 45>   H                    : 7.647488             8.305513             2.508878
| 46>   H                    : 6.250953             7.862724             3.602146
| 47> *
| 48>
| 49> #Run DFT-D3 single point of the particle with dimer basis set
| 50> $new_job
| 51> %base "4-121_DFT_B"
| 52> ! wB97X-D3 def2-TZVP TIGHTSCF CHELPG PMODEL
| 53>
| 54> %scf
| 55> MaxIter 1000
| 56> end
| 57>
| 58> * xyz 0 1
| 59>   C                    : 9.259929             9.340491             6.579696
| 60>   O                    : 8.283990             8.796414             5.726483
| 61>   H                    : 8.184360             9.462535             4.981736
| 62>   H                    : 8.917364             9.644283             7.550036
| 63>   H                    : 10.140764            8.691353             6.699170
| 64>   H                    : 9.716501             10.227955            6.261082
| 65>   C                      6.954746             7.491548             2.890849
| 66>   O                      6.315243             6.971353             1.717059
| 67>   H                      5.920077             7.735909             1.324826
| 68>   H                      7.605254             6.722106             3.359889
| 69>   H                      7.647488             8.305513             2.508878
| 70>   H                      6.250953             7.862724             3.602146
| 71> *
| 72>
| 73>                          ****END OF INPUT****
 Total Charge           Charge          ....    0
 Multiplicity           Mult            ....    1
 Number of Electrons    NEL             ....   36
Dispersion correction           -0.001443477
FINAL SINGLE POINT ENERGY      -231.461931532726
Dispersion correction           -0.000254936
FINAL SINGLE POINT ENERGY      -115.727797597768

CARTESIAN COORDINATES (ANGSTROEM)
---------------------------------
  C      9.259929    9.340491    6.579696
  O      8.283990    8.796414    5.726483
  H      8.184360    9.462535    4.981736
  H      8.917364    9.644283    7.550036
  H     10.140764    8.691353    6.699170
  H      9.716501   10.227955    6.261082
  C      6.954746    7.491548    2.890849
  O      6.315243    6.971353    1.717059
  H      5.920077    7.735909    1.324826
  H      7.605254    6.722106    3.359889
  H      7.647488    8.305513    2.508878
  H      6.250953    7.862724    3.602146

 Multiplicity           Mult            ....    1
 Number of Electrons    NEL             ....   18
 Basis Dimension        Dim             ....  172

ORBITAL ENERGIES
----------------

  NO   OCC          E(Eh)            E(eV)
   0   2.0000     -19.227850      -523.2164
   1   2.0000     -10.318352      -280.7766
   2   2.0000      -1.135428       -30.8966
   3   2.0000      -0.791995       -21.5513
   4   2.0000      -0.604328       -16.4446
   5   2.0000      -0.546650       -14.8751
   6   2.0000      -0.524256       -14.2657
   7   2.0000      -0.435314       -11.8455
   8   2.0000      -0.374206       -10.1827
   9   0.0000       0.082303         2.2396
  10   0.0000       0.115026         3.1300
  11   0.0000       0.139899         3.8069
  12   0.0000       0.182609         4.9690
  13   0.0000       0.190576         5.1858

MULLIKEN ATOMIC CHARGES
-----------------------
   0 C :    0.000147
   1 O :    0.000407
   2 H :   -0.001351
   3 H :   -0.000004
   4 H :   -0.000006
   5 H :   -0.000017
   6 C :   -0.182999
   7 O :   -0.469995
   8 H :    0.311329
   9 H :    0.124725
  10 H :    0.104358
  11 H :    0.113407
Sum of atomic charges:   -0.0000000

LOEWDIN ATOMIC CHARGES
----------------------
   0 C :   -0.000069
   1 O :   -0.001314
   2 H :   -0.002641
   3 H :   -0.000001
   4 H :   -0.000003
   5 H :   -0.000001
   6 C :   -0.373965
   7 O :   -0.087873
   8 H :    0.158911
   9 H :    0.112575
  10 H :    0.105228
  11 H :    0.089153

  Mayer bond orders larger than 0.1
B(  6-C ,  7-O ) :   0.9953 B(  6-C ,  9-H ) :   0.9699 B(  6-C , 10-H ) :   0.9860
B(  6-C , 11-H ) :   0.9672 B(  7-O ,  8-H ) :   0.9055

Dispersion correction           -0.000225224
FINAL SINGLE POINT ENERGY      -115.732990629276

DIPOLE MOMENT
-------------
                                X             Y             Z
Electronic contribution:     -0.86133      -0.83683      -1.33022
Nuclear contribution   :      0.86961       1.51190       1.56151
                        -----------------------------------------
Total Dipole Moment    :      0.00828       0.67507       0.23129
                        -----------------------------------------
Magnitude (a.u.)       :      0.71364
Magnitude (Debye)      :      1.81393

Rotational constants in cm-1:     4.153609     0.820095     0.793437
Rotational constants in MHz : 124522.050298 24585.835373 23786.628335

                             ****ORCA TERMINATED NORMALLY****
TOTAL RUN TIME: 0 days 0 hours 1 minutes 29 seconds 127 msec
