                         Program Version 4.1.2  - RELEASE  -
|  1> #Run DFT-D3 single point of the dimer
|  2> ! wB97X-D3 def2-TZVP TIGHTSCF CHELPG PMODEL PAL8
|  3>
|  4> %base "6-27_DFT_AB"
|  5>
|  6> %scf
|  7> MaxIter 1000
|  8> end
|  9>
| 10> * xyz 0 1
| 11>   C                      -0.715228            1.050743             2.453242
| 12>   O                      -1.854007            0.340821             2.144338
| 13>   H                      -2.633239            0.803480             2.639829
| 14>   H                      -0.871798            2.130612             2.284487
| 15>   H                      -0.449429            0.971583             3.539397
| 16>   H                      0.102194             0.804007             1.757111
| 17>   C                      -2.171371            1.210980             -1.291962
| 18>   O                      -1.124806            0.335572             -0.919044
| 19>   H                      -1.156483            0.292127             0.030969
| 20>   H                      -3.187437            0.743316             -1.077134
| 21>   H                      -2.104394            2.179059             -0.764348
| 22>   H                      -2.061460            1.468400             -2.375990
| 23> *
| 24>
| 25> #Run DFT-D3 single point of the molecule with dimer basis set
| 26> $new_job
| 27> %base "6-27_DFT_A"
| 28> ! wB97X-D3 def2-TZVP TIGHTSCF CHELPG PMODEL
| 29>
| 30> %scf
| 31> MaxIter 1000
| 32> end
| 33>
| 34> * xyz 0 1
| 35>   C                      -0.715228            1.050743             2.453242
| 36>   O                      -1.854007            0.340821             2.144338
| 37>   H                      -2.633239            0.803480             2.639829
| 38>   H                      -0.871798            2.130612             2.284487
| 39>   H                      -0.449429            0.971583             3.539397
| 40>   H                      0.102194             0.804007             1.757111
| 41>   C                    : -2.171371            1.210980             -1.291962
| 42>   O                    : -1.124806            0.335572             -0.919044
| 43>   H                    : -1.156483            0.292127             0.030969
| 44>   H                    : -3.187437            0.743316             -1.077134
| 45>   H                    : -2.104394            2.179059             -0.764348
| 46>   H                    : -2.061460            1.468400             -2.375990
| 47> *
| 48>
| 49> #Run DFT-D3 single point of the particle with dimer basis set
| 50> $new_job
| 51> %base "6-27_DFT_B"
| 52> ! wB97X-D3 def2-TZVP TIGHTSCF CHELPG PMODEL
| 53>
| 54> %scf
| 55> MaxIter 1000
| 56> end
| 57>
| 58> * xyz 0 1
| 59>   C                    : -0.715228            1.050743             2.453242
| 60>   O                    : -1.854007            0.340821             2.144338
| 61>   H                    : -2.633239            0.803480             2.639829
| 62>   H                    : -0.871798            2.130612             2.284487
| 63>   H                    : -0.449429            0.971583             3.539397
| 64>   H                    : 0.102194             0.804007             1.757111
| 65>   C                      -2.171371            1.210980             -1.291962
| 66>   O                      -1.124806            0.335572             -0.919044
| 67>   H                      -1.156483            0.292127             0.030969
| 68>   H                      -3.187437            0.743316             -1.077134
| 69>   H                      -2.104394            2.179059             -0.764348
| 70>   H                      -2.061460            1.468400             -2.375990
| 71> *
| 72>
| 73>                          ****END OF INPUT****
 Total Charge           Charge          ....    0
 Multiplicity           Mult            ....    1
 Number of Electrons    NEL             ....   36
Dispersion correction           -0.002042500
FINAL SINGLE POINT ENERGY      -231.470441383069
Dispersion correction           -0.000228270
FINAL SINGLE POINT ENERGY      -115.729462179723

CARTESIAN COORDINATES (ANGSTROEM)
---------------------------------
  C     -0.715228    1.050743    2.453242
  O     -1.854007    0.340821    2.144338
  H     -2.633239    0.803480    2.639829
  H     -0.871798    2.130612    2.284487
  H     -0.449429    0.971583    3.539397
  H      0.102194    0.804007    1.757111
  C     -2.171371    1.210980   -1.291962
  O     -1.124806    0.335572   -0.919044
  H     -1.156483    0.292127    0.030969
  H     -3.187437    0.743316   -1.077134
  H     -2.104394    2.179059   -0.764348
  H     -2.061460    1.468400   -2.375990

 Multiplicity           Mult            ....    1
 Number of Electrons    NEL             ....   18
 Basis Dimension        Dim             ....  172

ORBITAL ENERGIES
----------------

  NO   OCC          E(Eh)            E(eV)
   0   2.0000     -19.232301      -523.3375
   1   2.0000     -10.322178      -280.8807
   2   2.0000      -1.140949       -31.0468
   3   2.0000      -0.789184       -21.4748
   4   2.0000      -0.610613       -16.6156
   5   2.0000      -0.541028       -14.7221
   6   2.0000      -0.523468       -14.2443
   7   2.0000      -0.435698       -11.8560
   8   2.0000      -0.374772       -10.1981
   9   0.0000       0.068265         1.8576
  10   0.0000       0.136600         3.7171
  11   0.0000       0.150813         4.1038
  12   0.0000       0.158595         4.3156
  13   0.0000       0.185359         5.0439

MULLIKEN ATOMIC CHARGES
-----------------------
   0 C :   -0.006075
   1 O :   -0.000489
   2 H :    0.000012
   3 H :    0.000621
   4 H :   -0.000308
   5 H :   -0.002229
   6 C :   -0.179010
   7 O :   -0.456612
   8 H :    0.310608
   9 H :    0.102908
  10 H :    0.106340
  11 H :    0.124233
Sum of atomic charges:    0.0000000

LOEWDIN ATOMIC CHARGES
----------------------
   0 C :   -0.009433
   1 O :   -0.007813
   2 H :   -0.000301
   3 H :   -0.000382
   4 H :   -0.000152
   5 H :   -0.003927
   6 C :   -0.395575
   7 O :   -0.061885
   8 H :    0.168252
   9 H :    0.101944
  10 H :    0.095449
  11 H :    0.113823

  Mayer bond orders larger than 0.1
B(  6-C ,  7-O ) :   0.9929 B(  6-C ,  9-H ) :   0.9754 B(  6-C , 10-H ) :   0.9707
B(  6-C , 11-H ) :   0.9723 B(  7-O ,  8-H ) :   0.9136

Dispersion correction           -0.000241943
FINAL SINGLE POINT ENERGY      -115.735586343133

DIPOLE MOMENT
-------------
                                X             Y             Z
Electronic contribution:      1.40660      -1.17377       0.33126
Nuclear contribution   :     -1.80926       1.50186       0.10836
                        -----------------------------------------
Total Dipole Moment    :     -0.40265       0.32808       0.43962
                        -----------------------------------------
Magnitude (a.u.)       :      0.68046
Magnitude (Debye)      :      1.72960

Rotational constants in cm-1:     4.103499     0.828662     0.800642
Rotational constants in MHz : 123019.801664 24842.651484 24002.636842

                             ****ORCA TERMINATED NORMALLY****
TOTAL RUN TIME: 0 days 0 hours 1 minutes 8 seconds 679 msec
