                         Program Version 4.1.2  - RELEASE  -
|  1> #Run DFT-D3 single point of the dimer
|  2> ! wB97X-D3 def2-TZVP TIGHTSCF CHELPG PMODEL PAL8
|  3>
|  4> %base "2-95_DFT_AB"
|  5>
|  6> %scf
|  7> MaxIter 1000
|  8> end
|  9>
| 10> * xyz 0 1
| 11>   C                      10.131559            -0.929883            -3.069840
| 12>   O                      8.749478             -0.835584            -3.413896
| 13>   H                      8.295501             -1.609561            -3.197512
| 14>   H                      10.881002            -1.133662            -3.916814
| 15>   H                      10.518113            -0.027949            -2.527007
| 16>   H                      10.152257            -1.698416            -2.209900
| 17>   C                      9.970303             2.547988             -1.955222
| 18>   O                      11.124587            1.796867             -2.009329
| 19>   H                      11.460932            1.481587             -2.840544
| 20>   H                      9.207894             2.121664             -2.571068
| 21>   H                      9.617390             2.723581             -0.932174
| 22>   H                      10.100876            3.577035             -2.388590
| 23> *
| 24>
| 25> #Run DFT-D3 single point of the molecule with dimer basis set
| 26> $new_job
| 27> %base "2-95_DFT_A"
| 28> ! wB97X-D3 def2-TZVP TIGHTSCF CHELPG PMODEL
| 29>
| 30> %scf
| 31> MaxIter 1000
| 32> end
| 33>
| 34> * xyz 0 1
| 35>   C                      10.131559            -0.929883            -3.069840
| 36>   O                      8.749478             -0.835584            -3.413896
| 37>   H                      8.295501             -1.609561            -3.197512
| 38>   H                      10.881002            -1.133662            -3.916814
| 39>   H                      10.518113            -0.027949            -2.527007
| 40>   H                      10.152257            -1.698416            -2.209900
| 41>   C                    : 9.970303             2.547988             -1.955222
| 42>   O                    : 11.124587            1.796867             -2.009329
| 43>   H                    : 11.460932            1.481587             -2.840544
| 44>   H                    : 9.207894             2.121664             -2.571068
| 45>   H                    : 9.617390             2.723581             -0.932174
| 46>   H                    : 10.100876            3.577035             -2.388590
| 47> *
| 48>
| 49> #Run DFT-D3 single point of the particle with dimer basis set
| 50> $new_job
| 51> %base "2-95_DFT_B"
| 52> ! wB97X-D3 def2-TZVP TIGHTSCF CHELPG PMODEL
| 53>
| 54> %scf
| 55> MaxIter 1000
| 56> end
| 57>
| 58> * xyz 0 1
| 59>   C                    : 10.131559            -0.929883            -3.069840
| 60>   O                    : 8.749478             -0.835584            -3.413896
| 61>   H                    : 8.295501             -1.609561            -3.197512
| 62>   H                    : 10.881002            -1.133662            -3.916814
| 63>   H                    : 10.518113            -0.027949            -2.527007
| 64>   H                    : 10.152257            -1.698416            -2.209900
| 65>   C                      9.970303             2.547988             -1.955222
| 66>   O                      11.124587            1.796867             -2.009329
| 67>   H                      11.460932            1.481587             -2.840544
| 68>   H                      9.207894             2.121664             -2.571068
| 69>   H                      9.617390             2.723581             -0.932174
| 70>   H                      10.100876            3.577035             -2.388590
| 71> *
| 72>
| 73>                          ****END OF INPUT****
 Total Charge           Charge          ....    0
 Multiplicity           Mult            ....    1
 Number of Electrons    NEL             ....   36
Dispersion correction           -0.001985222
FINAL SINGLE POINT ENERGY      -231.452728456613
Dispersion correction           -0.000278317
FINAL SINGLE POINT ENERGY      -115.724414697495

CARTESIAN COORDINATES (ANGSTROEM)
---------------------------------
  C     10.131559   -0.929883   -3.069840
  O      8.749478   -0.835584   -3.413896
  H      8.295501   -1.609561   -3.197512
  H     10.881002   -1.133662   -3.916814
  H     10.518113   -0.027949   -2.527007
  H     10.152257   -1.698416   -2.209900
  C      9.970303    2.547988   -1.955222
  O     11.124587    1.796867   -2.009329
  H     11.460932    1.481587   -2.840544
  H      9.207894    2.121664   -2.571068
  H      9.617390    2.723581   -0.932174
  H     10.100876    3.577035   -2.388590

 Multiplicity           Mult            ....    1
 Number of Electrons    NEL             ....   18
 Basis Dimension        Dim             ....  172

ORBITAL ENERGIES
----------------

  NO   OCC          E(Eh)            E(eV)
   0   2.0000     -19.226913      -523.1909
   1   2.0000     -10.312991      -280.6308
   2   2.0000      -1.142357       -31.0851
   3   2.0000      -0.802208       -21.8292
   4   2.0000      -0.625268       -17.0144
   5   2.0000      -0.544733       -14.8229
   6   2.0000      -0.531462       -14.4618
   7   2.0000      -0.420346       -11.4382
   8   2.0000      -0.367841       -10.0095
   9   0.0000       0.083228         2.2648
  10   0.0000       0.133479         3.6321
  11   0.0000       0.145710         3.9650
  12   0.0000       0.180863         4.9215
  13   0.0000       0.191967         5.2237

MULLIKEN ATOMIC CHARGES
-----------------------
   0 C :    0.005885
   1 O :   -0.000127
   2 H :   -0.000042
   3 H :    0.001028
   4 H :   -0.028987
   5 H :   -0.002026
   6 C :   -0.137893
   7 O :   -0.478721
   8 H :    0.327514
   9 H :    0.101762
  10 H :    0.120776
  11 H :    0.090830
Sum of atomic charges:   -0.0000000

LOEWDIN ATOMIC CHARGES
----------------------
   0 C :   -0.014562
   1 O :   -0.000632
   2 H :   -0.000028
   3 H :   -0.000443
   4 H :   -0.036571
   5 H :   -0.000351
   6 C :   -0.402799
   7 O :   -0.013357
   8 H :    0.170110
   9 H :    0.090127
  10 H :    0.110841
  11 H :    0.097667

  Mayer bond orders larger than 0.1
B(  6-C ,  7-O ) :   0.9883 B(  6-C ,  9-H ) :   0.9812 B(  6-C , 10-H ) :   0.9718
B(  6-C , 11-H ) :   0.9761 B(  7-O ,  8-H ) :   0.8846

Dispersion correction           -0.000255348
FINAL SINGLE POINT ENERGY      -115.731201322920

DIPOLE MOMENT
-------------
                                X             Y             Z
Electronic contribution:      1.49766      -1.07050       0.11079
Nuclear contribution   :     -1.73968       1.16574      -0.64612
                        -----------------------------------------
Total Dipole Moment    :     -0.24201       0.09524      -0.53533
                        -----------------------------------------
Magnitude (a.u.)       :      0.59516
Magnitude (Debye)      :      1.51279

Rotational constants in cm-1:     4.548988     0.846738     0.816024
Rotational constants in MHz : 136375.216886 25384.566094 24463.779197

                             ****ORCA TERMINATED NORMALLY****
TOTAL RUN TIME: 0 days 0 hours 6 minutes 24 seconds 292 msec
