                         Program Version 4.1.2  - RELEASE  -
|  1> #Run DFT-D3 single point of the dimer
|  2> ! wB97X-D3 def2-TZVP TIGHTSCF CHELPG PMODEL PAL8
|  3>
|  4> %base "17-23_DFT_AB"
|  5>
|  6> %scf
|  7> MaxIter 1000
|  8> end
|  9>
| 10> * xyz 0 1
| 11>   C                      -1.552654            -0.347999            4.263472
| 12>   O                      -0.675985            -0.786314            3.238730
| 13>   H                      -1.311521            -0.903148            2.507645
| 14>   H                      -1.893925            0.644904             3.934240
| 15>   H                      -2.420135            -0.936720            4.503697
| 16>   H                      -1.047543            -0.169033            5.200596
| 17>   C                      2.446534             -0.957080            0.953767
| 18>   O                      2.263740             0.339248             0.481250
| 19>   H                      1.355955             0.315129             0.097831
| 20>   H                      3.538243             -1.159601            1.151109
| 21>   H                      1.993574             -1.125897            1.934658
| 22>   H                      2.053428             -1.697646            0.202763
| 23> *
| 24>
| 25> #Run DFT-D3 single point of the molecule with dimer basis set
| 26> $new_job
| 27> %base "17-23_DFT_A"
| 28> ! wB97X-D3 def2-TZVP TIGHTSCF CHELPG PMODEL
| 29>
| 30> %scf
| 31> MaxIter 1000
| 32> end
| 33>
| 34> * xyz 0 1
| 35>   C                      -1.552654            -0.347999            4.263472
| 36>   O                      -0.675985            -0.786314            3.238730
| 37>   H                      -1.311521            -0.903148            2.507645
| 38>   H                      -1.893925            0.644904             3.934240
| 39>   H                      -2.420135            -0.936720            4.503697
| 40>   H                      -1.047543            -0.169033            5.200596
| 41>   C                    : 2.446534             -0.957080            0.953767
| 42>   O                    : 2.263740             0.339248             0.481250
| 43>   H                    : 1.355955             0.315129             0.097831
| 44>   H                    : 3.538243             -1.159601            1.151109
| 45>   H                    : 1.993574             -1.125897            1.934658
| 46>   H                    : 2.053428             -1.697646            0.202763
| 47> *
| 48>
| 49> #Run DFT-D3 single point of the particle with dimer basis set
| 50> $new_job
| 51> %base "17-23_DFT_B"
| 52> ! wB97X-D3 def2-TZVP TIGHTSCF CHELPG PMODEL
| 53>
| 54> %scf
| 55> MaxIter 1000
| 56> end
| 57>
| 58> * xyz 0 1
| 59>   C                    : -1.552654            -0.347999            4.263472
| 60>   O                    : -0.675985            -0.786314            3.238730
| 61>   H                    : -1.311521            -0.903148            2.507645
| 62>   H                    : -1.893925            0.644904             3.934240
| 63>   H                    : -2.420135            -0.936720            4.503697
| 64>   H                    : -1.047543            -0.169033            5.200596
| 65>   C                      2.446534             -0.957080            0.953767
| 66>   O                      2.263740             0.339248             0.481250
| 67>   H                      1.355955             0.315129             0.097831
| 68>   H                      3.538243             -1.159601            1.151109
| 69>   H                      1.993574             -1.125897            1.934658
| 70>   H                      2.053428             -1.697646            0.202763
| 71> *
| 72>
| 73>                          ****END OF INPUT****
 Total Charge           Charge          ....    0
 Multiplicity           Mult            ....    1
 Number of Electrons    NEL             ....   36
Dispersion correction           -0.001119415
FINAL SINGLE POINT ENERGY      -231.464604691402
Dispersion correction           -0.000224197
FINAL SINGLE POINT ENERGY      -115.730992127833

CARTESIAN COORDINATES (ANGSTROEM)
---------------------------------
  C     -1.552654   -0.347999    4.263472
  O     -0.675985   -0.786314    3.238730
  H     -1.311521   -0.903148    2.507645
  H     -1.893925    0.644904    3.934240
  H     -2.420135   -0.936720    4.503697
  H     -1.047543   -0.169033    5.200596
  C      2.446534   -0.957080    0.953767
  O      2.263740    0.339248    0.481250
  H      1.355955    0.315129    0.097831
  H      3.538243   -1.159601    1.151109
  H      1.993574   -1.125897    1.934658
  H      2.053428   -1.697646    0.202763

 Multiplicity           Mult            ....    1
 Number of Electrons    NEL             ....   18
 Basis Dimension        Dim             ....  172

ORBITAL ENERGIES
----------------

  NO   OCC          E(Eh)            E(eV)
   0   2.0000     -19.235126      -523.4144
   1   2.0000     -10.317540      -280.7545
   2   2.0000      -1.142978       -31.1020
   3   2.0000      -0.785228       -21.3671
   4   2.0000      -0.610020       -16.5995
   5   2.0000      -0.545646       -14.8478
   6   2.0000      -0.526429       -14.3249
   7   2.0000      -0.432484       -11.7685
   8   2.0000      -0.372210       -10.1284
   9   0.0000       0.079135         2.1534
  10   0.0000       0.111661         3.0384
  11   0.0000       0.151681         4.1274
  12   0.0000       0.169074         4.6007
  13   0.0000       0.184555         5.0220

MULLIKEN ATOMIC CHARGES
-----------------------
   0 C :    0.000129
   1 O :    0.000347
   2 H :   -0.000010
   3 H :   -0.000006
   4 H :   -0.000004
   5 H :   -0.000027
   6 C :   -0.170103
   7 O :   -0.460458
   8 H :    0.318625
   9 H :    0.114824
  10 H :    0.097394
  11 H :    0.099288
Sum of atomic charges:    0.0000000

LOEWDIN ATOMIC CHARGES
----------------------
   0 C :   -0.000111
   1 O :   -0.001415
   2 H :   -0.000216
   3 H :   -0.000004
   4 H :   -0.000002
   5 H :   -0.000010
   6 C :   -0.418672
   7 O :   -0.071772
   8 H :    0.189523
   9 H :    0.112104
  10 H :    0.090765
  11 H :    0.099809

  Mayer bond orders larger than 0.1
B(  6-C ,  7-O ) :   1.0104 B(  6-C ,  9-H ) :   0.9740 B(  6-C , 10-H ) :   0.9692
B(  6-C , 11-H ) :   0.9832 B(  7-O ,  8-H ) :   0.8958

Dispersion correction           -0.000232080
FINAL SINGLE POINT ENERGY      -115.732941435796

DIPOLE MOMENT
-------------
                                X             Y             Z
Electronic contribution:     -0.13523       1.80079      -0.58870
Nuclear contribution   :     -0.35140      -2.28803       0.53050
                        -----------------------------------------
Total Dipole Moment    :     -0.48662      -0.48724      -0.05820
                        -----------------------------------------
Magnitude (a.u.)       :      0.69108
Magnitude (Debye)      :      1.75659

Rotational constants in cm-1:     4.101869     0.854491     0.815643
Rotational constants in MHz : 122970.943263 25617.008128 24452.367353

                             ****ORCA TERMINATED NORMALLY****
TOTAL RUN TIME: 0 days 0 hours 1 minutes 2 seconds 212 msec
