                         Program Version 4.1.2  - RELEASE  -
|  1> #Run DFT-D3 single point of the dimer
|  2> ! wB97X-D3 def2-TZVP TIGHTSCF CHELPG PMODEL PAL8
|  3>
|  4> %base "15-123_DFT_AB"
|  5>
|  6> %scf
|  7> MaxIter 1000
|  8> end
|  9>
| 10> * xyz 0 1
| 11>   C                      9.206192             2.657361             9.113873
| 12>   O                      9.537454             1.298386             9.106032
| 13>   H                      8.908156             0.835783             9.650586
| 14>   H                      8.438459             2.799997             9.832986
| 15>   H                      10.148782            3.218785             9.394563
| 16>   H                      8.796245             2.992167             8.167669
| 17>   C                      8.333353             5.513837             5.380126
| 18>   O                      9.205957             5.227535             6.419786
| 19>   H                      8.747401             5.686495             7.167722
| 20>   H                      7.288762             5.499684             5.703675
| 21>   H                      8.573081             6.488046             4.882362
| 22>   H                      8.373617             4.670108             4.635545
| 23> *
| 24>
| 25> #Run DFT-D3 single point of the molecule with dimer basis set
| 26> $new_job
| 27> %base "15-123_DFT_A"
| 28> ! wB97X-D3 def2-TZVP TIGHTSCF CHELPG PMODEL
| 29>
| 30> %scf
| 31> MaxIter 1000
| 32> end
| 33>
| 34> * xyz 0 1
| 35>   C                      9.206192             2.657361             9.113873
| 36>   O                      9.537454             1.298386             9.106032
| 37>   H                      8.908156             0.835783             9.650586
| 38>   H                      8.438459             2.799997             9.832986
| 39>   H                      10.148782            3.218785             9.394563
| 40>   H                      8.796245             2.992167             8.167669
| 41>   C                    : 8.333353             5.513837             5.380126
| 42>   O                    : 9.205957             5.227535             6.419786
| 43>   H                    : 8.747401             5.686495             7.167722
| 44>   H                    : 7.288762             5.499684             5.703675
| 45>   H                    : 8.573081             6.488046             4.882362
| 46>   H                    : 8.373617             4.670108             4.635545
| 47> *
| 48>
| 49> #Run DFT-D3 single point of the particle with dimer basis set
| 50> $new_job
| 51> %base "15-123_DFT_B"
| 52> ! wB97X-D3 def2-TZVP TIGHTSCF CHELPG PMODEL
| 53>
| 54> %scf
| 55> MaxIter 1000
| 56> end
| 57>
| 58> * xyz 0 1
| 59>   C                    : 9.206192             2.657361             9.113873
| 60>   O                    : 9.537454             1.298386             9.106032
| 61>   H                    : 8.908156             0.835783             9.650586
| 62>   H                    : 8.438459             2.799997             9.832986
| 63>   H                    : 10.148782            3.218785             9.394563
| 64>   H                    : 8.796245             2.992167             8.167669
| 65>   C                      8.333353             5.513837             5.380126
| 66>   O                      9.205957             5.227535             6.419786
| 67>   H                      8.747401             5.686495             7.167722
| 68>   H                      7.288762             5.499684             5.703675
| 69>   H                      8.573081             6.488046             4.882362
| 70>   H                      8.373617             4.670108             4.635545
| 71> *
| 72>
| 73>                          ****END OF INPUT****
 Total Charge           Charge          ....    0
 Multiplicity           Mult            ....    1
 Number of Electrons    NEL             ....   36
Dispersion correction           -0.001247334
FINAL SINGLE POINT ENERGY      -231.464578463562
Dispersion correction           -0.000228857
FINAL SINGLE POINT ENERGY      -115.732358325661

CARTESIAN COORDINATES (ANGSTROEM)
---------------------------------
  C      9.206192    2.657361    9.113873
  O      9.537454    1.298386    9.106032
  H      8.908156    0.835783    9.650586
  H      8.438459    2.799997    9.832986
  H     10.148782    3.218785    9.394563
  H      8.796245    2.992167    8.167669
  C      8.333353    5.513837    5.380126
  O      9.205957    5.227535    6.419786
  H      8.747401    5.686495    7.167722
  H      7.288762    5.499684    5.703675
  H      8.573081    6.488046    4.882362
  H      8.373617    4.670108    4.635545

 Multiplicity           Mult            ....    1
 Number of Electrons    NEL             ....   18
 Basis Dimension        Dim             ....  172

ORBITAL ENERGIES
----------------

  NO   OCC          E(Eh)            E(eV)
   0   2.0000     -19.237179      -523.4703
   1   2.0000     -10.316951      -280.7385
   2   2.0000      -1.146738       -31.2043
   3   2.0000      -0.783992       -21.3335
   4   2.0000      -0.613333       -16.6896
   5   2.0000      -0.548279       -14.9194
   6   2.0000      -0.524164       -14.2632
   7   2.0000      -0.433589       -11.7986
   8   2.0000      -0.374912       -10.2019
   9   0.0000       0.089037         2.4228
  10   0.0000       0.116486         3.1698
  11   0.0000       0.151203         4.1144
  12   0.0000       0.184760         5.0276
  13   0.0000       0.189533         5.1575

MULLIKEN ATOMIC CHARGES
-----------------------
   0 C :    0.003592
   1 O :   -0.000171
   2 H :   -0.000039
   3 H :   -0.000158
   4 H :   -0.000250
   5 H :   -0.011247
   6 C :   -0.180358
   7 O :   -0.449458
   8 H :    0.320356
   9 H :    0.104568
  10 H :    0.100622
  11 H :    0.112543
Sum of atomic charges:   -0.0000000

LOEWDIN ATOMIC CHARGES
----------------------
   0 C :   -0.003853
   1 O :   -0.000026
   2 H :   -0.000008
   3 H :   -0.000034
   4 H :   -0.000243
   5 H :   -0.007187
   6 C :   -0.425089
   7 O :   -0.061280
   8 H :    0.194962
   9 H :    0.093510
  10 H :    0.098426
  11 H :    0.110823

  Mayer bond orders larger than 0.1
B(  6-C ,  7-O ) :   1.0051 B(  6-C ,  9-H ) :   0.9826 B(  6-C , 10-H ) :   0.9672
B(  6-C , 11-H ) :   0.9765 B(  7-O ,  8-H ) :   0.8954

Dispersion correction           -0.000225492
FINAL SINGLE POINT ENERGY      -115.731810653497

DIPOLE MOMENT
-------------
                                X             Y             Z
Electronic contribution:      1.30064      -0.39861       1.31814
Nuclear contribution   :     -1.91593       0.77121      -1.22827
                        -----------------------------------------
Total Dipole Moment    :     -0.61529       0.37260       0.08987
                        -----------------------------------------
Magnitude (a.u.)       :      0.72491
Magnitude (Debye)      :      1.84257

Rotational constants in cm-1:     4.065057     0.858539     0.830681
Rotational constants in MHz : 121867.348847 25738.349244 24903.183651

                             ****ORCA TERMINATED NORMALLY****
TOTAL RUN TIME: 0 days 0 hours 0 minutes 57 seconds 628 msec
