                         Program Version 4.1.2  - RELEASE  -
|  1> #Run DFT-D3 single point of the dimer
|  2> ! wB97X-D3 def2-TZVP TIGHTSCF CHELPG PMODEL PAL8
|  3>
|  4> %base "5-50_DFT_AB"
|  5>
|  6> %scf
|  7> MaxIter 1000
|  8> end
|  9>
| 10> * xyz 0 1
| 11>   C                      -2.327879            -1.689422            -8.778547
| 12>   O                      -1.414397            -2.216028            -7.842568
| 13>   H                      -1.431879            -3.135477            -8.159358
| 14>   H                      -1.907718            -1.481460            -9.705796
| 15>   H                      -3.138934            -2.311804            -8.966968
| 16>   H                      -2.843604            -0.810400            -8.339234
| 17>   C                      2.353081             -0.880350            -6.504355
| 18>   O                      1.661441             0.076911             -7.250293
| 19>   H                      1.107674             0.525825             -6.662091
| 20>   H                      1.606776             -1.531496            -6.087425
| 21>   H                      2.995200             -1.478688            -7.120673
| 22>   H                      2.889406             -0.455719            -5.641669
| 23> *
| 24>
| 25> #Run DFT-D3 single point of the molecule with dimer basis set
| 26> $new_job
| 27> %base "5-50_DFT_A"
| 28> ! wB97X-D3 def2-TZVP TIGHTSCF CHELPG PMODEL
| 29>
| 30> %scf
| 31> MaxIter 1000
| 32> end
| 33>
| 34> * xyz 0 1
| 35>   C                      -2.327879            -1.689422            -8.778547
| 36>   O                      -1.414397            -2.216028            -7.842568
| 37>   H                      -1.431879            -3.135477            -8.159358
| 38>   H                      -1.907718            -1.481460            -9.705796
| 39>   H                      -3.138934            -2.311804            -8.966968
| 40>   H                      -2.843604            -0.810400            -8.339234
| 41>   C                    : 2.353081             -0.880350            -6.504355
| 42>   O                    : 1.661441             0.076911             -7.250293
| 43>   H                    : 1.107674             0.525825             -6.662091
| 44>   H                    : 1.606776             -1.531496            -6.087425
| 45>   H                    : 2.995200             -1.478688            -7.120673
| 46>   H                    : 2.889406             -0.455719            -5.641669
| 47> *
| 48>
| 49> #Run DFT-D3 single point of the particle with dimer basis set
| 50> $new_job
| 51> %base "5-50_DFT_B"
| 52> ! wB97X-D3 def2-TZVP TIGHTSCF CHELPG PMODEL
| 53>
| 54> %scf
| 55> MaxIter 1000
| 56> end
| 57>
| 58> * xyz 0 1
| 59>   C                    : -2.327879            -1.689422            -8.778547
| 60>   O                    : -1.414397            -2.216028            -7.842568
| 61>   H                    : -1.431879            -3.135477            -8.159358
| 62>   H                    : -1.907718            -1.481460            -9.705796
| 63>   H                    : -3.138934            -2.311804            -8.966968
| 64>   H                    : -2.843604            -0.810400            -8.339234
| 65>   C                      2.353081             -0.880350            -6.504355
| 66>   O                      1.661441             0.076911             -7.250293
| 67>   H                      1.107674             0.525825             -6.662091
| 68>   H                      1.606776             -1.531496            -6.087425
| 69>   H                      2.995200             -1.478688            -7.120673
| 70>   H                      2.889406             -0.455719            -5.641669
| 71> *
| 72>
| 73>                          ****END OF INPUT****
 Total Charge           Charge          ....    0
 Multiplicity           Mult            ....    1
 Number of Electrons    NEL             ....   36
Dispersion correction           -0.000958346
FINAL SINGLE POINT ENERGY      -231.460255018913
Dispersion correction           -0.000207047
FINAL SINGLE POINT ENERGY      -115.726691035070

CARTESIAN COORDINATES (ANGSTROEM)
---------------------------------
  C     -2.327879   -1.689422   -8.778547
  O     -1.414397   -2.216028   -7.842568
  H     -1.431879   -3.135477   -8.159358
  H     -1.907718   -1.481460   -9.705796
  H     -3.138934   -2.311804   -8.966968
  H     -2.843604   -0.810400   -8.339234
  C      2.353081   -0.880350   -6.504355
  O      1.661441    0.076911   -7.250293
  H      1.107674    0.525825   -6.662091
  H      1.606776   -1.531496   -6.087425
  H      2.995200   -1.478688   -7.120673
  H      2.889406   -0.455719   -5.641669

 Multiplicity           Mult            ....    1
 Number of Electrons    NEL             ....   18
 Basis Dimension        Dim             ....  172

ORBITAL ENERGIES
----------------

  NO   OCC          E(Eh)            E(eV)
   0   2.0000     -19.225429      -523.1505
   1   2.0000     -10.308322      -280.5037
   2   2.0000      -1.149465       -31.2785
   3   2.0000      -0.799908       -21.7666
   4   2.0000      -0.618902       -16.8412
   5   2.0000      -0.543008       -14.7760
   6   2.0000      -0.536632       -14.6025
   7   2.0000      -0.438096       -11.9212
   8   2.0000      -0.370625       -10.0852
   9   0.0000       0.087009         2.3676
  10   0.0000       0.120295         3.2734
  11   0.0000       0.155393         4.2285
  12   0.0000       0.172092         4.6829
  13   0.0000       0.196499         5.3470

MULLIKEN ATOMIC CHARGES
-----------------------
   0 C :   -0.001413
   1 O :    0.000033
   2 H :    0.000002
   3 H :    0.000093
   4 H :   -0.000040
   5 H :    0.000113
   6 C :   -0.159841
   7 O :   -0.465408
   8 H :    0.307640
   9 H :    0.101818
  10 H :    0.118381
  11 H :    0.098623
Sum of atomic charges:    0.0000000

LOEWDIN ATOMIC CHARGES
----------------------
   0 C :   -0.000647
   1 O :   -0.000565
   2 H :   -0.000036
   3 H :   -0.000045
   4 H :   -0.000028
   5 H :   -0.000019
   6 C :   -0.388791
   7 O :   -0.048190
   8 H :    0.147237
   9 H :    0.091769
  10 H :    0.104026
  11 H :    0.095289

  Mayer bond orders larger than 0.1
B(  6-C ,  7-O ) :   0.9911 B(  6-C ,  9-H ) :   0.9881 B(  6-C , 10-H ) :   0.9731
B(  6-C , 11-H ) :   0.9752 B(  7-O ,  8-H ) :   0.9083

Dispersion correction           -0.000210412
FINAL SINGLE POINT ENERGY      -115.733297462631

DIPOLE MOMENT
-------------
                                X             Y             Z
Electronic contribution:     -0.71593       1.21206      -1.13588
Nuclear contribution   :      0.62426      -1.31012       1.80658
                        -----------------------------------------
Total Dipole Moment    :     -0.09168      -0.09806       0.67070
                        -----------------------------------------
Magnitude (a.u.)       :      0.68401
Magnitude (Debye)      :      1.73861

Rotational constants in cm-1:     4.408422     0.858166     0.823442
Rotational constants in MHz : 132161.154041 25727.175464 24686.159810

                             ****ORCA TERMINATED NORMALLY****
TOTAL RUN TIME: 0 days 0 hours 0 minutes 49 seconds 896 msec
