                         Program Version 4.1.2  - RELEASE  -
|  1> #Run DFT-D3 single point of the dimer
|  2> ! wB97X-D3 def2-TZVP TIGHTSCF CHELPG PMODEL PAL8
|  3>
|  4> %base "5-157_DFT_AB"
|  5>
|  6> %scf
|  7> MaxIter 1000
|  8> end
|  9>
| 10> * xyz 0 1
| 11>   C                      -0.745910            -4.978390            -10.184007
| 12>   O                      -0.486956            -4.877424            -8.819097
| 13>   H                      -0.942398            -5.613371            -8.446573
| 14>   H                      -0.400305            -5.989052            -10.614495
| 15>   H                      -1.838380            -4.986133            -10.404108
| 16>   H                      -0.206231            -4.276731            -10.733806
| 17>   C                      -4.415804            -6.305064            -9.010949
| 18>   O                      -3.554945            -7.024887            -9.821782
| 19>   H                      -3.705395            -6.707970            -10.700897
| 20>   H                      -4.060751            -5.249625            -8.799378
| 21>   H                      -5.379806            -6.265267            -9.537826
| 22>   H                      -4.717809            -6.763836            -8.096143
| 23> *
| 24>
| 25> #Run DFT-D3 single point of the molecule with dimer basis set
| 26> $new_job
| 27> %base "5-157_DFT_A"
| 28> ! wB97X-D3 def2-TZVP TIGHTSCF CHELPG PMODEL
| 29>
| 30> %scf
| 31> MaxIter 1000
| 32> end
| 33>
| 34> * xyz 0 1
| 35>   C                      -0.745910            -4.978390            -10.184007
| 36>   O                      -0.486956            -4.877424            -8.819097
| 37>   H                      -0.942398            -5.613371            -8.446573
| 38>   H                      -0.400305            -5.989052            -10.614495
| 39>   H                      -1.838380            -4.986133            -10.404108
| 40>   H                      -0.206231            -4.276731            -10.733806
| 41>   C                    : -4.415804            -6.305064            -9.010949
| 42>   O                    : -3.554945            -7.024887            -9.821782
| 43>   H                    : -3.705395            -6.707970            -10.700897
| 44>   H                    : -4.060751            -5.249625            -8.799378
| 45>   H                    : -5.379806            -6.265267            -9.537826
| 46>   H                    : -4.717809            -6.763836            -8.096143
| 47> *
| 48>
| 49> #Run DFT-D3 single point of the particle with dimer basis set
| 50> $new_job
| 51> %base "5-157_DFT_B"
| 52> ! wB97X-D3 def2-TZVP TIGHTSCF CHELPG PMODEL
| 53>
| 54> %scf
| 55> MaxIter 1000
| 56> end
| 57>
| 58> * xyz 0 1
| 59>   C                    : -0.745910            -4.978390            -10.184007
| 60>   O                    : -0.486956            -4.877424            -8.819097
| 61>   H                    : -0.942398            -5.613371            -8.446573
| 62>   H                    : -0.400305            -5.989052            -10.614495
| 63>   H                    : -1.838380            -4.986133            -10.404108
| 64>   H                    : -0.206231            -4.276731            -10.733806
| 65>   C                      -4.415804            -6.305064            -9.010949
| 66>   O                      -3.554945            -7.024887            -9.821782
| 67>   H                      -3.705395            -6.707970            -10.700897
| 68>   H                      -4.060751            -5.249625            -8.799378
| 69>   H                      -5.379806            -6.265267            -9.537826
| 70>   H                      -4.717809            -6.763836            -8.096143
| 71> *
| 72>
| 73>                          ****END OF INPUT****
 Total Charge           Charge          ....    0
 Multiplicity           Mult            ....    1
 Number of Electrons    NEL             ....   36
Dispersion correction           -0.001971018
FINAL SINGLE POINT ENERGY      -231.465060464016
Dispersion correction           -0.000223568
FINAL SINGLE POINT ENERGY      -115.731305650536

CARTESIAN COORDINATES (ANGSTROEM)
---------------------------------
  C     -0.745910   -4.978390  -10.184007
  O     -0.486956   -4.877424   -8.819097
  H     -0.942398   -5.613371   -8.446573
  H     -0.400305   -5.989052  -10.614495
  H     -1.838380   -4.986133  -10.404108
  H     -0.206231   -4.276731  -10.733806
  C     -4.415804   -6.305064   -9.010949
  O     -3.554945   -7.024887   -9.821782
  H     -3.705395   -6.707970  -10.700897
  H     -4.060751   -5.249625   -8.799378
  H     -5.379806   -6.265267   -9.537826
  H     -4.717809   -6.763836   -8.096143

 Multiplicity           Mult            ....    1
 Number of Electrons    NEL             ....   18
 Basis Dimension        Dim             ....  172

ORBITAL ENERGIES
----------------

  NO   OCC          E(Eh)            E(eV)
   0   2.0000     -19.232349      -523.3388
   1   2.0000     -10.312964      -280.6300
   2   2.0000      -1.152063       -31.3492
   3   2.0000      -0.795291       -21.6410
   4   2.0000      -0.617545       -16.8042
   5   2.0000      -0.547740       -14.9048
   6   2.0000      -0.537364       -14.6224
   7   2.0000      -0.427258       -11.6263
   8   2.0000      -0.374745       -10.1973
   9   0.0000       0.089281         2.4295
  10   0.0000       0.129477         3.5232
  11   0.0000       0.149698         4.0735
  12   0.0000       0.175310         4.7704
  13   0.0000       0.190512         5.1841

MULLIKEN ATOMIC CHARGES
-----------------------
   0 C :    0.010177
   1 O :    0.000009
   2 H :   -0.001489
   3 H :   -0.002542
   4 H :   -0.014764
   5 H :   -0.000612
   6 C :   -0.169763
   7 O :   -0.453612
   8 H :    0.320786
   9 H :    0.093501
  10 H :    0.098446
  11 H :    0.119865
Sum of atomic charges:   -0.0000000

LOEWDIN ATOMIC CHARGES
----------------------
   0 C :   -0.006853
   1 O :   -0.000117
   2 H :   -0.001252
   3 H :   -0.001058
   4 H :   -0.006463
   5 H :   -0.000085
   6 C :   -0.412798
   7 O :   -0.036598
   8 H :    0.167875
   9 H :    0.099429
  10 H :    0.097634
  11 H :    0.100286

  Mayer bond orders larger than 0.1
B(  6-C ,  7-O ) :   1.0047 B(  6-C ,  9-H ) :   0.9709 B(  6-C , 10-H ) :   0.9931
B(  6-C , 11-H ) :   0.9720 B(  7-O ,  8-H ) :   0.8978

Dispersion correction           -0.000226227
FINAL SINGLE POINT ENERGY      -115.730767196421

DIPOLE MOMENT
-------------
                                X             Y             Z
Electronic contribution:      1.31301      -1.10765      -0.87150
Nuclear contribution   :     -1.77106       1.53489       0.61952
                        -----------------------------------------
Total Dipole Moment    :     -0.45805       0.42725      -0.25198
                        -----------------------------------------
Magnitude (a.u.)       :      0.67516
Magnitude (Debye)      :      1.71613

Rotational constants in cm-1:     4.347528     0.850195     0.832476
Rotational constants in MHz : 130335.614451 25488.217206 24956.990992

                             ****ORCA TERMINATED NORMALLY****
TOTAL RUN TIME: 0 days 0 hours 0 minutes 55 seconds 796 msec
