                         Program Version 4.1.2  - RELEASE  -
|  1> #Run DFT-D3 single point of the dimer
|  2> ! wB97X-D3 def2-TZVP TIGHTSCF CHELPG PMODEL PAL8
|  3>
|  4> %base "4-175_DFT_AB"
|  5>
|  6> %scf
|  7> MaxIter 1000
|  8> end
|  9>
| 10> * xyz 0 1
| 11>   C                      9.897088             -6.106647            -1.344404
| 12>   O                      8.894205             -6.210218            -0.357511
| 13>   H                      8.365926             -5.424265            -0.546781
| 14>   H                      9.837343             -6.958201            -2.012444
| 15>   H                      9.795360             -5.159881            -1.911323
| 16>   H                      10.927268            -6.047717            -0.936030
| 17>   C                      7.719289             -1.737762            -3.031296
| 18>   O                      8.518482             -2.780515            -3.374779
| 19>   H                      9.124103             -2.990282            -2.636932
| 20>   H                      7.309833             -1.230837            -3.924038
| 21>   H                      6.883094             -2.092492            -2.403325
| 22>   H                      8.296819             -1.021317            -2.430248
| 23> *
| 24>
| 25> #Run DFT-D3 single point of the molecule with dimer basis set
| 26> $new_job
| 27> %base "4-175_DFT_A"
| 28> ! wB97X-D3 def2-TZVP TIGHTSCF CHELPG PMODEL
| 29>
| 30> %scf
| 31> MaxIter 1000
| 32> end
| 33>
| 34> * xyz 0 1
| 35>   C                      9.897088             -6.106647            -1.344404
| 36>   O                      8.894205             -6.210218            -0.357511
| 37>   H                      8.365926             -5.424265            -0.546781
| 38>   H                      9.837343             -6.958201            -2.012444
| 39>   H                      9.795360             -5.159881            -1.911323
| 40>   H                      10.927268            -6.047717            -0.936030
| 41>   C                    : 7.719289             -1.737762            -3.031296
| 42>   O                    : 8.518482             -2.780515            -3.374779
| 43>   H                    : 9.124103             -2.990282            -2.636932
| 44>   H                    : 7.309833             -1.230837            -3.924038
| 45>   H                    : 6.883094             -2.092492            -2.403325
| 46>   H                    : 8.296819             -1.021317            -2.430248
| 47> *
| 48>
| 49> #Run DFT-D3 single point of the particle with dimer basis set
| 50> $new_job
| 51> %base "4-175_DFT_B"
| 52> ! wB97X-D3 def2-TZVP TIGHTSCF CHELPG PMODEL
| 53>
| 54> %scf
| 55> MaxIter 1000
| 56> end
| 57>
| 58> * xyz 0 1
| 59>   C                    : 9.897088             -6.106647            -1.344404
| 60>   O                    : 8.894205             -6.210218            -0.357511
| 61>   H                    : 8.365926             -5.424265            -0.546781
| 62>   H                    : 9.837343             -6.958201            -2.012444
| 63>   H                    : 9.795360             -5.159881            -1.911323
| 64>   H                    : 10.927268            -6.047717            -0.936030
| 65>   C                      7.719289             -1.737762            -3.031296
| 66>   O                      8.518482             -2.780515            -3.374779
| 67>   H                      9.124103             -2.990282            -2.636932
| 68>   H                      7.309833             -1.230837            -3.924038
| 69>   H                      6.883094             -2.092492            -2.403325
| 70>   H                      8.296819             -1.021317            -2.430248
| 71> *
| 72>
| 73>                          ****END OF INPUT****
 Total Charge           Charge          ....    0
 Multiplicity           Mult            ....    1
 Number of Electrons    NEL             ....   36
Dispersion correction           -0.001197998
FINAL SINGLE POINT ENERGY      -231.466001101738
Dispersion correction           -0.000237367
FINAL SINGLE POINT ENERGY      -115.732635822649

CARTESIAN COORDINATES (ANGSTROEM)
---------------------------------
  C      9.897088   -6.106647   -1.344404
  O      8.894205   -6.210218   -0.357511
  H      8.365926   -5.424265   -0.546781
  H      9.837343   -6.958201   -2.012444
  H      9.795360   -5.159881   -1.911323
  H     10.927268   -6.047717   -0.936030
  C      7.719289   -1.737762   -3.031296
  O      8.518482   -2.780515   -3.374779
  H      9.124103   -2.990282   -2.636932
  H      7.309833   -1.230837   -3.924038
  H      6.883094   -2.092492   -2.403325
  H      8.296819   -1.021317   -2.430248

 Multiplicity           Mult            ....    1
 Number of Electrons    NEL             ....   18
 Basis Dimension        Dim             ....  172

ORBITAL ENERGIES
----------------

  NO   OCC          E(Eh)            E(eV)
   0   2.0000     -19.229593      -523.2638
   1   2.0000     -10.311054      -280.5780
   2   2.0000      -1.150964       -31.3193
   3   2.0000      -0.789152       -21.4739
   4   2.0000      -0.619616       -16.8606
   5   2.0000      -0.546197       -14.8628
   6   2.0000      -0.537247       -14.6192
   7   2.0000      -0.426346       -11.6015
   8   2.0000      -0.367218        -9.9925
   9   0.0000       0.078988         2.1494
  10   0.0000       0.123229         3.3532
  11   0.0000       0.154642         4.2080
  12   0.0000       0.166363         4.5270
  13   0.0000       0.198494         5.4013

MULLIKEN ATOMIC CHARGES
-----------------------
   0 C :    0.002249
   1 O :    0.000144
   2 H :   -0.001004
   3 H :   -0.000125
   4 H :   -0.005054
   5 H :   -0.000105
   6 C :   -0.154495
   7 O :   -0.461450
   8 H :    0.322519
   9 H :    0.112155
  10 H :    0.090653
  11 H :    0.094514
Sum of atomic charges:    0.0000000

LOEWDIN ATOMIC CHARGES
----------------------
   0 C :   -0.001219
   1 O :   -0.000030
   2 H :   -0.000484
   3 H :   -0.000010
   4 H :   -0.003460
   5 H :   -0.000013
   6 C :   -0.430582
   7 O :   -0.043713
   8 H :    0.185154
   9 H :    0.108761
  10 H :    0.092606
  11 H :    0.092991

  Mayer bond orders larger than 0.1
B(  6-C ,  7-O ) :   1.0142 B(  6-C ,  9-H ) :   0.9706 B(  6-C , 10-H ) :   0.9736
B(  6-C , 11-H ) :   0.9913 B(  7-O ,  8-H ) :   0.8879

Dispersion correction           -0.000216598
FINAL SINGLE POINT ENERGY      -115.733584984135

DIPOLE MOMENT
-------------
                                X             Y             Z
Electronic contribution:      0.99720      -1.37474      -0.65693
Nuclear contribution   :     -0.88776       1.63151       1.23994
                        -----------------------------------------
Total Dipole Moment    :      0.10945       0.25677       0.58301
                        -----------------------------------------
Magnitude (a.u.)       :      0.64638
Magnitude (Debye)      :      1.64298

Rotational constants in cm-1:     4.210290     0.888014     0.851247
Rotational constants in MHz : 126221.303997 26622.002066 25519.731718

                             ****ORCA TERMINATED NORMALLY****
TOTAL RUN TIME: 0 days 0 hours 1 minutes 33 seconds 917 msec
