                         Program Version 4.1.2  - RELEASE  -
|  1> #Run DFT-D3 single point of the dimer
|  2> ! wB97X-D3 def2-TZVP TIGHTSCF CHELPG PMODEL PAL8
|  3>
|  4> %base "4-107_DFT_AB"
|  5>
|  6> %scf
|  7> MaxIter 1000
|  8> end
|  9>
| 10> * xyz 0 1
| 11>   C                      -2.198624            9.615270             1.579089
| 12>   O                      -2.591249            8.515751             2.357670
| 13>   H                      -3.042198            8.817431             3.150511
| 14>   H                      -2.964768            10.342810            1.400862
| 15>   H                      -1.380174            10.190098            2.092665
| 16>   H                      -1.801923            9.420872             0.610234
| 17>   C                      -3.676988            6.258992             5.410534
| 18>   O                      -2.437939            6.218606             6.109411
| 19>   H                      -2.542098            5.874862             6.986939
| 20>   H                      -4.129947            5.276658             5.246592
| 21>   H                      -4.294873            7.006507             5.893704
| 22>   H                      -3.527705            6.585124             4.395753
| 23> *
| 24>
| 25> #Run DFT-D3 single point of the molecule with dimer basis set
| 26> $new_job
| 27> %base "4-107_DFT_A"
| 28> ! wB97X-D3 def2-TZVP TIGHTSCF CHELPG PMODEL
| 29>
| 30> %scf
| 31> MaxIter 1000
| 32> end
| 33>
| 34> * xyz 0 1
| 35>   C                      -2.198624            9.615270             1.579089
| 36>   O                      -2.591249            8.515751             2.357670
| 37>   H                      -3.042198            8.817431             3.150511
| 38>   H                      -2.964768            10.342810            1.400862
| 39>   H                      -1.380174            10.190098            2.092665
| 40>   H                      -1.801923            9.420872             0.610234
| 41>   C                    : -3.676988            6.258992             5.410534
| 42>   O                    : -2.437939            6.218606             6.109411
| 43>   H                    : -2.542098            5.874862             6.986939
| 44>   H                    : -4.129947            5.276658             5.246592
| 45>   H                    : -4.294873            7.006507             5.893704
| 46>   H                    : -3.527705            6.585124             4.395753
| 47> *
| 48>
| 49> #Run DFT-D3 single point of the particle with dimer basis set
| 50> $new_job
| 51> %base "4-107_DFT_B"
| 52> ! wB97X-D3 def2-TZVP TIGHTSCF CHELPG PMODEL
| 53>
| 54> %scf
| 55> MaxIter 1000
| 56> end
| 57>
| 58> * xyz 0 1
| 59>   C                    : -2.198624            9.615270             1.579089
| 60>   O                    : -2.591249            8.515751             2.357670
| 61>   H                    : -3.042198            8.817431             3.150511
| 62>   H                    : -2.964768            10.342810            1.400862
| 63>   H                    : -1.380174            10.190098            2.092665
| 64>   H                    : -1.801923            9.420872             0.610234
| 65>   C                      -3.676988            6.258992             5.410534
| 66>   O                      -2.437939            6.218606             6.109411
| 67>   H                      -2.542098            5.874862             6.986939
| 68>   H                      -4.129947            5.276658             5.246592
| 69>   H                      -4.294873            7.006507             5.893704
| 70>   H                      -3.527705            6.585124             4.395753
| 71> *
| 72>
| 73>                          ****END OF INPUT****
 Total Charge           Charge          ....    0
 Multiplicity           Mult            ....    1
 Number of Electrons    NEL             ....   36
Dispersion correction           -0.001149173
FINAL SINGLE POINT ENERGY      -231.466083078025
Dispersion correction           -0.000249903
FINAL SINGLE POINT ENERGY      -115.732077684329

CARTESIAN COORDINATES (ANGSTROEM)
---------------------------------
  C     -2.198624    9.615270    1.579089
  O     -2.591249    8.515751    2.357670
  H     -3.042198    8.817431    3.150511
  H     -2.964768   10.342810    1.400862
  H     -1.380174   10.190098    2.092665
  H     -1.801923    9.420872    0.610234
  C     -3.676988    6.258992    5.410534
  O     -2.437939    6.218606    6.109411
  H     -2.542098    5.874862    6.986939
  H     -4.129947    5.276658    5.246592
  H     -4.294873    7.006507    5.893704
  H     -3.527705    6.585124    4.395753

 Multiplicity           Mult            ....    1
 Number of Electrons    NEL             ....   18
 Basis Dimension        Dim             ....  172

ORBITAL ENERGIES
----------------

  NO   OCC          E(Eh)            E(eV)
   0   2.0000     -19.225679      -523.1573
   1   2.0000     -10.310778      -280.5705
   2   2.0000      -1.131936       -30.8015
   3   2.0000      -0.801286       -21.8041
   4   2.0000      -0.605592       -16.4790
   5   2.0000      -0.553170       -15.0525
   6   2.0000      -0.525228       -14.2922
   7   2.0000      -0.423205       -11.5160
   8   2.0000      -0.375778       -10.2254
   9   0.0000       0.089038         2.4228
  10   0.0000       0.119762         3.2589
  11   0.0000       0.147440         4.0120
  12   0.0000       0.178189         4.8488
  13   0.0000       0.195149         5.3103

MULLIKEN ATOMIC CHARGES
-----------------------
   0 C :    0.000013
   1 O :    0.000301
   2 H :    0.000133
   3 H :   -0.000002
   4 H :    0.000002
   5 H :   -0.000006
   6 C :   -0.155395
   7 O :   -0.487668
   8 H :    0.315261
   9 H :    0.103350
  10 H :    0.106115
  11 H :    0.117898
Sum of atomic charges:   -0.0000000

LOEWDIN ATOMIC CHARGES
----------------------
   0 C :   -0.000053
   1 O :   -0.001237
   2 H :   -0.002110
   3 H :   -0.000001
   4 H :   -0.000001
   5 H :   -0.000002
   6 C :   -0.373675
   7 O :   -0.080942
   8 H :    0.158338
   9 H :    0.096472
  10 H :    0.096879
  11 H :    0.106331

  Mayer bond orders larger than 0.1
B(  6-C ,  7-O ) :   1.0009 B(  6-C ,  9-H ) :   0.9729 B(  6-C , 10-H ) :   0.9851
B(  6-C , 11-H ) :   0.9717 B(  7-O ,  8-H ) :   0.8990

Dispersion correction           -0.000249174
FINAL SINGLE POINT ENERGY      -115.733489870217

DIPOLE MOMENT
-------------
                                X             Y             Z
Electronic contribution:      1.56691      -0.03457       0.83152
Nuclear contribution   :     -2.13767      -0.16463      -0.58237
                        -----------------------------------------
Total Dipole Moment    :     -0.57076      -0.19920       0.24916
                        -----------------------------------------
Magnitude (a.u.)       :      0.65386
Magnitude (Debye)      :      1.66197

Rotational constants in cm-1:     4.433947     0.813167     0.799661
Rotational constants in MHz : 132926.376851 24378.141870 23973.246911

                             ****ORCA TERMINATED NORMALLY****
TOTAL RUN TIME: 0 days 0 hours 1 minutes 34 seconds 779 msec
