                         Program Version 4.1.2  - RELEASE  -
|  1> #Run DFT-D3 single point of the dimer
|  2> ! wB97X-D3 def2-TZVP TIGHTSCF CHELPG PMODEL PAL8
|  3>
|  4> %base "17-217_DFT_AB"
|  5>
|  6> %scf
|  7> MaxIter 1000
|  8> end
|  9>
| 10> * xyz 0 1
| 11>   C                      -7.114895            -9.252736            2.911161
| 12>   O                      -7.963711            -8.318133            2.377793
| 13>   H                      -8.671788            -8.236899            3.028148
| 14>   H                      -6.159559            -9.294814            2.385530
| 15>   H                      -6.893088            -8.897432            3.925126
| 16>   H                      -7.565943            -10.294245           2.959604
| 17>   C                      -5.806224            -7.343673            -0.405373
| 18>   O                      -6.798770            -6.609270            0.234810
| 19>   H                      -7.044524            -7.136931            0.983341
| 20>   H                      -5.128321            -7.722086            0.349345
| 21>   H                      -6.127042            -8.151048            -0.959240
| 22>   H                      -5.253298            -6.661296            -0.932409
| 23> *
| 24>
| 25> #Run DFT-D3 single point of the molecule with dimer basis set
| 26> $new_job
| 27> %base "17-217_DFT_A"
| 28> ! wB97X-D3 def2-TZVP TIGHTSCF CHELPG PMODEL
| 29>
| 30> %scf
| 31> MaxIter 1000
| 32> end
| 33>
| 34> * xyz 0 1
| 35>   C                      -7.114895            -9.252736            2.911161
| 36>   O                      -7.963711            -8.318133            2.377793
| 37>   H                      -8.671788            -8.236899            3.028148
| 38>   H                      -6.159559            -9.294814            2.385530
| 39>   H                      -6.893088            -8.897432            3.925126
| 40>   H                      -7.565943            -10.294245           2.959604
| 41>   C                    : -5.806224            -7.343673            -0.405373
| 42>   O                    : -6.798770            -6.609270            0.234810
| 43>   H                    : -7.044524            -7.136931            0.983341
| 44>   H                    : -5.128321            -7.722086            0.349345
| 45>   H                    : -6.127042            -8.151048            -0.959240
| 46>   H                    : -5.253298            -6.661296            -0.932409
| 47> *
| 48>
| 49> #Run DFT-D3 single point of the particle with dimer basis set
| 50> $new_job
| 51> %base "17-217_DFT_B"
| 52> ! wB97X-D3 def2-TZVP TIGHTSCF CHELPG PMODEL
| 53>
| 54> %scf
| 55> MaxIter 1000
| 56> end
| 57>
| 58> * xyz 0 1
| 59>   C                    : -7.114895            -9.252736            2.911161
| 60>   O                    : -7.963711            -8.318133            2.377793
| 61>   H                    : -8.671788            -8.236899            3.028148
| 62>   H                    : -6.159559            -9.294814            2.385530
| 63>   H                    : -6.893088            -8.897432            3.925126
| 64>   H                    : -7.565943            -10.294245           2.959604
| 65>   C                      -5.806224            -7.343673            -0.405373
| 66>   O                      -6.798770            -6.609270            0.234810
| 67>   H                      -7.044524            -7.136931            0.983341
| 68>   H                      -5.128321            -7.722086            0.349345
| 69>   H                      -6.127042            -8.151048            -0.959240
| 70>   H                      -5.253298            -6.661296            -0.932409
| 71> *
| 72>
| 73>                          ****END OF INPUT****
 Total Charge           Charge          ....    0
 Multiplicity           Mult            ....    1
 Number of Electrons    NEL             ....   36
Dispersion correction           -0.001823963
FINAL SINGLE POINT ENERGY      -231.467167505249
Dispersion correction           -0.000211028
FINAL SINGLE POINT ENERGY      -115.732407956357

CARTESIAN COORDINATES (ANGSTROEM)
---------------------------------
  C     -7.114895   -9.252736    2.911161
  O     -7.963711   -8.318133    2.377793
  H     -8.671788   -8.236899    3.028148
  H     -6.159559   -9.294814    2.385530
  H     -6.893088   -8.897432    3.925126
  H     -7.565943  -10.294245    2.959604
  C     -5.806224   -7.343673   -0.405373
  O     -6.798770   -6.609270    0.234810
  H     -7.044524   -7.136931    0.983341
  H     -5.128321   -7.722086    0.349345
  H     -6.127042   -8.151048   -0.959240
  H     -5.253298   -6.661296   -0.932409

 Multiplicity           Mult            ....    1
 Number of Electrons    NEL             ....   18
 Basis Dimension        Dim             ....  172

ORBITAL ENERGIES
----------------

  NO   OCC          E(Eh)            E(eV)
   0   2.0000     -19.227005      -523.1934
   1   2.0000     -10.294202      -280.1195
   2   2.0000      -1.147026       -31.2122
   3   2.0000      -0.805191       -21.9104
   4   2.0000      -0.620104       -16.8739
   5   2.0000      -0.556763       -15.1503
   6   2.0000      -0.530612       -14.4387
   7   2.0000      -0.437253       -11.8983
   8   2.0000      -0.374832       -10.1997
   9   0.0000       0.068575         1.8660
  10   0.0000       0.136976         3.7273
  11   0.0000       0.147622         4.0170
  12   0.0000       0.178379         4.8539
  13   0.0000       0.186314         5.0698

MULLIKEN ATOMIC CHARGES
-----------------------
   0 C :   -0.003261
   1 O :   -0.002183
   2 H :   -0.000260
   3 H :    0.000379
   4 H :    0.000211
   5 H :    0.000020
   6 C :   -0.159327
   7 O :   -0.464949
   8 H :    0.308562
   9 H :    0.096029
  10 H :    0.105159
  11 H :    0.119621
Sum of atomic charges:   -0.0000000

LOEWDIN ATOMIC CHARGES
----------------------
   0 C :   -0.004349
   1 O :   -0.015308
   2 H :   -0.000702
   3 H :   -0.001564
   4 H :   -0.000066
   5 H :   -0.000072
   6 C :   -0.379682
   7 O :   -0.043215
   8 H :    0.169822
   9 H :    0.097695
  10 H :    0.082312
  11 H :    0.095128

  Mayer bond orders larger than 0.1
B(  6-C ,  7-O ) :   0.9906 B(  6-C ,  9-H ) :   0.9930 B(  6-C , 10-H ) :   0.9684
B(  6-C , 11-H ) :   0.9811 B(  7-O ,  8-H ) :   0.9161

Dispersion correction           -0.000196337
FINAL SINGLE POINT ENERGY      -115.728130793682

DIPOLE MOMENT
-------------
                                X             Y             Z
Electronic contribution:     -1.33297       1.00241       0.54835
Nuclear contribution   :      1.58338      -1.61384      -0.32391
                        -----------------------------------------
Total Dipole Moment    :      0.25041      -0.61143       0.22444
                        -----------------------------------------
Magnitude (a.u.)       :      0.69780
Magnitude (Debye)      :      1.77366

Rotational constants in cm-1:     4.562545     0.873413     0.842573
Rotational constants in MHz : 136781.669223 26184.273336 25259.714268

                             ****ORCA TERMINATED NORMALLY****
TOTAL RUN TIME: 0 days 0 hours 1 minutes 7 seconds 811 msec
