                         Program Version 4.1.2  - RELEASE  -
|  1> #Run DFT-D3 single point of the dimer
|  2> ! wB97X-D3 def2-TZVP TIGHTSCF CHELPG PMODEL PAL8
|  3>
|  4> %base "20-129_DFT_AB"
|  5>
|  6> %scf
|  7> MaxIter 1000
|  8> end
|  9>
| 10> * xyz 0 1
| 11>   C                      -10.407727           0.770466             3.631397
| 12>   O                      -9.562463            -0.223850            3.141265
| 13>   H                      -9.421107            -0.852578            3.813185
| 14>   H                      -11.475602           0.633338             3.382502
| 15>   H                      -10.279834           0.901651             4.710946
| 16>   H                      -10.139632           1.661452             3.115065
| 17>   C                      -6.054250            -1.819193            2.610629
| 18>   O                      -5.399133            -1.078650            1.587365
| 19>   H                      -5.936089            -1.162187            0.809597
| 20>   H                      -6.005282            -1.230983            3.547607
| 21>   H                      -7.078095            -2.064409            2.357709
| 22>   H                      -5.539380            -2.672812            2.901062
| 23> *
| 24>
| 25> #Run DFT-D3 single point of the molecule with dimer basis set
| 26> $new_job
| 27> %base "20-129_DFT_A"
| 28> ! wB97X-D3 def2-TZVP TIGHTSCF CHELPG PMODEL
| 29>
| 30> %scf
| 31> MaxIter 1000
| 32> end
| 33>
| 34> * xyz 0 1
| 35>   C                      -10.407727           0.770466             3.631397
| 36>   O                      -9.562463            -0.223850            3.141265
| 37>   H                      -9.421107            -0.852578            3.813185
| 38>   H                      -11.475602           0.633338             3.382502
| 39>   H                      -10.279834           0.901651             4.710946
| 40>   H                      -10.139632           1.661452             3.115065
| 41>   C                    : -6.054250            -1.819193            2.610629
| 42>   O                    : -5.399133            -1.078650            1.587365
| 43>   H                    : -5.936089            -1.162187            0.809597
| 44>   H                    : -6.005282            -1.230983            3.547607
| 45>   H                    : -7.078095            -2.064409            2.357709
| 46>   H                    : -5.539380            -2.672812            2.901062
| 47> *
| 48>
| 49> #Run DFT-D3 single point of the particle with dimer basis set
| 50> $new_job
| 51> %base "20-129_DFT_B"
| 52> ! wB97X-D3 def2-TZVP TIGHTSCF CHELPG PMODEL
| 53>
| 54> %scf
| 55> MaxIter 1000
| 56> end
| 57>
| 58> * xyz 0 1
| 59>   C                    : -10.407727           0.770466             3.631397
| 60>   O                    : -9.562463            -0.223850            3.141265
| 61>   H                    : -9.421107            -0.852578            3.813185
| 62>   H                    : -11.475602           0.633338             3.382502
| 63>   H                    : -10.279834           0.901651             4.710946
| 64>   H                    : -10.139632           1.661452             3.115065
| 65>   C                      -6.054250            -1.819193            2.610629
| 66>   O                      -5.399133            -1.078650            1.587365
| 67>   H                      -5.936089            -1.162187            0.809597
| 68>   H                      -6.005282            -1.230983            3.547607
| 69>   H                      -7.078095            -2.064409            2.357709
| 70>   H                      -5.539380            -2.672812            2.901062
| 71> *
| 72>
| 73>                          ****END OF INPUT****
 Total Charge           Charge          ....    0
 Multiplicity           Mult            ....    1
 Number of Electrons    NEL             ....   36
Dispersion correction           -0.001142008
FINAL SINGLE POINT ENERGY      -231.466922139313
Dispersion correction           -0.000235499
FINAL SINGLE POINT ENERGY      -115.734352070583

CARTESIAN COORDINATES (ANGSTROEM)
---------------------------------
  C    -10.407727    0.770466    3.631397
  O     -9.562463   -0.223850    3.141265
  H     -9.421107   -0.852578    3.813185
  H    -11.475602    0.633338    3.382502
  H    -10.279834    0.901651    4.710946
  H    -10.139632    1.661452    3.115065
  C     -6.054250   -1.819193    2.610629
  O     -5.399133   -1.078650    1.587365
  H     -5.936089   -1.162187    0.809597
  H     -6.005282   -1.230983    3.547607
  H     -7.078095   -2.064409    2.357709
  H     -5.539380   -2.672812    2.901062

 Multiplicity           Mult            ....    1
 Number of Electrons    NEL             ....   18
 Basis Dimension        Dim             ....  172

ORBITAL ENERGIES
----------------

  NO   OCC          E(Eh)            E(eV)
   0   2.0000     -19.228961      -523.2466
   1   2.0000     -10.307529      -280.4821
   2   2.0000      -1.136169       -30.9167
   3   2.0000      -0.801740       -21.8164
   4   2.0000      -0.612743       -16.6736
   5   2.0000      -0.544105       -14.8058
   6   2.0000      -0.524965       -14.2850
   7   2.0000      -0.441076       -12.0023
   8   2.0000      -0.371546       -10.1103
   9   0.0000       0.084558         2.3009
  10   0.0000       0.115732         3.1492
  11   0.0000       0.144821         3.9408
  12   0.0000       0.179553         4.8859
  13   0.0000       0.193165         5.2563

MULLIKEN ATOMIC CHARGES
-----------------------
   0 C :    0.000160
   1 O :    0.000183
   2 H :   -0.000887
   3 H :   -0.000007
   4 H :   -0.000023
   5 H :    0.000004
   6 C :   -0.163968
   7 O :   -0.470481
   8 H :    0.312983
   9 H :    0.107815
  10 H :    0.104395
  11 H :    0.109826
Sum of atomic charges:   -0.0000000

LOEWDIN ATOMIC CHARGES
----------------------
   0 C :   -0.000039
   1 O :   -0.000569
   2 H :   -0.001138
   3 H :   -0.000001
   4 H :   -0.000003
   5 H :   -0.000002
   6 C :   -0.372012
   7 O :   -0.077240
   8 H :    0.161707
   9 H :    0.108347
  10 H :    0.095733
  11 H :    0.085216

  Mayer bond orders larger than 0.1
B(  6-C ,  7-O ) :   1.0148 B(  6-C ,  9-H ) :   0.9826 B(  6-C , 10-H ) :   0.9840
B(  6-C , 11-H ) :   0.9739 B(  7-O ,  8-H ) :   0.9049

Dispersion correction           -0.000243628
FINAL SINGLE POINT ENERGY      -115.731595016448

DIPOLE MOMENT
-------------
                                X             Y             Z
Electronic contribution:      0.89612       0.89643      -1.31977
Nuclear contribution   :     -1.50289      -1.26215       1.23231
                        -----------------------------------------
Total Dipole Moment    :     -0.60677      -0.36571      -0.08746
                        -----------------------------------------
Magnitude (a.u.)       :      0.71384
Magnitude (Debye)      :      1.81444

Rotational constants in cm-1:     4.450201     0.832631     0.790427
Rotational constants in MHz : 133413.667628 24961.654629 23696.395409

                             ****ORCA TERMINATED NORMALLY****
TOTAL RUN TIME: 0 days 0 hours 0 minutes 52 seconds 720 msec
