                         Program Version 4.1.2  - RELEASE  -
|  1> #Run DFT-D3 single point of the dimer
|  2> ! wB97X-D3 def2-TZVP TIGHTSCF CHELPG PMODEL PAL8
|  3>
|  4> %base "1-93_DFT_AB"
|  5>
|  6> %scf
|  7> MaxIter 1000
|  8> end
|  9>
| 10> * xyz 0 1
| 11>   C                      -7.546642            5.310844             -2.485952
| 12>   O                      -6.537382            4.702897             -1.704250
| 13>   H                      -6.634103            3.799627             -2.072274
| 14>   H                      -7.343214            5.297082             -3.570693
| 15>   H                      -8.497672            4.889586             -2.433377
| 16>   H                      -7.670592            6.410111             -2.234567
| 17>   C                      -3.789158            7.906341             -2.669329
| 18>   O                      -4.091139            7.734431             -4.022103
| 19>   H                      -3.333544            7.539611             -4.474038
| 20>   H                      -4.517442            8.488544             -2.173604
| 21>   H                      -3.769773            6.916868             -2.177394
| 22>   H                      -2.835355            8.451827             -2.529979
| 23> *
| 24>
| 25> #Run DFT-D3 single point of the molecule with dimer basis set
| 26> $new_job
| 27> %base "1-93_DFT_A"
| 28> ! wB97X-D3 def2-TZVP TIGHTSCF CHELPG PMODEL
| 29>
| 30> %scf
| 31> MaxIter 1000
| 32> end
| 33>
| 34> * xyz 0 1
| 35>   C                      -7.546642            5.310844             -2.485952
| 36>   O                      -6.537382            4.702897             -1.704250
| 37>   H                      -6.634103            3.799627             -2.072274
| 38>   H                      -7.343214            5.297082             -3.570693
| 39>   H                      -8.497672            4.889586             -2.433377
| 40>   H                      -7.670592            6.410111             -2.234567
| 41>   C                    : -3.789158            7.906341             -2.669329
| 42>   O                    : -4.091139            7.734431             -4.022103
| 43>   H                    : -3.333544            7.539611             -4.474038
| 44>   H                    : -4.517442            8.488544             -2.173604
| 45>   H                    : -3.769773            6.916868             -2.177394
| 46>   H                    : -2.835355            8.451827             -2.529979
| 47> *
| 48>
| 49> #Run DFT-D3 single point of the particle with dimer basis set
| 50> $new_job
| 51> %base "1-93_DFT_B"
| 52> ! wB97X-D3 def2-TZVP TIGHTSCF CHELPG PMODEL
| 53>
| 54> %scf
| 55> MaxIter 1000
| 56> end
| 57>
| 58> * xyz 0 1
| 59>   C                    : -7.546642            5.310844             -2.485952
| 60>   O                    : -6.537382            4.702897             -1.704250
| 61>   H                    : -6.634103            3.799627             -2.072274
| 62>   H                    : -7.343214            5.297082             -3.570693
| 63>   H                    : -8.497672            4.889586             -2.433377
| 64>   H                    : -7.670592            6.410111             -2.234567
| 65>   C                      -3.789158            7.906341             -2.669329
| 66>   O                      -4.091139            7.734431             -4.022103
| 67>   H                      -3.333544            7.539611             -4.474038
| 68>   H                      -4.517442            8.488544             -2.173604
| 69>   H                      -3.769773            6.916868             -2.177394
| 70>   H                      -2.835355            8.451827             -2.529979
| 71> *
| 72>
| 73>                          ****END OF INPUT****
 Total Charge           Charge          ....    0
 Multiplicity           Mult            ....    1
 Number of Electrons    NEL             ....   36
Dispersion correction           -0.001100975
FINAL SINGLE POINT ENERGY      -231.461146367960
Dispersion correction           -0.000227655
FINAL SINGLE POINT ENERGY      -115.728107209495

CARTESIAN COORDINATES (ANGSTROEM)
---------------------------------
  C     -7.546642    5.310844   -2.485952
  O     -6.537382    4.702897   -1.704250
  H     -6.634103    3.799627   -2.072274
  H     -7.343214    5.297082   -3.570693
  H     -8.497672    4.889586   -2.433377
  H     -7.670592    6.410111   -2.234567
  C     -3.789158    7.906341   -2.669329
  O     -4.091139    7.734431   -4.022103
  H     -3.333544    7.539611   -4.474038
  H     -4.517442    8.488544   -2.173604
  H     -3.769773    6.916868   -2.177394
  H     -2.835355    8.451827   -2.529979

 Multiplicity           Mult            ....    1
 Number of Electrons    NEL             ....   18
 Basis Dimension        Dim             ....  172

ORBITAL ENERGIES
----------------

  NO   OCC          E(Eh)            E(eV)
   0   2.0000     -19.222874      -523.0810
   1   2.0000     -10.310388      -280.5599
   2   2.0000      -1.151939       -31.3459
   3   2.0000      -0.802766       -21.8444
   4   2.0000      -0.617845       -16.8124
   5   2.0000      -0.546835       -14.8801
   6   2.0000      -0.535728       -14.5779
   7   2.0000      -0.431170       -11.7327
   8   2.0000      -0.374045       -10.1783
   9   0.0000       0.088207         2.4002
  10   0.0000       0.123983         3.3738
  11   0.0000       0.156203         4.2505
  12   0.0000       0.166299         4.5252
  13   0.0000       0.191725         5.2171

MULLIKEN ATOMIC CHARGES
-----------------------
   0 C :    0.000582
   1 O :   -0.000162
   2 H :   -0.000026
   3 H :   -0.000677
   4 H :   -0.000031
   5 H :   -0.000098
   6 C :   -0.164070
   7 O :   -0.462924
   8 H :    0.303616
   9 H :    0.120545
  10 H :    0.100586
  11 H :    0.102660
Sum of atomic charges:   -0.0000000

LOEWDIN ATOMIC CHARGES
----------------------
   0 C :   -0.000376
   1 O :   -0.000177
   2 H :   -0.000016
   3 H :   -0.000273
   4 H :   -0.000011
   5 H :   -0.000055
   6 C :   -0.389070
   7 O :   -0.036540
   8 H :    0.131058
   9 H :    0.098287
  10 H :    0.098008
  11 H :    0.099165

  Mayer bond orders larger than 0.1
B(  6-C ,  7-O ) :   0.9935 B(  6-C ,  9-H ) :   0.9734 B(  6-C , 10-H ) :   0.9802
B(  6-C , 11-H ) :   0.9809 B(  7-O ,  8-H ) :   0.9139

Dispersion correction           -0.000227537
FINAL SINGLE POINT ENERGY      -115.731943972232

DIPOLE MOMENT
-------------
                                X             Y             Z
Electronic contribution:     -0.52545      -0.16722      -1.73254
Nuclear contribution   :      1.13779       0.13355       1.96930
                        -----------------------------------------
Total Dipole Moment    :      0.61235      -0.03367       0.23675
                        -----------------------------------------
Magnitude (a.u.)       :      0.65738
Magnitude (Debye)      :      1.67094

Rotational constants in cm-1:     4.432208     0.846307     0.826070
Rotational constants in MHz : 132874.254741 25371.638515 24764.967216

                             ****ORCA TERMINATED NORMALLY****
TOTAL RUN TIME: 0 days 0 hours 4 minutes 49 seconds 209 msec
