                         Program Version 4.1.2  - RELEASE  -
|  1> #Run DFT-D3 single point of the dimer
|  2> ! wB97X-D3 def2-TZVP TIGHTSCF CHELPG PMODEL PAL8
|  3>
|  4> %base "22-198_DFT_AB"
|  5>
|  6> %scf
|  7> MaxIter 1000
|  8> end
|  9>
| 10> * xyz 0 1
| 11>   C                      4.196622             -0.011702            10.072559
| 12>   O                      3.953575             -0.639063            8.796595
| 13>   H                      4.662885             -1.266409            8.818576
| 14>   H                      4.973549             0.804206             9.958830
| 15>   H                      3.363525             0.470732             10.566065
| 16>   H                      4.584626             -0.733397            10.864630
| 17>   C                      5.916185             -3.212081            8.329294
| 18>   O                      5.831247             -2.627327            9.617049
| 19>   H                      6.040240             -3.306757            10.319235
| 20>   H                      4.969775             -3.579327            7.950076
| 21>   H                      6.245955             -2.522857            7.603715
| 22>   H                      6.491706             -4.086887            8.406894
| 23> *
| 24>
| 25> #Run DFT-D3 single point of the molecule with dimer basis set
| 26> $new_job
| 27> %base "22-198_DFT_A"
| 28> ! wB97X-D3 def2-TZVP TIGHTSCF CHELPG PMODEL
| 29>
| 30> %scf
| 31> MaxIter 1000
| 32> end
| 33>
| 34> * xyz 0 1
| 35>   C                      4.196622             -0.011702            10.072559
| 36>   O                      3.953575             -0.639063            8.796595
| 37>   H                      4.662885             -1.266409            8.818576
| 38>   H                      4.973549             0.804206             9.958830
| 39>   H                      3.363525             0.470732             10.566065
| 40>   H                      4.584626             -0.733397            10.864630
| 41>   C                    : 5.916185             -3.212081            8.329294
| 42>   O                    : 5.831247             -2.627327            9.617049
| 43>   H                    : 6.040240             -3.306757            10.319235
| 44>   H                    : 4.969775             -3.579327            7.950076
| 45>   H                    : 6.245955             -2.522857            7.603715
| 46>   H                    : 6.491706             -4.086887            8.406894
| 47> *
| 48>
| 49> #Run DFT-D3 single point of the particle with dimer basis set
| 50> $new_job
| 51> %base "22-198_DFT_B"
| 52> ! wB97X-D3 def2-TZVP TIGHTSCF CHELPG PMODEL
| 53>
| 54> %scf
| 55> MaxIter 1000
| 56> end
| 57>
| 58> * xyz 0 1
| 59>   C                    : 4.196622             -0.011702            10.072559
| 60>   O                    : 3.953575             -0.639063            8.796595
| 61>   H                    : 4.662885             -1.266409            8.818576
| 62>   H                    : 4.973549             0.804206             9.958830
| 63>   H                    : 3.363525             0.470732             10.566065
| 64>   H                    : 4.584626             -0.733397            10.864630
| 65>   C                      5.916185             -3.212081            8.329294
| 66>   O                      5.831247             -2.627327            9.617049
| 67>   H                      6.040240             -3.306757            10.319235
| 68>   H                      4.969775             -3.579327            7.950076
| 69>   H                      6.245955             -2.522857            7.603715
| 70>   H                      6.491706             -4.086887            8.406894
| 71> *
| 72>
| 73>                          ****END OF INPUT****
 Total Charge           Charge          ....    0
 Multiplicity           Mult            ....    1
 Number of Electrons    NEL             ....   36
Dispersion correction           -0.002067019
FINAL SINGLE POINT ENERGY      -231.463506293957
Dispersion correction           -0.000255030
FINAL SINGLE POINT ENERGY      -115.728831739902

CARTESIAN COORDINATES (ANGSTROEM)
---------------------------------
  C      4.196622   -0.011702   10.072559
  O      3.953575   -0.639063    8.796595
  H      4.662885   -1.266409    8.818576
  H      4.973549    0.804206    9.958830
  H      3.363525    0.470732   10.566065
  H      4.584626   -0.733397   10.864630
  C      5.916185   -3.212081    8.329294
  O      5.831247   -2.627327    9.617049
  H      6.040240   -3.306757   10.319235
  H      4.969775   -3.579327    7.950076
  H      6.245955   -2.522857    7.603715
  H      6.491706   -4.086887    8.406894

 Multiplicity           Mult            ....    1
 Number of Electrons    NEL             ....   18
 Basis Dimension        Dim             ....  172

ORBITAL ENERGIES
----------------

  NO   OCC          E(Eh)            E(eV)
   0   2.0000     -19.231452      -523.3144
   1   2.0000     -10.303233      -280.3652
   2   2.0000      -1.126456       -30.6524
   3   2.0000      -0.801133       -21.7999
   4   2.0000      -0.611743       -16.6464
   5   2.0000      -0.542189       -14.7537
   6   2.0000      -0.531731       -14.4691
   7   2.0000      -0.433847       -11.8056
   8   2.0000      -0.369251       -10.0478
   9   0.0000       0.098244         2.6733
  10   0.0000       0.125470         3.4142
  11   0.0000       0.148467         4.0400
  12   0.0000       0.192421         5.2360
  13   0.0000       0.204421         5.5626

MULLIKEN ATOMIC CHARGES
-----------------------
   0 C :    0.006352
   1 O :   -0.003545
   2 H :    0.007063
   3 H :   -0.001334
   4 H :   -0.000213
   5 H :   -0.009382
   6 C :   -0.165927
   7 O :   -0.483074
   8 H :    0.316847
   9 H :    0.095155
  10 H :    0.124208
  11 H :    0.113853
Sum of atomic charges:    0.0000000

LOEWDIN ATOMIC CHARGES
----------------------
   0 C :   -0.013230
   1 O :   -0.004190
   2 H :   -0.028205
   3 H :   -0.000355
   4 H :   -0.000102
   5 H :   -0.008533
   6 C :   -0.365434
   7 O :   -0.058258
   8 H :    0.191000
   9 H :    0.095268
  10 H :    0.100652
  11 H :    0.091387

  Mayer bond orders larger than 0.1
B(  6-C ,  7-O ) :   1.0017 B(  6-C ,  9-H ) :   0.9758 B(  6-C , 10-H ) :   0.9800
B(  6-C , 11-H ) :   0.9838 B(  7-O ,  8-H ) :   0.8924

Dispersion correction           -0.000239039
FINAL SINGLE POINT ENERGY      -115.729720546427

DIPOLE MOMENT
-------------
                                X             Y             Z
Electronic contribution:     -0.04027       0.93015       1.52535
Nuclear contribution   :      0.22650      -1.62210      -1.61431
                        -----------------------------------------
Total Dipole Moment    :      0.18624      -0.69194      -0.08896
                        -----------------------------------------
Magnitude (a.u.)       :      0.72207
Magnitude (Debye)      :      1.83536

Rotational constants in cm-1:     4.497417     0.833291     0.793735
Rotational constants in MHz : 134829.171835 24981.430079 23795.580793

                             ****ORCA TERMINATED NORMALLY****
TOTAL RUN TIME: 0 days 0 hours 1 minutes 9 seconds 400 msec
