                         Program Version 4.1.2  - RELEASE  -
|  1> #Run DFT-D3 single point of the dimer
|  2> ! wB97X-D3 def2-TZVP TIGHTSCF CHELPG PMODEL PAL8
|  3>
|  4> %base "7-129_DFT_AB"
|  5>
|  6> %scf
|  7> MaxIter 1000
|  8> end
|  9>
| 10> * xyz 0 1
| 11>   C                      -4.463582            -1.354472            0.559463
| 12>   O                      -5.340438            -2.213762            -0.128602
| 13>   H                      -6.211150            -1.951602            -0.000589
| 14>   H                      -4.627158            -1.465617            1.596524
| 15>   H                      -3.468846            -1.728514            0.454134
| 16>   H                      -4.436178            -0.307758            0.291256
| 17>   C                      -8.587811            -5.711729            1.015743
| 18>   O                      -8.651256            -4.413905            1.663705
| 19>   H                      -9.360045            -4.427384            2.373298
| 20>   H                      -8.050251            -6.443600            1.630989
| 21>   H                      -9.606779            -6.084682            0.823730
| 22>   H                      -8.036534            -5.691645            0.135173
| 23> *
| 24>
| 25> #Run DFT-D3 single point of the molecule with dimer basis set
| 26> $new_job
| 27> %base "7-129_DFT_A"
| 28> ! wB97X-D3 def2-TZVP TIGHTSCF CHELPG PMODEL
| 29>
| 30> %scf
| 31> MaxIter 1000
| 32> end
| 33>
| 34> * xyz 0 1
| 35>   C                      -4.463582            -1.354472            0.559463
| 36>   O                      -5.340438            -2.213762            -0.128602
| 37>   H                      -6.211150            -1.951602            -0.000589
| 38>   H                      -4.627158            -1.465617            1.596524
| 39>   H                      -3.468846            -1.728514            0.454134
| 40>   H                      -4.436178            -0.307758            0.291256
| 41>   C                    : -8.587811            -5.711729            1.015743
| 42>   O                    : -8.651256            -4.413905            1.663705
| 43>   H                    : -9.360045            -4.427384            2.373298
| 44>   H                    : -8.050251            -6.443600            1.630989
| 45>   H                    : -9.606779            -6.084682            0.823730
| 46>   H                    : -8.036534            -5.691645            0.135173
| 47> *
| 48>
| 49> #Run DFT-D3 single point of the particle with dimer basis set
| 50> $new_job
| 51> %base "7-129_DFT_B"
| 52> ! wB97X-D3 def2-TZVP TIGHTSCF CHELPG PMODEL
| 53>
| 54> %scf
| 55> MaxIter 1000
| 56> end
| 57>
| 58> * xyz 0 1
| 59>   C                    : -4.463582            -1.354472            0.559463
| 60>   O                    : -5.340438            -2.213762            -0.128602
| 61>   H                    : -6.211150            -1.951602            -0.000589
| 62>   H                    : -4.627158            -1.465617            1.596524
| 63>   H                    : -3.468846            -1.728514            0.454134
| 64>   H                    : -4.436178            -0.307758            0.291256
| 65>   C                      -8.587811            -5.711729            1.015743
| 66>   O                      -8.651256            -4.413905            1.663705
| 67>   H                      -9.360045            -4.427384            2.373298
| 68>   H                      -8.050251            -6.443600            1.630989
| 69>   H                      -9.606779            -6.084682            0.823730
| 70>   H                      -8.036534            -5.691645            0.135173
| 71> *
| 72>
| 73>                          ****END OF INPUT****
 Total Charge           Charge          ....    0
 Multiplicity           Mult            ....    1
 Number of Electrons    NEL             ....   36
Dispersion correction           -0.000779536
FINAL SINGLE POINT ENERGY      -231.463744508426
Dispersion correction           -0.000239403
FINAL SINGLE POINT ENERGY      -115.731630072303

CARTESIAN COORDINATES (ANGSTROEM)
---------------------------------
  C     -4.463582   -1.354472    0.559463
  O     -5.340438   -2.213762   -0.128602
  H     -6.211150   -1.951602   -0.000589
  H     -4.627158   -1.465617    1.596524
  H     -3.468846   -1.728514    0.454134
  H     -4.436178   -0.307758    0.291256
  C     -8.587811   -5.711729    1.015743
  O     -8.651256   -4.413905    1.663705
  H     -9.360045   -4.427384    2.373298
  H     -8.050251   -6.443600    1.630989
  H     -9.606779   -6.084682    0.823730
  H     -8.036534   -5.691645    0.135173

 Multiplicity           Mult            ....    1
 Number of Electrons    NEL             ....   18
 Basis Dimension        Dim             ....  172

ORBITAL ENERGIES
----------------

  NO   OCC          E(Eh)            E(eV)
   0   2.0000     -19.232247      -523.3360
   1   2.0000     -10.311740      -280.5967
   2   2.0000      -1.115104       -30.3435
   3   2.0000      -0.799325       -21.7507
   4   2.0000      -0.597063       -16.2469
   5   2.0000      -0.538298       -14.6478
   6   2.0000      -0.529242       -14.4014
   7   2.0000      -0.432773       -11.7764
   8   2.0000      -0.372068       -10.1245
   9   0.0000       0.094467         2.5706
  10   0.0000       0.110733         3.0132
  11   0.0000       0.151209         4.1146
  12   0.0000       0.170893         4.6502
  13   0.0000       0.202855         5.5200

MULLIKEN ATOMIC CHARGES
-----------------------
   0 C :    0.000187
   1 O :    0.000017
   2 H :   -0.001100
   3 H :   -0.000104
   4 H :    0.000002
   5 H :   -0.000007
   6 C :   -0.159966
   7 O :   -0.488249
   8 H :    0.317671
   9 H :    0.101648
  10 H :    0.102833
  11 H :    0.127069
Sum of atomic charges:   -0.0000000

LOEWDIN ATOMIC CHARGES
----------------------
   0 C :   -0.000023
   1 O :   -0.000052
   2 H :   -0.000552
   3 H :   -0.000017
   4 H :   -0.000000
   5 H :   -0.000000
   6 C :   -0.353924
   7 O :   -0.125161
   8 H :    0.190182
   9 H :    0.096231
  10 H :    0.098746
  11 H :    0.094570

  Mayer bond orders larger than 0.1
B(  6-C ,  7-O ) :   0.9973 B(  6-C ,  9-H ) :   0.9748 B(  6-C , 10-H ) :   0.9818
B(  6-C , 11-H ) :   0.9735 B(  7-O ,  8-H ) :   0.8928

Dispersion correction           -0.000260540
FINAL SINGLE POINT ENERGY      -115.730967876823

DIPOLE MOMENT
-------------
                                X             Y             Z
Electronic contribution:      0.05171       1.69990       0.62140
Nuclear contribution   :     -0.45729      -2.25861      -0.47147
                        -----------------------------------------
Total Dipole Moment    :     -0.40557      -0.55871       0.14993
                        -----------------------------------------
Magnitude (a.u.)       :      0.70649
Magnitude (Debye)      :      1.79575

Rotational constants in cm-1:     4.350946     0.792759     0.764196
Rotational constants in MHz : 130438.093396 23766.310732 22910.020856

                             ****ORCA TERMINATED NORMALLY****
TOTAL RUN TIME: 0 days 0 hours 0 minutes 56 seconds 321 msec
