                         Program Version 4.1.2  - RELEASE  -
|  1> #Run DFT-D3 single point of the dimer
|  2> ! wB97X-D3 def2-TZVP TIGHTSCF CHELPG PMODEL PAL8
|  3>
|  4> %base "7-7_DFT_AB"
|  5>
|  6> %scf
|  7> MaxIter 1000
|  8> end
|  9>
| 10> * xyz 0 1
| 11>   C                      0.107441             2.741054             -3.055841
| 12>   O                      0.093632             2.479985             -1.676650
| 13>   H                      -0.116713            3.352322             -1.369150
| 14>   H                      0.781831             3.560905             -3.329535
| 15>   H                      0.429337             1.873700             -3.602147
| 16>   H                      -0.921354            2.900499             -3.482296
| 17>   C                      -2.313152            2.209491             1.472491
| 18>   O                      -3.409687            1.365567             1.882178
| 19>   H                      -3.929460            1.988193             2.385590
| 20>   H                      -1.861746            1.840108             0.494320
| 21>   H                      -2.520141            3.299756             1.321185
| 22>   H                      -1.539403            2.151524             2.219451
| 23> *
| 24>
| 25> #Run DFT-D3 single point of the molecule with dimer basis set
| 26> $new_job
| 27> %base "7-7_DFT_A"
| 28> ! wB97X-D3 def2-TZVP TIGHTSCF CHELPG PMODEL
| 29>
| 30> %scf
| 31> MaxIter 1000
| 32> end
| 33>
| 34> * xyz 0 1
| 35>   C                      0.107441             2.741054             -3.055841
| 36>   O                      0.093632             2.479985             -1.676650
| 37>   H                      -0.116713            3.352322             -1.369150
| 38>   H                      0.781831             3.560905             -3.329535
| 39>   H                      0.429337             1.873700             -3.602147
| 40>   H                      -0.921354            2.900499             -3.482296
| 41>   C                    : -2.313152            2.209491             1.472491
| 42>   O                    : -3.409687            1.365567             1.882178
| 43>   H                    : -3.929460            1.988193             2.385590
| 44>   H                    : -1.861746            1.840108             0.494320
| 45>   H                    : -2.520141            3.299756             1.321185
| 46>   H                    : -1.539403            2.151524             2.219451
| 47> *
| 48>
| 49> #Run DFT-D3 single point of the particle with dimer basis set
| 50> $new_job
| 51> %base "7-7_DFT_B"
| 52> ! wB97X-D3 def2-TZVP TIGHTSCF CHELPG PMODEL
| 53>
| 54> %scf
| 55> MaxIter 1000
| 56> end
| 57>
| 58> * xyz 0 1
| 59>   C                    : 0.107441             2.741054             -3.055841
| 60>   O                    : 0.093632             2.479985             -1.676650
| 61>   H                    : -0.116713            3.352322             -1.369150
| 62>   H                    : 0.781831             3.560905             -3.329535
| 63>   H                    : 0.429337             1.873700             -3.602147
| 64>   H                    : -0.921354            2.900499             -3.482296
| 65>   C                      -2.313152            2.209491             1.472491
| 66>   O                      -3.409687            1.365567             1.882178
| 67>   H                      -3.929460            1.988193             2.385590
| 68>   H                      -1.861746            1.840108             0.494320
| 69>   H                      -2.520141            3.299756             1.321185
| 70>   H                      -1.539403            2.151524             2.219451
| 71> *
| 72>
| 73>                          ****END OF INPUT****
 Total Charge           Charge          ....    0
 Multiplicity           Mult            ....    1
 Number of Electrons    NEL             ....   36
Dispersion correction           -0.001102263
FINAL SINGLE POINT ENERGY      -231.464541059906
Dispersion correction           -0.000223019
FINAL SINGLE POINT ENERGY      -115.732799386926

CARTESIAN COORDINATES (ANGSTROEM)
---------------------------------
  C      0.107441    2.741054   -3.055841
  O      0.093632    2.479985   -1.676650
  H     -0.116713    3.352322   -1.369150
  H      0.781831    3.560905   -3.329535
  H      0.429337    1.873700   -3.602147
  H     -0.921354    2.900499   -3.482296
  C     -2.313152    2.209491    1.472491
  O     -3.409687    1.365567    1.882178
  H     -3.929460    1.988193    2.385590
  H     -1.861746    1.840108    0.494320
  H     -2.520141    3.299756    1.321185
  H     -1.539403    2.151524    2.219451

 Multiplicity           Mult            ....    1
 Number of Electrons    NEL             ....   18
 Basis Dimension        Dim             ....  172

ORBITAL ENERGIES
----------------

  NO   OCC          E(Eh)            E(eV)
   0   2.0000     -19.234912      -523.4086
   1   2.0000     -10.321574      -280.8643
   2   2.0000      -1.135310       -30.8934
   3   2.0000      -0.791285       -21.5319
   4   2.0000      -0.606670       -16.5083
   5   2.0000      -0.537916       -14.6374
   6   2.0000      -0.517070       -14.0702
   7   2.0000      -0.444556       -12.0970
   8   2.0000      -0.376274       -10.2389
   9   0.0000       0.083468         2.2713
  10   0.0000       0.115087         3.1317
  11   0.0000       0.138144         3.7591
  12   0.0000       0.177312         4.8249
  13   0.0000       0.186890         5.0855

MULLIKEN ATOMIC CHARGES
-----------------------
   0 C :   -0.000008
   1 O :   -0.000010
   2 H :   -0.000389
   3 H :   -0.000007
   4 H :    0.000004
   5 H :   -0.000028
   6 C :   -0.186851
   7 O :   -0.460313
   8 H :    0.313320
   9 H :    0.114573
  10 H :    0.109200
  11 H :    0.110507
Sum of atomic charges:    0.0000000

LOEWDIN ATOMIC CHARGES
----------------------
   0 C :   -0.000185
   1 O :   -0.001337
   2 H :   -0.000915
   3 H :   -0.000003
   4 H :   -0.000003
   5 H :   -0.000015
   6 C :   -0.380460
   7 O :   -0.091129
   8 H :    0.167033
   9 H :    0.114414
  10 H :    0.100931
  11 H :    0.091670

  Mayer bond orders larger than 0.1
B(  6-C ,  7-O ) :   1.0034 B(  6-C ,  9-H ) :   0.9751 B(  6-C , 10-H ) :   0.9722
B(  6-C , 11-H ) :   0.9757 B(  7-O ,  8-H ) :   0.9046

Dispersion correction           -0.000256277
FINAL SINGLE POINT ENERGY      -115.731023241521

DIPOLE MOMENT
-------------
                                X             Y             Z
Electronic contribution:     -1.45099      -1.21181       0.48665
Nuclear contribution   :      1.55627       1.93705      -0.32973
                        -----------------------------------------
Total Dipole Moment    :      0.10528       0.72524       0.15692
                        -----------------------------------------
Magnitude (a.u.)       :      0.74945
Magnitude (Debye)      :      1.90496

Rotational constants in cm-1:     4.209066     0.804387     0.770869
Rotational constants in MHz : 126184.624857 24114.901979 23110.077380

                             ****ORCA TERMINATED NORMALLY****
TOTAL RUN TIME: 0 days 0 hours 1 minutes 3 seconds 41 msec
