                         Program Version 4.1.2  - RELEASE  -
|  1> #Run DFT-D3 single point of the dimer
|  2> ! wB97X-D3 def2-TZVP TIGHTSCF CHELPG PMODEL PAL8
|  3>
|  4> %base "14-183_DFT_AB"
|  5>
|  6> %scf
|  7> MaxIter 1000
|  8> end
|  9>
| 10> * xyz 0 1
| 11>   C                      -7.843027            -0.882239            -2.754073
| 12>   O                      -9.193074            -1.118731            -2.474534
| 13>   H                      -9.652750            -1.017873            -3.287575
| 14>   H                      -7.371929            -1.627741            -3.347595
| 15>   H                      -7.628917            0.068797             -3.222321
| 16>   H                      -7.300659            -0.858248            -1.751881
| 17>   C                      -10.153095           2.654705             -1.361434
| 18>   O                      -9.305407            2.119193             -2.346991
| 19>   H                      -9.041517            1.209079             -2.149409
| 20>   H                      -9.846451            2.527660             -0.345899
| 21>   H                      -10.374274           3.691955             -1.601794
| 22>   H                      -11.080361           2.100532             -1.473576
| 23> *
| 24>
| 25> #Run DFT-D3 single point of the molecule with dimer basis set
| 26> $new_job
| 27> %base "14-183_DFT_A"
| 28> ! wB97X-D3 def2-TZVP TIGHTSCF CHELPG PMODEL
| 29>
| 30> %scf
| 31> MaxIter 1000
| 32> end
| 33>
| 34> * xyz 0 1
| 35>   C                      -7.843027            -0.882239            -2.754073
| 36>   O                      -9.193074            -1.118731            -2.474534
| 37>   H                      -9.652750            -1.017873            -3.287575
| 38>   H                      -7.371929            -1.627741            -3.347595
| 39>   H                      -7.628917            0.068797             -3.222321
| 40>   H                      -7.300659            -0.858248            -1.751881
| 41>   C                    : -10.153095           2.654705             -1.361434
| 42>   O                    : -9.305407            2.119193             -2.346991
| 43>   H                    : -9.041517            1.209079             -2.149409
| 44>   H                    : -9.846451            2.527660             -0.345899
| 45>   H                    : -10.374274           3.691955             -1.601794
| 46>   H                    : -11.080361           2.100532             -1.473576
| 47> *
| 48>
| 49> #Run DFT-D3 single point of the particle with dimer basis set
| 50> $new_job
| 51> %base "14-183_DFT_B"
| 52> ! wB97X-D3 def2-TZVP TIGHTSCF CHELPG PMODEL
| 53>
| 54> %scf
| 55> MaxIter 1000
| 56> end
| 57>
| 58> * xyz 0 1
| 59>   C                    : -7.843027            -0.882239            -2.754073
| 60>   O                    : -9.193074            -1.118731            -2.474534
| 61>   H                    : -9.652750            -1.017873            -3.287575
| 62>   H                    : -7.371929            -1.627741            -3.347595
| 63>   H                    : -7.628917            0.068797             -3.222321
| 64>   H                    : -7.300659            -0.858248            -1.751881
| 65>   C                      -10.153095           2.654705             -1.361434
| 66>   O                      -9.305407            2.119193             -2.346991
| 67>   H                      -9.041517            1.209079             -2.149409
| 68>   H                      -9.846451            2.527660             -0.345899
| 69>   H                      -10.374274           3.691955             -1.601794
| 70>   H                      -11.080361           2.100532             -1.473576
| 71> *
| 72>
| 73>                          ****END OF INPUT****
 Total Charge           Charge          ....    0
 Multiplicity           Mult            ....    1
 Number of Electrons    NEL             ....   36
Dispersion correction           -0.001766159
FINAL SINGLE POINT ENERGY      -231.472791615678
Dispersion correction           -0.000236631
FINAL SINGLE POINT ENERGY      -115.734509351016

CARTESIAN COORDINATES (ANGSTROEM)
---------------------------------
  C     -7.843027   -0.882239   -2.754073
  O     -9.193074   -1.118731   -2.474534
  H     -9.652750   -1.017873   -3.287575
  H     -7.371929   -1.627741   -3.347595
  H     -7.628917    0.068797   -3.222321
  H     -7.300659   -0.858248   -1.751881
  C    -10.153095    2.654705   -1.361434
  O     -9.305407    2.119193   -2.346991
  H     -9.041517    1.209079   -2.149409
  H     -9.846451    2.527660   -0.345899
  H    -10.374274    3.691955   -1.601794
  H    -11.080361    2.100532   -1.473576

 Multiplicity           Mult            ....    1
 Number of Electrons    NEL             ....   18
 Basis Dimension        Dim             ....  172

ORBITAL ENERGIES
----------------

  NO   OCC          E(Eh)            E(eV)
   0   2.0000     -19.227406      -523.2043
   1   2.0000     -10.308100      -280.4977
   2   2.0000      -1.133862       -30.8540
   3   2.0000      -0.798797       -21.7364
   4   2.0000      -0.614358       -16.7175
   5   2.0000      -0.541101       -14.7241
   6   2.0000      -0.531732       -14.4692
   7   2.0000      -0.431999       -11.7553
   8   2.0000      -0.368385       -10.0243
   9   0.0000       0.073577         2.0021
  10   0.0000       0.135544         3.6883
  11   0.0000       0.159959         4.3527
  12   0.0000       0.162976         4.4348
  13   0.0000       0.193477         5.2648

MULLIKEN ATOMIC CHARGES
-----------------------
   0 C :   -0.000878
   1 O :   -0.001052
   2 H :   -0.001407
   3 H :    0.000165
   4 H :   -0.001133
   5 H :   -0.000120
   6 C :   -0.155625
   7 O :   -0.479564
   8 H :    0.311852
   9 H :    0.105312
  10 H :    0.120581
  11 H :    0.101870
Sum of atomic charges:    0.0000000

LOEWDIN ATOMIC CHARGES
----------------------
   0 C :   -0.011739
   1 O :   -0.005332
   2 H :   -0.001864
   3 H :   -0.000136
   4 H :   -0.004024
   5 H :   -0.000631
   6 C :   -0.382422
   7 O :   -0.067670
   8 H :    0.179573
   9 H :    0.088750
  10 H :    0.109577
  11 H :    0.095918

  Mayer bond orders larger than 0.1
B(  6-C ,  7-O ) :   0.9861 B(  6-C ,  9-H ) :   0.9721 B(  6-C , 10-H ) :   0.9716
B(  6-C , 11-H ) :   0.9895 B(  7-O ,  8-H ) :   0.9014

Dispersion correction           -0.000232588
FINAL SINGLE POINT ENERGY      -115.733606417047

DIPOLE MOMENT
-------------
                                X             Y             Z
Electronic contribution:      1.17521      -0.46528      -1.20891
Nuclear contribution   :     -1.36098       0.10637       1.73701
                        -----------------------------------------
Total Dipole Moment    :     -0.18577      -0.35891       0.52810
                        -----------------------------------------
Magnitude (a.u.)       :      0.66499
Magnitude (Debye)      :      1.69028

Rotational constants in cm-1:     4.405134     0.842215     0.807334
Rotational constants in MHz : 132062.581724 25248.955844 24203.272023

                             ****ORCA TERMINATED NORMALLY****
TOTAL RUN TIME: 0 days 0 hours 1 minutes 3 seconds 997 msec
