                         Program Version 4.1.2  - RELEASE  -
|  1> #Run DFT-D3 single point of the dimer
|  2> ! wB97X-D3 def2-TZVP TIGHTSCF CHELPG PMODEL PAL8
|  3>
|  4> %base "13-186_DFT_AB"
|  5>
|  6> %scf
|  7> MaxIter 1000
|  8> end
|  9>
| 10> * xyz 0 1
| 11>   C                      1.910665             -7.406347            -1.538785
| 12>   O                      2.346387             -8.085483            -0.372654
| 13>   H                      1.583944             -8.353732            0.133408
| 14>   H                      1.126425             -6.632266            -1.441613
| 15>   H                      2.766215             -6.993816            -2.162697
| 16>   H                      1.572978             -8.172519            -2.191011
| 17>   C                      0.792838             -9.070158            2.401882
| 18>   O                      0.276286             -9.218674            1.112925
| 19>   H                      0.124117             -10.154247           0.983870
| 20>   H                      1.551485             -9.769572            2.706125
| 21>   H                      1.156227             -7.997919            2.475319
| 22>   H                      0.128918             -9.274081            3.271337
| 23> *
| 24>
| 25> #Run DFT-D3 single point of the molecule with dimer basis set
| 26> $new_job
| 27> %base "13-186_DFT_A"
| 28> ! wB97X-D3 def2-TZVP TIGHTSCF CHELPG PMODEL
| 29>
| 30> %scf
| 31> MaxIter 1000
| 32> end
| 33>
| 34> * xyz 0 1
| 35>   C                      1.910665             -7.406347            -1.538785
| 36>   O                      2.346387             -8.085483            -0.372654
| 37>   H                      1.583944             -8.353732            0.133408
| 38>   H                      1.126425             -6.632266            -1.441613
| 39>   H                      2.766215             -6.993816            -2.162697
| 40>   H                      1.572978             -8.172519            -2.191011
| 41>   C                    : 0.792838             -9.070158            2.401882
| 42>   O                    : 0.276286             -9.218674            1.112925
| 43>   H                    : 0.124117             -10.154247           0.983870
| 44>   H                    : 1.551485             -9.769572            2.706125
| 45>   H                    : 1.156227             -7.997919            2.475319
| 46>   H                    : 0.128918             -9.274081            3.271337
| 47> *
| 48>
| 49> #Run DFT-D3 single point of the particle with dimer basis set
| 50> $new_job
| 51> %base "13-186_DFT_B"
| 52> ! wB97X-D3 def2-TZVP TIGHTSCF CHELPG PMODEL
| 53>
| 54> %scf
| 55> MaxIter 1000
| 56> end
| 57>
| 58> * xyz 0 1
| 59>   C                    : 1.910665             -7.406347            -1.538785
| 60>   O                    : 2.346387             -8.085483            -0.372654
| 61>   H                    : 1.583944             -8.353732            0.133408
| 62>   H                    : 1.126425             -6.632266            -1.441613
| 63>   H                    : 2.766215             -6.993816            -2.162697
| 64>   H                    : 1.572978             -8.172519            -2.191011
| 65>   C                      0.792838             -9.070158            2.401882
| 66>   O                      0.276286             -9.218674            1.112925
| 67>   H                      0.124117             -10.154247           0.983870
| 68>   H                      1.551485             -9.769572            2.706125
| 69>   H                      1.156227             -7.997919            2.475319
| 70>   H                      0.128918             -9.274081            3.271337
| 71> *
| 72>
| 73>                          ****END OF INPUT****
 Total Charge           Charge          ....    0
 Multiplicity           Mult            ....    1
 Number of Electrons    NEL             ....   36
Dispersion correction           -0.001765380
FINAL SINGLE POINT ENERGY      -231.467184200558
Dispersion correction           -0.000253578
FINAL SINGLE POINT ENERGY      -115.729844540316

CARTESIAN COORDINATES (ANGSTROEM)
---------------------------------
  C      1.910665   -7.406347   -1.538785
  O      2.346387   -8.085483   -0.372654
  H      1.583944   -8.353732    0.133408
  H      1.126425   -6.632266   -1.441613
  H      2.766215   -6.993816   -2.162697
  H      1.572978   -8.172519   -2.191011
  C      0.792838   -9.070158    2.401882
  O      0.276286   -9.218674    1.112925
  H      0.124117  -10.154247    0.983870
  H      1.551485   -9.769572    2.706125
  H      1.156227   -7.997919    2.475319
  H      0.128918   -9.274081    3.271337

 Multiplicity           Mult            ....    1
 Number of Electrons    NEL             ....   18
 Basis Dimension        Dim             ....  172

ORBITAL ENERGIES
----------------

  NO   OCC          E(Eh)            E(eV)
   0   2.0000     -19.237716      -523.4849
   1   2.0000     -10.315927      -280.7106
   2   2.0000      -1.147111       -31.2145
   3   2.0000      -0.794878       -21.6297
   4   2.0000      -0.628759       -17.1094
   5   2.0000      -0.527548       -14.3553
   6   2.0000      -0.523715       -14.2510
   7   2.0000      -0.445119       -12.1123
   8   2.0000      -0.371367       -10.1054
   9   0.0000       0.097622         2.6564
  10   0.0000       0.122716         3.3393
  11   0.0000       0.149716         4.0740
  12   0.0000       0.182665         4.9706
  13   0.0000       0.205739         5.5984

MULLIKEN ATOMIC CHARGES
-----------------------
   0 C :    0.000427
   1 O :   -0.004217
   2 H :    0.004270
   3 H :   -0.000549
   4 H :   -0.000088
   5 H :   -0.000978
   6 C :   -0.178194
   7 O :   -0.458825
   8 H :    0.312472
   9 H :    0.104780
  10 H :    0.122378
  11 H :    0.098524
Sum of atomic charges:    0.0000000

LOEWDIN ATOMIC CHARGES
----------------------
   0 C :   -0.002764
   1 O :   -0.007318
   2 H :   -0.048427
   3 H :   -0.000176
   4 H :   -0.000038
   5 H :   -0.000276
   6 C :   -0.409762
   7 O :   -0.009073
   8 H :    0.169957
   9 H :    0.089997
  10 H :    0.121409
  11 H :    0.096470

  Mayer bond orders larger than 0.1
B(  6-C ,  7-O ) :   0.9945 B(  6-C ,  9-H ) :   0.9734 B(  6-C , 10-H ) :   0.9814
B(  6-C , 11-H ) :   0.9630 B(  7-O ,  8-H ) :   0.8988

Dispersion correction           -0.000255173
FINAL SINGLE POINT ENERGY      -115.730017049297

DIPOLE MOMENT
-------------
                                X             Y             Z
Electronic contribution:     -0.68985      -0.08901      -1.86198
Nuclear contribution   :      0.79145      -0.47295       2.26561
                        -----------------------------------------
Total Dipole Moment    :      0.10160      -0.56197       0.40363
                        -----------------------------------------
Magnitude (a.u.)       :      0.69932
Magnitude (Debye)      :      1.77753

Rotational constants in cm-1:     4.354158     0.845423     0.795578
Rotational constants in MHz : 130534.362689 25345.154757 23850.827559

                             ****ORCA TERMINATED NORMALLY****
TOTAL RUN TIME: 0 days 0 hours 1 minutes 11 seconds 878 msec
