                         Program Version 4.1.2  - RELEASE  -
|  1> #Run DFT-D3 single point of the dimer
|  2> ! wB97X-D3 def2-TZVP TIGHTSCF CHELPG PMODEL PAL8
|  3>
|  4> %base "18-88_DFT_AB"
|  5>
|  6> %scf
|  7> MaxIter 1000
|  8> end
|  9>
| 10> * xyz 0 1
| 11>   C                      1.101496             -2.053978            7.307832
| 12>   O                      1.384987             -2.297058            5.969188
| 13>   H                      1.151471             -3.185395            5.702275
| 14>   H                      1.317104             -1.048099            7.698919
| 15>   H                      0.046442             -2.231063            7.406682
| 16>   H                      1.610017             -2.809292            7.907819
| 17>   C                      3.469008             -1.396693            3.312950
| 18>   O                      3.053525             -0.547470            4.334124
| 19>   H                      2.250818             -0.779523            4.803818
| 20>   H                      2.663102             -1.734516            2.755334
| 21>   H                      4.191269             -0.832370            2.641933
| 22>   H                      4.043062             -2.278263            3.746632
| 23> *
| 24>
| 25> #Run DFT-D3 single point of the molecule with dimer basis set
| 26> $new_job
| 27> %base "18-88_DFT_A"
| 28> ! wB97X-D3 def2-TZVP TIGHTSCF CHELPG PMODEL
| 29>
| 30> %scf
| 31> MaxIter 1000
| 32> end
| 33>
| 34> * xyz 0 1
| 35>   C                      1.101496             -2.053978            7.307832
| 36>   O                      1.384987             -2.297058            5.969188
| 37>   H                      1.151471             -3.185395            5.702275
| 38>   H                      1.317104             -1.048099            7.698919
| 39>   H                      0.046442             -2.231063            7.406682
| 40>   H                      1.610017             -2.809292            7.907819
| 41>   C                    : 3.469008             -1.396693            3.312950
| 42>   O                    : 3.053525             -0.547470            4.334124
| 43>   H                    : 2.250818             -0.779523            4.803818
| 44>   H                    : 2.663102             -1.734516            2.755334
| 45>   H                    : 4.191269             -0.832370            2.641933
| 46>   H                    : 4.043062             -2.278263            3.746632
| 47> *
| 48>
| 49> #Run DFT-D3 single point of the particle with dimer basis set
| 50> $new_job
| 51> %base "18-88_DFT_B"
| 52> ! wB97X-D3 def2-TZVP TIGHTSCF CHELPG PMODEL
| 53>
| 54> %scf
| 55> MaxIter 1000
| 56> end
| 57>
| 58> * xyz 0 1
| 59>   C                    : 1.101496             -2.053978            7.307832
| 60>   O                    : 1.384987             -2.297058            5.969188
| 61>   H                    : 1.151471             -3.185395            5.702275
| 62>   H                    : 1.317104             -1.048099            7.698919
| 63>   H                    : 0.046442             -2.231063            7.406682
| 64>   H                    : 1.610017             -2.809292            7.907819
| 65>   C                      3.469008             -1.396693            3.312950
| 66>   O                      3.053525             -0.547470            4.334124
| 67>   H                      2.250818             -0.779523            4.803818
| 68>   H                      2.663102             -1.734516            2.755334
| 69>   H                      4.191269             -0.832370            2.641933
| 70>   H                      4.043062             -2.278263            3.746632
| 71> *
| 72>
| 73>                          ****END OF INPUT****
 Total Charge           Charge          ....    0
 Multiplicity           Mult            ....    1
 Number of Electrons    NEL             ....   36
Dispersion correction           -0.001683484
FINAL SINGLE POINT ENERGY      -231.468119554556
Dispersion correction           -0.000215820
FINAL SINGLE POINT ENERGY      -115.730871068104

CARTESIAN COORDINATES (ANGSTROEM)
---------------------------------
  C      1.101496   -2.053978    7.307832
  O      1.384987   -2.297058    5.969188
  H      1.151471   -3.185395    5.702275
  H      1.317104   -1.048099    7.698919
  H      0.046442   -2.231063    7.406682
  H      1.610017   -2.809292    7.907819
  C      3.469008   -1.396693    3.312950
  O      3.053525   -0.547470    4.334124
  H      2.250818   -0.779523    4.803818
  H      2.663102   -1.734516    2.755334
  H      4.191269   -0.832370    2.641933
  H      4.043062   -2.278263    3.746632

 Multiplicity           Mult            ....    1
 Number of Electrons    NEL             ....   18
 Basis Dimension        Dim             ....  172

ORBITAL ENERGIES
----------------

  NO   OCC          E(Eh)            E(eV)
   0   2.0000     -19.225569      -523.1543
   1   2.0000     -10.315006      -280.6856
   2   2.0000      -1.137290       -30.9472
   3   2.0000      -0.797005       -21.6876
   4   2.0000      -0.618785       -16.8380
   5   2.0000      -0.542452       -14.7609
   6   2.0000      -0.528202       -14.3731
   7   2.0000      -0.421672       -11.4743
   8   2.0000      -0.369498       -10.0545
   9   0.0000       0.071843         1.9549
  10   0.0000       0.129986         3.5371
  11   0.0000       0.147874         4.0239
  12   0.0000       0.170555         4.6410
  13   0.0000       0.192488         5.2379

MULLIKEN ATOMIC CHARGES
-----------------------
   0 C :   -0.004659
   1 O :   -0.004095
   2 H :    0.000020
   3 H :   -0.000061
   4 H :    0.000117
   5 H :    0.000336
   6 C :   -0.144962
   7 O :   -0.487707
   8 H :    0.320152
   9 H :    0.110632
  10 H :    0.116883
  11 H :    0.093345
Sum of atomic charges:    0.0000000

LOEWDIN ATOMIC CHARGES
----------------------
   0 C :   -0.003454
   1 O :   -0.015515
   2 H :   -0.000866
   3 H :   -0.000313
   4 H :   -0.000079
   5 H :   -0.000059
   6 C :   -0.395707
   7 O :   -0.054996
   8 H :    0.170588
   9 H :    0.081649
  10 H :    0.117308
  11 H :    0.101446

  Mayer bond orders larger than 0.1
B(  6-C ,  7-O ) :   0.9902 B(  6-C ,  9-H ) :   0.9817 B(  6-C , 10-H ) :   0.9715
B(  6-C , 11-H ) :   0.9754 B(  7-O ,  8-H ) :   0.8941

Dispersion correction           -0.000250589
FINAL SINGLE POINT ENERGY      -115.731076631917

DIPOLE MOMENT
-------------
                                X             Y             Z
Electronic contribution:     -0.57080       1.13666       1.21200
Nuclear contribution   :      0.17892      -1.61603      -1.33548
                        -----------------------------------------
Total Dipole Moment    :     -0.39188      -0.47937      -0.12347
                        -----------------------------------------
Magnitude (a.u.)       :      0.63136
Magnitude (Debye)      :      1.60478

Rotational constants in cm-1:     4.325735     0.841018     0.815786
Rotational constants in MHz : 129682.277068 25213.076332 24456.641089

                             ****ORCA TERMINATED NORMALLY****
TOTAL RUN TIME: 0 days 0 hours 1 minutes 5 seconds 856 msec
