                         Program Version 4.1.2  - RELEASE  -
|  1> #Run DFT-D3 single point of the dimer
|  2> ! wB97X-D3 def2-TZVP TIGHTSCF CHELPG PMODEL PAL8
|  3>
|  4> %base "17-149_DFT_AB"
|  5>
|  6> %scf
|  7> MaxIter 1000
|  8> end
|  9>
| 10> * xyz 0 1
| 11>   C                      10.203951            1.252872             -11.061372
| 12>   O                      9.891632             1.233883             -9.680468
| 13>   H                      9.214858             0.514658             -9.573875
| 14>   H                      10.398544            0.211944             -11.358739
| 15>   H                      9.434172             1.617646             -11.717113
| 16>   H                      11.011528            1.917265             -11.319516
| 17>   C                      9.366187             0.624596             -5.339413
| 18>   O                      10.301075            0.533873             -6.427278
| 19>   H                      10.001555            1.286976             -6.961508
| 20>   H                      8.946661             -0.335658            -5.017299
| 21>   H                      9.898062             0.986266             -4.445433
| 22>   H                      8.551581             1.369687             -5.505726
| 23> *
| 24>
| 25> #Run DFT-D3 single point of the molecule with dimer basis set
| 26> $new_job
| 27> %base "17-149_DFT_A"
| 28> ! wB97X-D3 def2-TZVP TIGHTSCF CHELPG PMODEL
| 29>
| 30> %scf
| 31> MaxIter 1000
| 32> end
| 33>
| 34> * xyz 0 1
| 35>   C                      10.203951            1.252872             -11.061372
| 36>   O                      9.891632             1.233883             -9.680468
| 37>   H                      9.214858             0.514658             -9.573875
| 38>   H                      10.398544            0.211944             -11.358739
| 39>   H                      9.434172             1.617646             -11.717113
| 40>   H                      11.011528            1.917265             -11.319516
| 41>   C                    : 9.366187             0.624596             -5.339413
| 42>   O                    : 10.301075            0.533873             -6.427278
| 43>   H                    : 10.001555            1.286976             -6.961508
| 44>   H                    : 8.946661             -0.335658            -5.017299
| 45>   H                    : 9.898062             0.986266             -4.445433
| 46>   H                    : 8.551581             1.369687             -5.505726
| 47> *
| 48>
| 49> #Run DFT-D3 single point of the particle with dimer basis set
| 50> $new_job
| 51> %base "17-149_DFT_B"
| 52> ! wB97X-D3 def2-TZVP TIGHTSCF CHELPG PMODEL
| 53>
| 54> %scf
| 55> MaxIter 1000
| 56> end
| 57>
| 58> * xyz 0 1
| 59>   C                    : 10.203951            1.252872             -11.061372
| 60>   O                    : 9.891632             1.233883             -9.680468
| 61>   H                    : 9.214858             0.514658             -9.573875
| 62>   H                    : 10.398544            0.211944             -11.358739
| 63>   H                    : 9.434172             1.617646             -11.717113
| 64>   H                    : 11.011528            1.917265             -11.319516
| 65>   C                      9.366187             0.624596             -5.339413
| 66>   O                      10.301075            0.533873             -6.427278
| 67>   H                      10.001555            1.286976             -6.961508
| 68>   H                      8.946661             -0.335658            -5.017299
| 69>   H                      9.898062             0.986266             -4.445433
| 70>   H                      8.551581             1.369687             -5.505726
| 71> *
| 72>
| 73>                          ****END OF INPUT****
 Total Charge           Charge          ....    0
 Multiplicity           Mult            ....    1
 Number of Electrons    NEL             ....   36
Dispersion correction           -0.001192419
FINAL SINGLE POINT ENERGY      -231.465699396793
Dispersion correction           -0.000235099
FINAL SINGLE POINT ENERGY      -115.731484229090

CARTESIAN COORDINATES (ANGSTROEM)
---------------------------------
  C     10.203951    1.252872  -11.061372
  O      9.891632    1.233883   -9.680468
  H      9.214858    0.514658   -9.573875
  H     10.398544    0.211944  -11.358739
  H      9.434172    1.617646  -11.717113
  H     11.011528    1.917265  -11.319516
  C      9.366187    0.624596   -5.339413
  O     10.301075    0.533873   -6.427278
  H     10.001555    1.286976   -6.961508
  H      8.946661   -0.335658   -5.017299
  H      9.898062    0.986266   -4.445433
  H      8.551581    1.369687   -5.505726

 Multiplicity           Mult            ....    1
 Number of Electrons    NEL             ....   18
 Basis Dimension        Dim             ....  172

ORBITAL ENERGIES
----------------

  NO   OCC          E(Eh)            E(eV)
   0   2.0000     -19.236421      -523.4496
   1   2.0000     -10.318930      -280.7924
   2   2.0000      -1.134420       -30.8692
   3   2.0000      -0.791561       -21.5395
   4   2.0000      -0.607045       -16.5185
   5   2.0000      -0.532569       -14.4919
   6   2.0000      -0.525648       -14.3036
   7   2.0000      -0.447132       -12.1671
   8   2.0000      -0.373352       -10.1594
   9   0.0000       0.082474         2.2442
  10   0.0000       0.114490         3.1154
  11   0.0000       0.148266         4.0345
  12   0.0000       0.181089         4.9277
  13   0.0000       0.191388         5.2079

MULLIKEN ATOMIC CHARGES
-----------------------
   0 C :    0.000069
   1 O :   -0.000931
   2 H :   -0.002737
   3 H :   -0.000034
   4 H :   -0.000017
   5 H :    0.000037
   6 C :   -0.188808
   7 O :   -0.455164
   8 H :    0.318407
   9 H :    0.114634
  10 H :    0.108014
  11 H :    0.106530
Sum of atomic charges:   -0.0000000

LOEWDIN ATOMIC CHARGES
----------------------
   0 C :   -0.000157
   1 O :   -0.003130
   2 H :   -0.002467
   3 H :   -0.000005
   4 H :   -0.000005
   5 H :   -0.000005
   6 C :   -0.382966
   7 O :   -0.092297
   8 H :    0.179458
   9 H :    0.101537
  10 H :    0.099045
  11 H :    0.100990

  Mayer bond orders larger than 0.1
B(  6-C ,  7-O ) :   1.0135 B(  6-C ,  9-H ) :   0.9733 B(  6-C , 10-H ) :   0.9784
B(  6-C , 11-H ) :   0.9822 B(  7-O ,  8-H ) :   0.9001

Dispersion correction           -0.000253057
FINAL SINGLE POINT ENERGY      -115.731310651778

DIPOLE MOMENT
-------------
                                X             Y             Z
Electronic contribution:      1.25008      -0.32767      -1.45228
Nuclear contribution   :     -1.79967       0.83233       1.56126
                        -----------------------------------------
Total Dipole Moment    :     -0.54960       0.50467       0.10898
                        -----------------------------------------
Magnitude (a.u.)       :      0.75407
Magnitude (Debye)      :      1.91669

Rotational constants in cm-1:     4.213465     0.814410     0.775574
Rotational constants in MHz : 126316.491951 24415.393893 23251.118498

                             ****ORCA TERMINATED NORMALLY****
TOTAL RUN TIME: 0 days 0 hours 1 minutes 11 seconds 473 msec
