                         Program Version 4.1.2  - RELEASE  -
|  1> #Run DFT-D3 single point of the dimer
|  2> ! wB97X-D3 def2-TZVP TIGHTSCF CHELPG PMODEL PAL8
|  3>
|  4> %base "17-12_DFT_AB"
|  5>
|  6> %scf
|  7> MaxIter 1000
|  8> end
|  9>
| 10> * xyz 0 1
| 11>   C                      -4.021581            2.799748             -3.951247
| 12>   O                      -3.968984            3.408857             -2.693875
| 13>   H                      -3.428997            4.133400             -2.976944
| 14>   H                      -4.837682            2.116741             -4.115847
| 15>   H                      -4.388551            3.544017             -4.698766
| 16>   H                      -3.031499            2.512948             -4.232440
| 17>   C                      -2.415535            -0.971302            -7.674667
| 18>   O                      -3.117178            -0.081729            -6.746123
| 19>   H                      -3.902999            0.348662             -7.180337
| 20>   H                      -1.751958            -0.437656            -8.368405
| 21>   H                      -1.859473            -1.788429            -7.245069
| 22>   H                      -3.184254            -1.533560            -8.318336
| 23> *
| 24>
| 25> #Run DFT-D3 single point of the molecule with dimer basis set
| 26> $new_job
| 27> %base "17-12_DFT_A"
| 28> ! wB97X-D3 def2-TZVP TIGHTSCF CHELPG PMODEL
| 29>
| 30> %scf
| 31> MaxIter 1000
| 32> end
| 33>
| 34> * xyz 0 1
| 35>   C                      -4.021581            2.799748             -3.951247
| 36>   O                      -3.968984            3.408857             -2.693875
| 37>   H                      -3.428997            4.133400             -2.976944
| 38>   H                      -4.837682            2.116741             -4.115847
| 39>   H                      -4.388551            3.544017             -4.698766
| 40>   H                      -3.031499            2.512948             -4.232440
| 41>   C                    : -2.415535            -0.971302            -7.674667
| 42>   O                    : -3.117178            -0.081729            -6.746123
| 43>   H                    : -3.902999            0.348662             -7.180337
| 44>   H                    : -1.751958            -0.437656            -8.368405
| 45>   H                    : -1.859473            -1.788429            -7.245069
| 46>   H                    : -3.184254            -1.533560            -8.318336
| 47> *
| 48>
| 49> #Run DFT-D3 single point of the particle with dimer basis set
| 50> $new_job
| 51> %base "17-12_DFT_B"
| 52> ! wB97X-D3 def2-TZVP TIGHTSCF CHELPG PMODEL
| 53>
| 54> %scf
| 55> MaxIter 1000
| 56> end
| 57>
| 58> * xyz 0 1
| 59>   C                    : -4.021581            2.799748             -3.951247
| 60>   O                    : -3.968984            3.408857             -2.693875
| 61>   H                    : -3.428997            4.133400             -2.976944
| 62>   H                    : -4.837682            2.116741             -4.115847
| 63>   H                    : -4.388551            3.544017             -4.698766
| 64>   H                    : -3.031499            2.512948             -4.232440
| 65>   C                      -2.415535            -0.971302            -7.674667
| 66>   O                      -3.117178            -0.081729            -6.746123
| 67>   H                      -3.902999            0.348662             -7.180337
| 68>   H                      -1.751958            -0.437656            -8.368405
| 69>   H                      -1.859473            -1.788429            -7.245069
| 70>   H                      -3.184254            -1.533560            -8.318336
| 71> *
| 72>
| 73>                          ****END OF INPUT****
 Total Charge           Charge          ....    0
 Multiplicity           Mult            ....    1
 Number of Electrons    NEL             ....   36
Dispersion correction           -0.000913886
FINAL SINGLE POINT ENERGY      -231.449786371805
Dispersion correction           -0.000191094
FINAL SINGLE POINT ENERGY      -115.721567449635

CARTESIAN COORDINATES (ANGSTROEM)
---------------------------------
  C     -4.021581    2.799748   -3.951247
  O     -3.968984    3.408857   -2.693875
  H     -3.428997    4.133400   -2.976944
  H     -4.837682    2.116741   -4.115847
  H     -4.388551    3.544017   -4.698766
  H     -3.031499    2.512948   -4.232440
  C     -2.415535   -0.971302   -7.674667
  O     -3.117178   -0.081729   -6.746123
  H     -3.902999    0.348662   -7.180337
  H     -1.751958   -0.437656   -8.368405
  H     -1.859473   -1.788429   -7.245069
  H     -3.184254   -1.533560   -8.318336

 Multiplicity           Mult            ....    1
 Number of Electrons    NEL             ....   18
 Basis Dimension        Dim             ....  172

ORBITAL ENERGIES
----------------

  NO   OCC          E(Eh)            E(eV)
   0   2.0000     -19.234824      -523.4062
   1   2.0000     -10.323834      -280.9258
   2   2.0000      -1.113733       -30.3062
   3   2.0000      -0.795609       -21.6496
   4   2.0000      -0.597069       -16.2471
   5   2.0000      -0.536248       -14.5921
   6   2.0000      -0.523017       -14.2320
   7   2.0000      -0.425244       -11.5715
   8   2.0000      -0.375977       -10.2309
   9   0.0000       0.089433         2.4336
  10   0.0000       0.114329         3.1111
  11   0.0000       0.142462         3.8766
  12   0.0000       0.180102         4.9008
  13   0.0000       0.195893         5.3305

MULLIKEN ATOMIC CHARGES
-----------------------
   0 C :    0.000075
   1 O :   -0.000035
   2 H :   -0.000021
   3 H :   -0.000259
   4 H :   -0.000051
   5 H :   -0.002089
   6 C :   -0.176281
   7 O :   -0.487958
   8 H :    0.323958
   9 H :    0.111846
  10 H :    0.131162
  11 H :    0.099653
Sum of atomic charges:    0.0000000

LOEWDIN ATOMIC CHARGES
----------------------
   0 C :   -0.001320
   1 O :   -0.000012
   2 H :   -0.000003
   3 H :   -0.000227
   4 H :   -0.000026
   5 H :   -0.001005
   6 C :   -0.359370
   7 O :   -0.130188
   8 H :    0.187514
   9 H :    0.095967
  10 H :    0.103254
  11 H :    0.105417

  Mayer bond orders larger than 0.1
B(  6-C ,  7-O ) :   0.9977 B(  6-C ,  9-H ) :   0.9704 B(  6-C , 10-H ) :   0.9690
B(  6-C , 11-H ) :   0.9826 B(  7-O ,  8-H ) :   0.8881

Dispersion correction           -0.000291856
FINAL SINGLE POINT ENERGY      -115.727638874832

DIPOLE MOMENT
-------------
                                X             Y             Z
Electronic contribution:     -0.65743       1.13844       1.40361
Nuclear contribution   :      0.45992      -1.27157      -2.07192
                        -----------------------------------------
Total Dipole Moment    :     -0.19752      -0.13314      -0.66831
                        -----------------------------------------
Magnitude (a.u.)       :      0.70949
Magnitude (Debye)      :      1.80339

Rotational constants in cm-1:     4.297678     0.764592     0.743372
Rotational constants in MHz : 128841.157221 22921.892769 22285.717066

                             ****ORCA TERMINATED NORMALLY****
TOTAL RUN TIME: 0 days 0 hours 0 minutes 58 seconds 26 msec
