                         Program Version 4.1.2  - RELEASE  -
|  1> #Run DFT-D3 single point of the dimer
|  2> ! wB97X-D3 def2-TZVP TIGHTSCF CHELPG PMODEL PAL8
|  3>
|  4> %base "6-113_DFT_AB"
|  5>
|  6> %scf
|  7> MaxIter 1000
|  8> end
|  9>
| 10> * xyz 0 1
| 11>   C                      6.494887             -9.319664            0.599304
| 12>   O                      6.530466             -9.264981            2.010500
| 13>   H                      6.957669             -10.100235           2.248466
| 14>   H                      5.656828             -9.905448            0.193507
| 15>   H                      6.395575             -8.342034            0.169458
| 16>   H                      7.472226             -9.620610            0.188917
| 17>   C                      4.223520             -10.032611           4.805641
| 18>   O                      2.979543             -10.721792           4.726138
| 19>   H                      2.877643             -10.978138           3.793741
| 20>   H                      4.545430             -9.361094            3.979504
| 21>   H                      4.223243             -9.353971            5.656804
| 22>   H                      5.004691             -10.707598           5.085326
| 23> *
| 24>
| 25> #Run DFT-D3 single point of the molecule with dimer basis set
| 26> $new_job
| 27> %base "6-113_DFT_A"
| 28> ! wB97X-D3 def2-TZVP TIGHTSCF CHELPG PMODEL
| 29>
| 30> %scf
| 31> MaxIter 1000
| 32> end
| 33>
| 34> * xyz 0 1
| 35>   C                      6.494887             -9.319664            0.599304
| 36>   O                      6.530466             -9.264981            2.010500
| 37>   H                      6.957669             -10.100235           2.248466
| 38>   H                      5.656828             -9.905448            0.193507
| 39>   H                      6.395575             -8.342034            0.169458
| 40>   H                      7.472226             -9.620610            0.188917
| 41>   C                    : 4.223520             -10.032611           4.805641
| 42>   O                    : 2.979543             -10.721792           4.726138
| 43>   H                    : 2.877643             -10.978138           3.793741
| 44>   H                    : 4.545430             -9.361094            3.979504
| 45>   H                    : 4.223243             -9.353971            5.656804
| 46>   H                    : 5.004691             -10.707598           5.085326
| 47> *
| 48>
| 49> #Run DFT-D3 single point of the particle with dimer basis set
| 50> $new_job
| 51> %base "6-113_DFT_B"
| 52> ! wB97X-D3 def2-TZVP TIGHTSCF CHELPG PMODEL
| 53>
| 54> %scf
| 55> MaxIter 1000
| 56> end
| 57>
| 58> * xyz 0 1
| 59>   C                    : 6.494887             -9.319664            0.599304
| 60>   O                    : 6.530466             -9.264981            2.010500
| 61>   H                    : 6.957669             -10.100235           2.248466
| 62>   H                    : 5.656828             -9.905448            0.193507
| 63>   H                    : 6.395575             -8.342034            0.169458
| 64>   H                    : 7.472226             -9.620610            0.188917
| 65>   C                      4.223520             -10.032611           4.805641
| 66>   O                      2.979543             -10.721792           4.726138
| 67>   H                      2.877643             -10.978138           3.793741
| 68>   H                      4.545430             -9.361094            3.979504
| 69>   H                      4.223243             -9.353971            5.656804
| 70>   H                      5.004691             -10.707598           5.085326
| 71> *
| 72>
| 73>                          ****END OF INPUT****
 Total Charge           Charge          ....    0
 Multiplicity           Mult            ....    1
 Number of Electrons    NEL             ....   36
Dispersion correction           -0.001296841
FINAL SINGLE POINT ENERGY      -231.467266083767
Dispersion correction           -0.000238372
FINAL SINGLE POINT ENERGY      -115.734013985023

CARTESIAN COORDINATES (ANGSTROEM)
---------------------------------
  C      6.494887   -9.319664    0.599304
  O      6.530466   -9.264981    2.010500
  H      6.957669  -10.100235    2.248466
  H      5.656828   -9.905448    0.193507
  H      6.395575   -8.342034    0.169458
  H      7.472226   -9.620610    0.188917
  C      4.223520  -10.032611    4.805641
  O      2.979543  -10.721792    4.726138
  H      2.877643  -10.978138    3.793741
  H      4.545430   -9.361094    3.979504
  H      4.223243   -9.353971    5.656804
  H      5.004691  -10.707598    5.085326

 Multiplicity           Mult            ....    1
 Number of Electrons    NEL             ....   18
 Basis Dimension        Dim             ....  172

ORBITAL ENERGIES
----------------

  NO   OCC          E(Eh)            E(eV)
   0   2.0000     -19.235748      -523.4313
   1   2.0000     -10.311423      -280.5881
   2   2.0000      -1.133340       -30.8397
   3   2.0000      -0.798235       -21.7211
   4   2.0000      -0.607511       -16.5312
   5   2.0000      -0.541669       -14.7396
   6   2.0000      -0.523329       -14.2405
   7   2.0000      -0.435824       -11.8594
   8   2.0000      -0.375853       -10.2275
   9   0.0000       0.077729         2.1151
  10   0.0000       0.118926         3.2361
  11   0.0000       0.141641         3.8542
  12   0.0000       0.173950         4.7334
  13   0.0000       0.181801         4.9471

MULLIKEN ATOMIC CHARGES
-----------------------
   0 C :   -0.000162
   1 O :   -0.000000
   2 H :   -0.000443
   3 H :   -0.000016
   4 H :    0.000002
   5 H :    0.000003
   6 C :   -0.179055
   7 O :   -0.469446
   8 H :    0.317216
   9 H :    0.108562
  10 H :    0.113236
  11 H :    0.110104
Sum of atomic charges:    0.0000000

LOEWDIN ATOMIC CHARGES
----------------------
   0 C :   -0.000443
   1 O :   -0.002661
   2 H :   -0.000867
   3 H :   -0.000027
   4 H :   -0.000011
   5 H :   -0.000008
   6 C :   -0.390609
   7 O :   -0.084403
   8 H :    0.177643
   9 H :    0.102407
  10 H :    0.105932
  11 H :    0.093047

  Mayer bond orders larger than 0.1
B(  6-C ,  7-O ) :   1.0116 B(  6-C ,  9-H ) :   0.9707 B(  6-C , 10-H ) :   0.9750
B(  6-C , 11-H ) :   0.9800 B(  7-O ,  8-H ) :   0.8984

Dispersion correction           -0.000267633
FINAL SINGLE POINT ENERGY      -115.731499686760

DIPOLE MOMENT
-------------
                                X             Y             Z
Electronic contribution:     -1.69898      -0.93830      -0.10381
Nuclear contribution   :      2.12249       1.06467      -0.43127
                        -----------------------------------------
Total Dipole Moment    :      0.42351       0.12636      -0.53507
                        -----------------------------------------
Magnitude (a.u.)       :      0.69400
Magnitude (Debye)      :      1.76400

Rotational constants in cm-1:     4.435846     0.812405     0.783246
Rotational constants in MHz : 132983.307861 24355.285777 23481.112544

                             ****ORCA TERMINATED NORMALLY****
TOTAL RUN TIME: 0 days 0 hours 1 minutes 1 seconds 966 msec
