                         Program Version 4.1.2  - RELEASE  -
|  1> #Run DFT-D3 single point of the dimer
|  2> ! wB97X-D3 def2-TZVP TIGHTSCF CHELPG PMODEL PAL8
|  3>
|  4> %base "12-91_DFT_AB"
|  5>
|  6> %scf
|  7> MaxIter 1000
|  8> end
|  9>
| 10> * xyz 0 1
| 11>   C                      -8.330021            -3.936850            9.780098
| 12>   O                      -7.082873            -4.366825            9.301597
| 13>   H                      -6.330123            -4.091510            9.880843
| 14>   H                      -9.113728            -4.603709            9.450616
| 15>   H                      -8.289771            -4.009567            10.862791
| 16>   H                      -8.578552            -2.883557            9.468591
| 17>   C                      -5.089564            -6.346030            7.077743
| 18>   O                      -6.465300            -6.133136            6.927184
| 19>   H                      -6.798112            -5.651534            7.717625
| 20>   H                      -4.701708            -6.957811            6.244498
| 21>   H                      -4.549811            -5.454992            7.041897
| 22>   H                      -4.832682            -6.756922            8.050849
| 23> *
| 24>
| 25> #Run DFT-D3 single point of the molecule with dimer basis set
| 26> $new_job
| 27> %base "12-91_DFT_A"
| 28> ! wB97X-D3 def2-TZVP TIGHTSCF CHELPG PMODEL
| 29>
| 30> %scf
| 31> MaxIter 1000
| 32> end
| 33>
| 34> * xyz 0 1
| 35>   C                      -8.330021            -3.936850            9.780098
| 36>   O                      -7.082873            -4.366825            9.301597
| 37>   H                      -6.330123            -4.091510            9.880843
| 38>   H                      -9.113728            -4.603709            9.450616
| 39>   H                      -8.289771            -4.009567            10.862791
| 40>   H                      -8.578552            -2.883557            9.468591
| 41>   C                    : -5.089564            -6.346030            7.077743
| 42>   O                    : -6.465300            -6.133136            6.927184
| 43>   H                    : -6.798112            -5.651534            7.717625
| 44>   H                    : -4.701708            -6.957811            6.244498
| 45>   H                    : -4.549811            -5.454992            7.041897
| 46>   H                    : -4.832682            -6.756922            8.050849
| 47> *
| 48>
| 49> #Run DFT-D3 single point of the particle with dimer basis set
| 50> $new_job
| 51> %base "12-91_DFT_B"
| 52> ! wB97X-D3 def2-TZVP TIGHTSCF CHELPG PMODEL
| 53>
| 54> %scf
| 55> MaxIter 1000
| 56> end
| 57>
| 58> * xyz 0 1
| 59>   C                    : -8.330021            -3.936850            9.780098
| 60>   O                    : -7.082873            -4.366825            9.301597
| 61>   H                    : -6.330123            -4.091510            9.880843
| 62>   H                    : -9.113728            -4.603709            9.450616
| 63>   H                    : -8.289771            -4.009567            10.862791
| 64>   H                    : -8.578552            -2.883557            9.468591
| 65>   C                      -5.089564            -6.346030            7.077743
| 66>   O                      -6.465300            -6.133136            6.927184
| 67>   H                      -6.798112            -5.651534            7.717625
| 68>   H                      -4.701708            -6.957811            6.244498
| 69>   H                      -4.549811            -5.454992            7.041897
| 70>   H                      -4.832682            -6.756922            8.050849
| 71> *
| 72>
| 73>                          ****END OF INPUT****
 Total Charge           Charge          ....    0
 Multiplicity           Mult            ....    1
 Number of Electrons    NEL             ....   36
Dispersion correction           -0.001610332
FINAL SINGLE POINT ENERGY      -231.475336569590
Dispersion correction           -0.000246037
FINAL SINGLE POINT ENERGY      -115.733672538840

CARTESIAN COORDINATES (ANGSTROEM)
---------------------------------
  C     -8.330021   -3.936850    9.780098
  O     -7.082873   -4.366825    9.301597
  H     -6.330123   -4.091510    9.880843
  H     -9.113728   -4.603709    9.450616
  H     -8.289771   -4.009567   10.862791
  H     -8.578552   -2.883557    9.468591
  C     -5.089564   -6.346030    7.077743
  O     -6.465300   -6.133136    6.927184
  H     -6.798112   -5.651534    7.717625
  H     -4.701708   -6.957811    6.244498
  H     -4.549811   -5.454992    7.041897
  H     -4.832682   -6.756922    8.050849

 Multiplicity           Mult            ....    1
 Number of Electrons    NEL             ....   18
 Basis Dimension        Dim             ....  172

ORBITAL ENERGIES
----------------

  NO   OCC          E(Eh)            E(eV)
   0   2.0000     -19.231582      -523.3179
   1   2.0000     -10.305819      -280.4356
   2   2.0000      -1.135359       -30.8947
   3   2.0000      -0.797481       -21.7006
   4   2.0000      -0.615661       -16.7530
   5   2.0000      -0.541709       -14.7406
   6   2.0000      -0.528055       -14.3691
   7   2.0000      -0.435357       -11.8467
   8   2.0000      -0.370699       -10.0872
   9   0.0000       0.067942         1.8488
  10   0.0000       0.125826         3.4239
  11   0.0000       0.150034         4.0826
  12   0.0000       0.170406         4.6370
  13   0.0000       0.194714         5.2984

MULLIKEN ATOMIC CHARGES
-----------------------
   0 C :   -0.002411
   1 O :   -0.002573
   2 H :    0.000097
   3 H :    0.000023
   4 H :    0.000078
   5 H :    0.000092
   6 C :   -0.158920
   7 O :   -0.475266
   8 H :    0.316610
   9 H :    0.121974
  10 H :    0.103579
  11 H :    0.096717
Sum of atomic charges:   -0.0000000

LOEWDIN ATOMIC CHARGES
----------------------
   0 C :   -0.002440
   1 O :   -0.015385
   2 H :   -0.000886
   3 H :   -0.000257
   4 H :   -0.000052
   5 H :   -0.000046
   6 C :   -0.392281
   7 O :   -0.069636
   8 H :    0.190998
   9 H :    0.113653
  10 H :    0.083130
  11 H :    0.093201

  Mayer bond orders larger than 0.1
B(  6-C ,  7-O ) :   0.9909 B(  6-C ,  9-H ) :   0.9730 B(  6-C , 10-H ) :   0.9767
B(  6-C , 11-H ) :   0.9821 B(  7-O ,  8-H ) :   0.9003

Dispersion correction           -0.000228581
FINAL SINGLE POINT ENERGY      -115.733194424413

DIPOLE MOMENT
-------------
                                X             Y             Z
Electronic contribution:     -1.79135       0.17628      -0.34085
Nuclear contribution   :      2.13809       0.06401       0.89074
                        -----------------------------------------
Total Dipole Moment    :      0.34674       0.24029       0.54989
                        -----------------------------------------
Magnitude (a.u.)       :      0.69307
Magnitude (Debye)      :      1.76165

Rotational constants in cm-1:     4.401599     0.849814     0.805890
Rotational constants in MHz : 131956.607019 25476.785717 24159.987327

                             ****ORCA TERMINATED NORMALLY****
TOTAL RUN TIME: 0 days 0 hours 1 minutes 8 seconds 653 msec
