                         Program Version 4.1.2  - RELEASE  -
|  1> #Run DFT-D3 single point of the dimer
|  2> ! wB97X-D3 def2-TZVP TIGHTSCF  CHELPG PAL8
|  3>
|  4> %base "0_charges"
|  5>
|  6> %scf
|  7> MaxIter 1000
|  8> end
|  9> %output
| 10>   Print[ P_Mayer ] 1
| 11>   Print[ P_NatPop ] 1
| 12>   Print[ P_Hirshfeld ] 1
| 13>   Print[ P_Mulliken ] 1
| 14>   Print [ P_Loewdin ] 1
| 15> end
| 16>
| 17> * xyz 0 1
| 18>   C                      0.915985             9.204824             -0.976280
| 19>   O                      1.585243             10.370668            -1.041298
| 20>   H                      2.521978             10.203700            -0.924737
| 21>   H                      -0.199026            9.380719             -0.811275
| 22>   H                      1.204338             8.543475             -1.726995
| 23>   H                      1.275053             8.672851             -0.078542
| 24> *
| 25>
| 26>                          ****END OF INPUT****

CARTESIAN COORDINATES (ANGSTROEM)
---------------------------------
  C      0.915985    9.204824   -0.976280
  O      1.585243   10.370668   -1.041298
  H      2.521978   10.203700   -0.924737
  H     -0.199026    9.380719   -0.811275
  H      1.204338    8.543475   -1.726995
  H      1.275053    8.672851   -0.078542

 Total Charge           Charge          ....    0
 Multiplicity           Mult            ....    1
 Number of Electrons    NEL             ....   18
 Basis Dimension        Dim             ....   86

ORBITAL ENERGIES
----------------

  NO   OCC          E(Eh)            E(eV)
   0   2.0000     -19.226322      -523.1748
   1   2.0000     -10.307002      -280.4678
   2   2.0000      -1.158435       -31.5226
   3   2.0000      -0.792182       -21.5564
   4   2.0000      -0.630247       -17.1499
   5   2.0000      -0.552136       -15.0244
   6   2.0000      -0.531028       -14.4500
   7   2.0000      -0.427817       -11.6415
   8   2.0000      -0.364186        -9.9100
   9   0.0000       0.112975         3.0742
  10   0.0000       0.159934         4.3520
  11   0.0000       0.197356         5.3703
  12   0.0000       0.209814         5.7093
  13   0.0000       0.234027         6.3682

MULLIKEN ATOMIC CHARGES
-----------------------
   0 C :   -0.160729
   1 O :   -0.460601
   2 H :    0.317119
   3 H :    0.116510
   4 H :    0.102695
   5 H :    0.085007
Sum of atomic charges:    0.0000000

LOEWDIN ATOMIC CHARGES
----------------------
   0 C :   -0.438978
   1 O :   -0.028506
   2 H :    0.174375
   3 H :    0.119902
   4 H :    0.080602
   5 H :    0.092604

  Mayer bond orders larger than 0.1
B(  0-C ,  1-O ) :   1.0003 B(  0-C ,  3-H ) :   0.9677 B(  0-C ,  4-H ) :   0.9744
B(  0-C ,  5-H ) :   0.9934 B(  1-O ,  2-H ) :   0.8947

Dispersion correction           -0.000196436
FINAL SINGLE POINT ENERGY      -115.725106186427

DIPOLE MOMENT
-------------
                                X             Y             Z
Electronic contribution:      0.69504       1.66176      -0.31088
Nuclear contribution   :     -0.31599      -2.19110       0.41935
                        -----------------------------------------
Total Dipole Moment    :      0.37906      -0.52934       0.10847
                        -----------------------------------------
Magnitude (a.u.)       :      0.66004
Magnitude (Debye)      :      1.67769

Rotational constants in cm-1:     4.276452     0.913242     0.861591
Rotational constants in MHz : 128204.791246 27378.305741 25829.847169

                             ****ORCA TERMINATED NORMALLY****
TOTAL RUN TIME: 0 days 0 hours 0 minutes 43 seconds 151 msec
