                         Program Version 4.1.2  - RELEASE  -
|  1> #Run DFT-D3 single point of the dimer
|  2> ! wB97X-D3 def2-TZVP TIGHTSCF CHELPG PMODEL PAL8
|  3>
|  4> %base "3-184_DFT_AB"
|  5>
|  6> %scf
|  7> MaxIter 1000
|  8> end
|  9>
| 10> * xyz 0 1
| 11>   C                      7.578111             5.735210             1.799558
| 12>   O                      8.812226             5.571385             1.140697
| 13>   H                      8.660273             5.853221             0.221928
| 14>   H                      7.820925             6.205367             2.736686
| 15>   H                      6.831844             6.324698             1.321623
| 16>   H                      7.178030             4.767879             1.976040
| 17>   C                      6.961410             9.704602             1.714039
| 18>   O                      8.358167             9.401272             1.510518
| 19>   H                      8.623425             8.688723             2.111202
| 20>   H                      6.662464             9.864520             2.777961
| 21>   H                      6.721852             10.551406            1.037147
| 22>   H                      6.332232             8.859719             1.529934
| 23> *
| 24>
| 25> #Run DFT-D3 single point of the molecule with dimer basis set
| 26> $new_job
| 27> %base "3-184_DFT_A"
| 28> ! wB97X-D3 def2-TZVP TIGHTSCF CHELPG PMODEL
| 29>
| 30> %scf
| 31> MaxIter 1000
| 32> end
| 33>
| 34> * xyz 0 1
| 35>   C                      7.578111             5.735210             1.799558
| 36>   O                      8.812226             5.571385             1.140697
| 37>   H                      8.660273             5.853221             0.221928
| 38>   H                      7.820925             6.205367             2.736686
| 39>   H                      6.831844             6.324698             1.321623
| 40>   H                      7.178030             4.767879             1.976040
| 41>   C                    : 6.961410             9.704602             1.714039
| 42>   O                    : 8.358167             9.401272             1.510518
| 43>   H                    : 8.623425             8.688723             2.111202
| 44>   H                    : 6.662464             9.864520             2.777961
| 45>   H                    : 6.721852             10.551406            1.037147
| 46>   H                    : 6.332232             8.859719             1.529934
| 47> *
| 48>
| 49> #Run DFT-D3 single point of the particle with dimer basis set
| 50> $new_job
| 51> %base "3-184_DFT_B"
| 52> ! wB97X-D3 def2-TZVP TIGHTSCF CHELPG PMODEL
| 53>
| 54> %scf
| 55> MaxIter 1000
| 56> end
| 57>
| 58> * xyz 0 1
| 59>   C                    : 7.578111             5.735210             1.799558
| 60>   O                    : 8.812226             5.571385             1.140697
| 61>   H                    : 8.660273             5.853221             0.221928
| 62>   H                    : 7.820925             6.205367             2.736686
| 63>   H                    : 6.831844             6.324698             1.321623
| 64>   H                    : 7.178030             4.767879             1.976040
| 65>   C                      6.961410             9.704602             1.714039
| 66>   O                      8.358167             9.401272             1.510518
| 67>   H                      8.623425             8.688723             2.111202
| 68>   H                      6.662464             9.864520             2.777961
| 69>   H                      6.721852             10.551406            1.037147
| 70>   H                      6.332232             8.859719             1.529934
| 71> *
| 72>
| 73>                          ****END OF INPUT****
 Total Charge           Charge          ....    0
 Multiplicity           Mult            ....    1
 Number of Electrons    NEL             ....   36
Dispersion correction           -0.001929601
FINAL SINGLE POINT ENERGY      -231.466571870639
Dispersion correction           -0.000230381
FINAL SINGLE POINT ENERGY      -115.732562159702

CARTESIAN COORDINATES (ANGSTROEM)
---------------------------------
  C      7.578111    5.735210    1.799558
  O      8.812226    5.571385    1.140697
  H      8.660273    5.853221    0.221928
  H      7.820925    6.205367    2.736686
  H      6.831844    6.324698    1.321623
  H      7.178030    4.767879    1.976040
  C      6.961410    9.704602    1.714039
  O      8.358167    9.401272    1.510518
  H      8.623425    8.688723    2.111202
  H      6.662464    9.864520    2.777961
  H      6.721852   10.551406    1.037147
  H      6.332232    8.859719    1.529934

 Multiplicity           Mult            ....    1
 Number of Electrons    NEL             ....   18
 Basis Dimension        Dim             ....  172

ORBITAL ENERGIES
----------------

  NO   OCC          E(Eh)            E(eV)
   0   2.0000     -19.232716      -523.3488
   1   2.0000     -10.317608      -280.7564
   2   2.0000      -1.125791       -30.6343
   3   2.0000      -0.796817       -21.6825
   4   2.0000      -0.614699       -16.7268
   5   2.0000      -0.523795       -14.2532
   6   2.0000      -0.522292       -14.2123
   7   2.0000      -0.444222       -12.0879
   8   2.0000      -0.371121       -10.0987
   9   0.0000       0.073994         2.0135
  10   0.0000       0.132760         3.6126
  11   0.0000       0.145690         3.9644
  12   0.0000       0.170043         4.6271
  13   0.0000       0.185359         5.0439

MULLIKEN ATOMIC CHARGES
-----------------------
   0 C :   -0.006596
   1 O :    0.000674
   2 H :   -0.000248
   3 H :   -0.000628
   4 H :    0.001899
   5 H :   -0.000184
   6 C :   -0.170300
   7 O :   -0.474690
   8 H :    0.313124
   9 H :    0.100003
  10 H :    0.130730
  11 H :    0.106216
Sum of atomic charges:   -0.0000000

LOEWDIN ATOMIC CHARGES
----------------------
   0 C :   -0.005167
   1 O :   -0.000400
   2 H :   -0.000599
   3 H :   -0.001347
   4 H :   -0.002011
   5 H :   -0.000115
   6 C :   -0.367767
   7 O :   -0.095985
   8 H :    0.169405
   9 H :    0.098847
  10 H :    0.115961
  11 H :    0.089177

  Mayer bond orders larger than 0.1
B(  6-C ,  7-O ) :   0.9983 B(  6-C ,  9-H ) :   0.9732 B(  6-C , 10-H ) :   0.9753
B(  6-C , 11-H ) :   0.9697 B(  7-O ,  8-H ) :   0.9002

Dispersion correction           -0.000260927
FINAL SINGLE POINT ENERGY      -115.731790853493

DIPOLE MOMENT
-------------
                                X             Y             Z
Electronic contribution:      1.78787      -0.20741      -0.41308
Nuclear contribution   :     -2.20168      -0.13389       0.87171
                        -----------------------------------------
Total Dipole Moment    :     -0.41381      -0.34130       0.45863
                        -----------------------------------------
Magnitude (a.u.)       :      0.70574
Magnitude (Debye)      :      1.79384

Rotational constants in cm-1:     4.275639     0.808389     0.762150
Rotational constants in MHz : 128180.440470 24234.890682 22848.672955

                             ****ORCA TERMINATED NORMALLY****
TOTAL RUN TIME: 0 days 0 hours 5 minutes 50 seconds 27 msec
