                         Program Version 4.1.2  - RELEASE  -
|  1> #Run DFT-D3 single point of the dimer
|  2> ! wB97X-D3 def2-TZVP TIGHTSCF CHELPG PMODEL PAL8
|  3>
|  4> %base "14-93_DFT_AB"
|  5>
|  6> %scf
|  7> MaxIter 1000
|  8> end
|  9>
| 10> * xyz 0 1
| 11>   C                      -8.023118            5.970073             -7.301579
| 12>   O                      -7.208899            5.748031             -6.199433
| 13>   H                      -7.582233            5.100643             -5.540227
| 14>   H                      -8.491772            6.984259             -7.204203
| 15>   H                      -7.494694            5.832346             -8.256467
| 16>   H                      -8.841849            5.215604             -7.301558
| 17>   C                      -6.884273            2.759162             -10.565749
| 18>   O                      -7.233005            2.340191             -11.865965
| 19>   H                      -7.718869            3.042188             -12.262749
| 20>   H                      -6.190884            1.959772             -10.206315
| 21>   H                      -6.272609            3.739494             -10.517569
| 22>   H                      -7.605629            2.739941             -9.851805
| 23> *
| 24>
| 25> #Run DFT-D3 single point of the molecule with dimer basis set
| 26> $new_job
| 27> %base "14-93_DFT_A"
| 28> ! wB97X-D3 def2-TZVP TIGHTSCF CHELPG PMODEL
| 29>
| 30> %scf
| 31> MaxIter 1000
| 32> end
| 33>
| 34> * xyz 0 1
| 35>   C                      -8.023118            5.970073             -7.301579
| 36>   O                      -7.208899            5.748031             -6.199433
| 37>   H                      -7.582233            5.100643             -5.540227
| 38>   H                      -8.491772            6.984259             -7.204203
| 39>   H                      -7.494694            5.832346             -8.256467
| 40>   H                      -8.841849            5.215604             -7.301558
| 41>   C                    : -6.884273            2.759162             -10.565749
| 42>   O                    : -7.233005            2.340191             -11.865965
| 43>   H                    : -7.718869            3.042188             -12.262749
| 44>   H                    : -6.190884            1.959772             -10.206315
| 45>   H                    : -6.272609            3.739494             -10.517569
| 46>   H                    : -7.605629            2.739941             -9.851805
| 47> *
| 48>
| 49> #Run DFT-D3 single point of the particle with dimer basis set
| 50> $new_job
| 51> %base "14-93_DFT_B"
| 52> ! wB97X-D3 def2-TZVP TIGHTSCF CHELPG PMODEL
| 53>
| 54> %scf
| 55> MaxIter 1000
| 56> end
| 57>
| 58> * xyz 0 1
| 59>   C                    : -8.023118            5.970073             -7.301579
| 60>   O                    : -7.208899            5.748031             -6.199433
| 61>   H                    : -7.582233            5.100643             -5.540227
| 62>   H                    : -8.491772            6.984259             -7.204203
| 63>   H                    : -7.494694            5.832346             -8.256467
| 64>   H                    : -8.841849            5.215604             -7.301558
| 65>   C                      -6.884273            2.759162             -10.565749
| 66>   O                      -7.233005            2.340191             -11.865965
| 67>   H                      -7.718869            3.042188             -12.262749
| 68>   H                      -6.190884            1.959772             -10.206315
| 69>   H                      -6.272609            3.739494             -10.517569
| 70>   H                      -7.605629            2.739941             -9.851805
| 71> *
| 72>
| 73>                          ****END OF INPUT****
 Total Charge           Charge          ....    0
 Multiplicity           Mult            ....    1
 Number of Electrons    NEL             ....   36
Dispersion correction           -0.000966318
FINAL SINGLE POINT ENERGY      -231.458889761243
Dispersion correction           -0.000249417
FINAL SINGLE POINT ENERGY      -115.731242851584

CARTESIAN COORDINATES (ANGSTROEM)
---------------------------------
  C     -8.023118    5.970073   -7.301579
  O     -7.208899    5.748031   -6.199433
  H     -7.582233    5.100643   -5.540227
  H     -8.491772    6.984259   -7.204203
  H     -7.494694    5.832346   -8.256467
  H     -8.841849    5.215604   -7.301558
  C     -6.884273    2.759162  -10.565749
  O     -7.233005    2.340191  -11.865965
  H     -7.718869    3.042188  -12.262749
  H     -6.190884    1.959772  -10.206315
  H     -6.272609    3.739494  -10.517569
  H     -7.605629    2.739941   -9.851805

 Multiplicity           Mult            ....    1
 Number of Electrons    NEL             ....   18
 Basis Dimension        Dim             ....  172

ORBITAL ENERGIES
----------------

  NO   OCC          E(Eh)            E(eV)
   0   2.0000     -19.232750      -523.3497
   1   2.0000     -10.312050      -280.6052
   2   2.0000      -1.143465       -31.1153
   3   2.0000      -0.800182       -21.7741
   4   2.0000      -0.616071       -16.7641
   5   2.0000      -0.546920       -14.8824
   6   2.0000      -0.520383       -14.1603
   7   2.0000      -0.430271       -11.7083
   8   2.0000      -0.380195       -10.3456
   9   0.0000       0.081502         2.2178
  10   0.0000       0.118722         3.2306
  11   0.0000       0.146897         3.9973
  12   0.0000       0.166831         4.5397
  13   0.0000       0.178031         4.8445

MULLIKEN ATOMIC CHARGES
-----------------------
   0 C :    0.000587
   1 O :   -0.000003
   2 H :   -0.000002
   3 H :   -0.000037
   4 H :   -0.001264
   5 H :   -0.000156
   6 C :   -0.171923
   7 O :   -0.461255
   8 H :    0.310290
   9 H :    0.114595
  10 H :    0.097562
  11 H :    0.111604
Sum of atomic charges:   -0.0000000

LOEWDIN ATOMIC CHARGES
----------------------
   0 C :   -0.000330
   1 O :   -0.000004
   2 H :   -0.000001
   3 H :   -0.000004
   4 H :   -0.000631
   5 H :   -0.000103
   6 C :   -0.393490
   7 O :   -0.058667
   8 H :    0.156493
   9 H :    0.117042
  10 H :    0.106079
  11 H :    0.073615

  Mayer bond orders larger than 0.1
B(  6-C ,  7-O ) :   1.0133 B(  6-C ,  9-H ) :   0.9779 B(  6-C , 10-H ) :   0.9751
B(  6-C , 11-H ) :   0.9676 B(  7-O ,  8-H ) :   0.9052

Dispersion correction           -0.000256023
FINAL SINGLE POINT ENERGY      -115.727211844747

DIPOLE MOMENT
-------------
                                X             Y             Z
Electronic contribution:     -0.63686      -0.57027      -1.69515
Nuclear contribution   :      0.44521       1.14649       1.95502
                        -----------------------------------------
Total Dipole Moment    :     -0.19164       0.57623       0.25988
                        -----------------------------------------
Magnitude (a.u.)       :      0.66053
Magnitude (Debye)      :      1.67894

Rotational constants in cm-1:     4.380121     0.831454     0.801224
Rotational constants in MHz : 131312.732311 24926.357550 24020.097894

                             ****ORCA TERMINATED NORMALLY****
TOTAL RUN TIME: 0 days 0 hours 1 minutes 10 seconds 593 msec
