                         Program Version 4.1.2  - RELEASE  -
|  1> #Run DFT-D3 single point of the dimer
|  2> ! wB97X-D3 def2-TZVP TIGHTSCF CHELPG PMODEL PAL8
|  3>
|  4> %base "13-183_DFT_AB"
|  5>
|  6> %scf
|  7> MaxIter 1000
|  8> end
|  9>
| 10> * xyz 0 1
| 11>   C                      0.369082             6.018789             0.516317
| 12>   O                      0.823945             7.087038             -0.312205
| 13>   H                      0.576789             6.977978             -1.240275
| 14>   H                      0.907541             6.050071             1.503454
| 15>   H                      -0.689153            5.914101             0.885084
| 16>   H                      0.581556             5.000459             0.074209
| 17>   C                      1.008669             9.314556             2.271157
| 18>   O                      0.991234             9.966245             1.032034
| 19>   H                      1.106689             9.169391             0.485909
| 20>   H                      0.804770             10.022363            3.072141
| 21>   H                      0.176906             8.565334             2.390568
| 22>   H                      1.982890             8.785539             2.458985
| 23> *
| 24>
| 25> #Run DFT-D3 single point of the molecule with dimer basis set
| 26> $new_job
| 27> %base "13-183_DFT_A"
| 28> ! wB97X-D3 def2-TZVP TIGHTSCF CHELPG PMODEL
| 29>
| 30> %scf
| 31> MaxIter 1000
| 32> end
| 33>
| 34> * xyz 0 1
| 35>   C                      0.369082             6.018789             0.516317
| 36>   O                      0.823945             7.087038             -0.312205
| 37>   H                      0.576789             6.977978             -1.240275
| 38>   H                      0.907541             6.050071             1.503454
| 39>   H                      -0.689153            5.914101             0.885084
| 40>   H                      0.581556             5.000459             0.074209
| 41>   C                    : 1.008669             9.314556             2.271157
| 42>   O                    : 0.991234             9.966245             1.032034
| 43>   H                    : 1.106689             9.169391             0.485909
| 44>   H                    : 0.804770             10.022363            3.072141
| 45>   H                    : 0.176906             8.565334             2.390568
| 46>   H                    : 1.982890             8.785539             2.458985
| 47> *
| 48>
| 49> #Run DFT-D3 single point of the particle with dimer basis set
| 50> $new_job
| 51> %base "13-183_DFT_B"
| 52> ! wB97X-D3 def2-TZVP TIGHTSCF CHELPG PMODEL
| 53>
| 54> %scf
| 55> MaxIter 1000
| 56> end
| 57>
| 58> * xyz 0 1
| 59>   C                    : 0.369082             6.018789             0.516317
| 60>   O                    : 0.823945             7.087038             -0.312205
| 61>   H                    : 0.576789             6.977978             -1.240275
| 62>   H                    : 0.907541             6.050071             1.503454
| 63>   H                    : -0.689153            5.914101             0.885084
| 64>   H                    : 0.581556             5.000459             0.074209
| 65>   C                      1.008669             9.314556             2.271157
| 66>   O                      0.991234             9.966245             1.032034
| 67>   H                      1.106689             9.169391             0.485909
| 68>   H                      0.804770             10.022363            3.072141
| 69>   H                      0.176906             8.565334             2.390568
| 70>   H                      1.982890             8.785539             2.458985
| 71> *
| 72>
| 73>                          ****END OF INPUT****
 Total Charge           Charge          ....    0
 Multiplicity           Mult            ....    1
 Number of Electrons    NEL             ....   36
Dispersion correction           -0.002150606
FINAL SINGLE POINT ENERGY      -231.468337357203
Dispersion correction           -0.000308011
FINAL SINGLE POINT ENERGY      -115.728659607250

CARTESIAN COORDINATES (ANGSTROEM)
---------------------------------
  C      0.369082    6.018789    0.516317
  O      0.823945    7.087038   -0.312205
  H      0.576789    6.977978   -1.240275
  H      0.907541    6.050071    1.503454
  H     -0.689153    5.914101    0.885084
  H      0.581556    5.000459    0.074209
  C      1.008669    9.314556    2.271157
  O      0.991234    9.966245    1.032034
  H      1.106689    9.169391    0.485909
  H      0.804770   10.022363    3.072141
  H      0.176906    8.565334    2.390568
  H      1.982890    8.785539    2.458985

 Multiplicity           Mult            ....    1
 Number of Electrons    NEL             ....   18
 Basis Dimension        Dim             ....  172

ORBITAL ENERGIES
----------------

  NO   OCC          E(Eh)            E(eV)
   0   2.0000     -19.238008      -523.4928
   1   2.0000     -10.318569      -280.7825
   2   2.0000      -1.148620       -31.2555
   3   2.0000      -0.785878       -21.3848
   4   2.0000      -0.611107       -16.6291
   5   2.0000      -0.543486       -14.7890
   6   2.0000      -0.526464       -14.3258
   7   2.0000      -0.442568       -12.0429
   8   2.0000      -0.374750       -10.1975
   9   0.0000       0.068168         1.8550
  10   0.0000       0.128569         3.4985
  11   0.0000       0.138604         3.7716
  12   0.0000       0.174535         4.7493
  13   0.0000       0.185162         5.0385

MULLIKEN ATOMIC CHARGES
-----------------------
   0 C :    0.001521
   1 O :   -0.001119
   2 H :   -0.000242
   3 H :   -0.001698
   4 H :   -0.000510
   5 H :   -0.000009
   6 C :   -0.194400
   7 O :   -0.444615
   8 H :    0.314943
   9 H :    0.122199
  10 H :    0.099980
  11 H :    0.103951
Sum of atomic charges:   -0.0000000

LOEWDIN ATOMIC CHARGES
----------------------
   0 C :   -0.005260
   1 O :   -0.008677
   2 H :   -0.000660
   3 H :   -0.001824
   4 H :   -0.000387
   5 H :   -0.000034
   6 C :   -0.414403
   7 O :   -0.061842
   8 H :    0.187408
   9 H :    0.105420
  10 H :    0.100006
  11 H :    0.100252

  Mayer bond orders larger than 0.1
B(  6-C ,  7-O ) :   1.0043 B(  6-C ,  9-H ) :   0.9738 B(  6-C , 10-H ) :   0.9723
B(  6-C , 11-H ) :   0.9740 B(  7-O ,  8-H ) :   0.9093

Dispersion correction           -0.000219550
FINAL SINGLE POINT ENERGY      -115.731496648934

DIPOLE MOMENT
-------------
                                X             Y             Z
Electronic contribution:      0.00033       1.11338      -1.63065
Nuclear contribution   :      0.06252      -1.80284       1.75774
                        -----------------------------------------
Total Dipole Moment    :      0.06285      -0.68945       0.12708
                        -----------------------------------------
Magnitude (a.u.)       :      0.70388
Magnitude (Debye)      :      1.78912

Rotational constants in cm-1:     4.112742     0.848976     0.817525
Rotational constants in MHz : 123296.895119 25451.648160 24508.778879

                             ****ORCA TERMINATED NORMALLY****
TOTAL RUN TIME: 0 days 0 hours 1 minutes 14 seconds 384 msec
