                         Program Version 4.1.2  - RELEASE  -
|  1> #Run DFT-D3 single point of the dimer
|  2> ! wB97X-D3 def2-TZVP TIGHTSCF  CHELPG PAL8
|  3>
|  4> %base "77_charges"
|  5>
|  6> %scf
|  7> MaxIter 1000
|  8> end
|  9> %output
| 10>   Print[ P_Mayer ] 1
| 11>   Print[ P_NatPop ] 1
| 12>   Print[ P_Hirshfeld ] 1
| 13>   Print[ P_Mulliken ] 1
| 14>   Print [ P_Loewdin ] 1
| 15> end
| 16>
| 17> * xyz 0 1
| 18>   C                      5.319531             -2.728616            -6.820554
| 19>   O                      5.289630             -3.765190            -7.709131
| 20>   H                      5.229326             -4.526388            -7.188563
| 21>   H                      6.163591             -2.842064            -6.126778
| 22>   H                      5.402702             -1.739492            -7.280825
| 23>   H                      4.475132             -2.769805            -6.194841
| 24> *
| 25>
| 26>                          ****END OF INPUT****

CARTESIAN COORDINATES (ANGSTROEM)
---------------------------------
  C      5.319531   -2.728616   -6.820554
  O      5.289630   -3.765190   -7.709131
  H      5.229326   -4.526388   -7.188563
  H      6.163591   -2.842064   -6.126778
  H      5.402702   -1.739492   -7.280825
  H      4.475132   -2.769805   -6.194841

 Total Charge           Charge          ....    0
 Multiplicity           Mult            ....    1
 Number of Electrons    NEL             ....   18
 Basis Dimension        Dim             ....   86

ORBITAL ENERGIES
----------------

  NO   OCC          E(Eh)            E(eV)
   0   2.0000     -19.226142      -523.1699
   1   2.0000     -10.304656      -280.4039
   2   2.0000      -1.161382       -31.6028
   3   2.0000      -0.798068       -21.7165
   4   2.0000      -0.627515       -17.0756
   5   2.0000      -0.547901       -14.9091
   6   2.0000      -0.538111       -14.6427
   7   2.0000      -0.437154       -11.8956
   8   2.0000      -0.369027       -10.0417
   9   0.0000       0.117578         3.1995
  10   0.0000       0.161904         4.4056
  11   0.0000       0.205522         5.5925
  12   0.0000       0.209109         5.6901
  13   0.0000       0.232173         6.3178

MULLIKEN ATOMIC CHARGES
-----------------------
   0 C :   -0.159738
   1 O :   -0.451755
   2 H :    0.308578
   3 H :    0.088347
   4 H :    0.116737
   5 H :    0.097830
Sum of atomic charges:   -0.0000000

LOEWDIN ATOMIC CHARGES
----------------------
   0 C :   -0.415843
   1 O :   -0.023325
   2 H :    0.152761
   3 H :    0.092708
   4 H :    0.109450
   5 H :    0.084248

  Mayer bond orders larger than 0.1
B(  0-C ,  1-O ) :   0.9979 B(  0-C ,  3-H ) :   0.9845 B(  0-C ,  4-H ) :   0.9709
B(  0-C ,  5-H ) :   0.9852 B(  1-O ,  2-H ) :   0.9077

Dispersion correction           -0.000195574
FINAL SINGLE POINT ENERGY      -115.730490097003

DIPOLE MOMENT
-------------
                                X             Y             Z
Electronic contribution:     -0.08976      -1.24744      -1.39359
Nuclear contribution   :      0.04976       1.14507       2.06104
                        -----------------------------------------
Total Dipole Moment    :     -0.03999      -0.10237       0.66745
                        -----------------------------------------
Magnitude (a.u.)       :      0.67643
Magnitude (Debye)      :      1.71936

Rotational constants in cm-1:     4.456049     0.890259     0.849908
Rotational constants in MHz : 133588.990178 26689.288681 25479.607224

                             ****ORCA TERMINATED NORMALLY****
TOTAL RUN TIME: 0 days 0 hours 0 minutes 39 seconds 797 msec
