                         Program Version 4.1.2  - RELEASE  -
|  1> #Run DFT-D3 single point of the dimer
|  2> ! wB97X-D3 def2-TZVP TIGHTSCF CHELPG PMODEL PAL8
|  3>
|  4> %base "10-173_DFT_AB"
|  5>
|  6> %scf
|  7> MaxIter 1000
|  8> end
|  9>
| 10> * xyz 0 1
| 11>   C                      2.186595             4.347790             -9.189131
| 12>   O                      2.307919             4.346809             -10.634992
| 13>   H                      2.580412             3.455949             -10.866279
| 14>   H                      1.466297             3.621999             -8.797952
| 15>   H                      3.103006             3.946917             -8.678947
| 16>   H                      1.848558             5.340006             -8.887161
| 17>   C                      4.210658             1.142499             -8.363034
| 18>   O                      3.509776             0.242499             -9.227142
| 19>   H                      3.359885             0.826769             -9.971453
| 20>   H                      3.638373             2.065577             -8.276294
| 21>   H                      4.327735             0.752309             -7.356128
| 22>   H                      5.200602             1.374000             -8.800005
| 23> *
| 24>
| 25> #Run DFT-D3 single point of the molecule with dimer basis set
| 26> $new_job
| 27> %base "10-173_DFT_A"
| 28> ! wB97X-D3 def2-TZVP TIGHTSCF CHELPG PMODEL
| 29>
| 30> %scf
| 31> MaxIter 1000
| 32> end
| 33>
| 34> * xyz 0 1
| 35>   C                      2.186595             4.347790             -9.189131
| 36>   O                      2.307919             4.346809             -10.634992
| 37>   H                      2.580412             3.455949             -10.866279
| 38>   H                      1.466297             3.621999             -8.797952
| 39>   H                      3.103006             3.946917             -8.678947
| 40>   H                      1.848558             5.340006             -8.887161
| 41>   C                    : 4.210658             1.142499             -8.363034
| 42>   O                    : 3.509776             0.242499             -9.227142
| 43>   H                    : 3.359885             0.826769             -9.971453
| 44>   H                    : 3.638373             2.065577             -8.276294
| 45>   H                    : 4.327735             0.752309             -7.356128
| 46>   H                    : 5.200602             1.374000             -8.800005
| 47> *
| 48>
| 49> #Run DFT-D3 single point of the particle with dimer basis set
| 50> $new_job
| 51> %base "10-173_DFT_B"
| 52> ! wB97X-D3 def2-TZVP TIGHTSCF CHELPG PMODEL
| 53>
| 54> %scf
| 55> MaxIter 1000
| 56> end
| 57>
| 58> * xyz 0 1
| 59>   C                    : 2.186595             4.347790             -9.189131
| 60>   O                    : 2.307919             4.346809             -10.634992
| 61>   H                    : 2.580412             3.455949             -10.866279
| 62>   H                    : 1.466297             3.621999             -8.797952
| 63>   H                    : 3.103006             3.946917             -8.678947
| 64>   H                    : 1.848558             5.340006             -8.887161
| 65>   C                      4.210658             1.142499             -8.363034
| 66>   O                      3.509776             0.242499             -9.227142
| 67>   H                      3.359885             0.826769             -9.971453
| 68>   H                      3.638373             2.065577             -8.276294
| 69>   H                      4.327735             0.752309             -7.356128
| 70>   H                      5.200602             1.374000             -8.800005
| 71> *
| 72>
| 73>                          ****END OF INPUT****
 Total Charge           Charge          ....    0
 Multiplicity           Mult            ....    1
 Number of Electrons    NEL             ....   36
Dispersion correction           -0.001842067
FINAL SINGLE POINT ENERGY      -231.464380506861
Dispersion correction           -0.000256179
FINAL SINGLE POINT ENERGY      -115.731915979364

CARTESIAN COORDINATES (ANGSTROEM)
---------------------------------
  C      2.186595    4.347790   -9.189131
  O      2.307919    4.346809  -10.634992
  H      2.580412    3.455949  -10.866279
  H      1.466297    3.621999   -8.797952
  H      3.103006    3.946917   -8.678947
  H      1.848558    5.340006   -8.887161
  C      4.210658    1.142499   -8.363034
  O      3.509776    0.242499   -9.227142
  H      3.359885    0.826769   -9.971453
  H      3.638373    2.065577   -8.276294
  H      4.327735    0.752309   -7.356128
  H      5.200602    1.374000   -8.800005

 Multiplicity           Mult            ....    1
 Number of Electrons    NEL             ....   18
 Basis Dimension        Dim             ....  172

ORBITAL ENERGIES
----------------

  NO   OCC          E(Eh)            E(eV)
   0   2.0000     -19.231355      -523.3118
   1   2.0000     -10.314684      -280.6768
   2   2.0000      -1.137303       -30.9476
   3   2.0000      -0.792101       -21.5542
   4   2.0000      -0.605478       -16.4759
   5   2.0000      -0.543697       -14.7948
   6   2.0000      -0.526589       -14.3292
   7   2.0000      -0.442882       -12.0514
   8   2.0000      -0.373983       -10.1766
   9   0.0000       0.073331         1.9954
  10   0.0000       0.126071         3.4306
  11   0.0000       0.151499         4.1225
  12   0.0000       0.171018         4.6536
  13   0.0000       0.192552         5.2396

MULLIKEN ATOMIC CHARGES
-----------------------
   0 C :    0.003621
   1 O :   -0.000168
   2 H :   -0.000569
   3 H :    0.000092
   4 H :   -0.003413
   5 H :    0.000447
   6 C :   -0.171128
   7 O :   -0.459989
   8 H :    0.311604
   9 H :    0.095431
  10 H :    0.120881
  11 H :    0.103192
Sum of atomic charges:    0.0000000

LOEWDIN ATOMIC CHARGES
----------------------
   0 C :   -0.006437
   1 O :   -0.000043
   2 H :   -0.000907
   3 H :   -0.000758
   4 H :   -0.010768
   5 H :   -0.000021
   6 C :   -0.371600
   7 O :   -0.086566
   8 H :    0.170010
   9 H :    0.102311
  10 H :    0.105950
  11 H :    0.098829

  Mayer bond orders larger than 0.1
B(  6-C ,  7-O ) :   0.9965 B(  6-C ,  9-H ) :   0.9823 B(  6-C , 10-H ) :   0.9706
B(  6-C , 11-H ) :   0.9817 B(  7-O ,  8-H ) :   0.9075

Dispersion correction           -0.000215865
FINAL SINGLE POINT ENERGY      -115.734001741222

DIPOLE MOMENT
-------------
                                X             Y             Z
Electronic contribution:     -0.87687      -1.33678      -0.93397
Nuclear contribution   :      1.04906       2.04748       0.83264
                        -----------------------------------------
Total Dipole Moment    :      0.17220       0.71070      -0.10133
                        -----------------------------------------
Magnitude (a.u.)       :      0.73825
Magnitude (Debye)      :      1.87648

Rotational constants in cm-1:     4.204110     0.826613     0.796792
Rotational constants in MHz : 126036.047765 24781.239399 23887.226952

                             ****ORCA TERMINATED NORMALLY****
TOTAL RUN TIME: 0 days 0 hours 1 minutes 4 seconds 69 msec
