                         Program Version 4.1.2  - RELEASE  -
|  1> #Run DFT-D3 single point of the dimer
|  2> ! wB97X-D3 def2-TZVP TIGHTSCF CHELPG PMODEL PAL8
|  3>
|  4> %base "12-97_DFT_AB"
|  5>
|  6> %scf
|  7> MaxIter 1000
|  8> end
|  9>
| 10> * xyz 0 1
| 11>   C                      7.069487             6.948817             1.348319
| 12>   O                      6.833436             7.462442             0.067141
| 13>   H                      6.469724             6.786522             -0.512093
| 14>   H                      6.543788             6.020128             1.325691
| 15>   H                      8.106300             6.629288             1.569079
| 16>   H                      6.689718             7.616708             2.082214
| 17>   C                      5.018682             3.647154             2.266529
| 18>   O                      4.344760             3.389571             1.100863
| 19>   H                      3.404297             3.200617             1.319677
| 20>   H                      5.043372             2.728457             2.908457
| 21>   H                      6.070344             3.937796             2.139085
| 22>   H                      4.514807             4.440137             2.832299
| 23> *
| 24>
| 25> #Run DFT-D3 single point of the molecule with dimer basis set
| 26> $new_job
| 27> %base "12-97_DFT_A"
| 28> ! wB97X-D3 def2-TZVP TIGHTSCF CHELPG PMODEL
| 29>
| 30> %scf
| 31> MaxIter 1000
| 32> end
| 33>
| 34> * xyz 0 1
| 35>   C                      7.069487             6.948817             1.348319
| 36>   O                      6.833436             7.462442             0.067141
| 37>   H                      6.469724             6.786522             -0.512093
| 38>   H                      6.543788             6.020128             1.325691
| 39>   H                      8.106300             6.629288             1.569079
| 40>   H                      6.689718             7.616708             2.082214
| 41>   C                    : 5.018682             3.647154             2.266529
| 42>   O                    : 4.344760             3.389571             1.100863
| 43>   H                    : 3.404297             3.200617             1.319677
| 44>   H                    : 5.043372             2.728457             2.908457
| 45>   H                    : 6.070344             3.937796             2.139085
| 46>   H                    : 4.514807             4.440137             2.832299
| 47> *
| 48>
| 49> #Run DFT-D3 single point of the particle with dimer basis set
| 50> $new_job
| 51> %base "12-97_DFT_B"
| 52> ! wB97X-D3 def2-TZVP TIGHTSCF CHELPG PMODEL
| 53>
| 54> %scf
| 55> MaxIter 1000
| 56> end
| 57>
| 58> * xyz 0 1
| 59>   C                    : 7.069487             6.948817             1.348319
| 60>   O                    : 6.833436             7.462442             0.067141
| 61>   H                    : 6.469724             6.786522             -0.512093
| 62>   H                    : 6.543788             6.020128             1.325691
| 63>   H                    : 8.106300             6.629288             1.569079
| 64>   H                    : 6.689718             7.616708             2.082214
| 65>   C                      5.018682             3.647154             2.266529
| 66>   O                      4.344760             3.389571             1.100863
| 67>   H                      3.404297             3.200617             1.319677
| 68>   H                      5.043372             2.728457             2.908457
| 69>   H                      6.070344             3.937796             2.139085
| 70>   H                      4.514807             4.440137             2.832299
| 71> *
| 72>
| 73>                          ****END OF INPUT****
 Total Charge           Charge          ....    0
 Multiplicity           Mult            ....    1
 Number of Electrons    NEL             ....   36
Dispersion correction           -0.001408303
FINAL SINGLE POINT ENERGY      -231.463789815822
Dispersion correction           -0.000230809
FINAL SINGLE POINT ENERGY      -115.729039108580

CARTESIAN COORDINATES (ANGSTROEM)
---------------------------------
  C      7.069487    6.948817    1.348319
  O      6.833436    7.462442    0.067141
  H      6.469724    6.786522   -0.512093
  H      6.543788    6.020128    1.325691
  H      8.106300    6.629288    1.569079
  H      6.689718    7.616708    2.082214
  C      5.018682    3.647154    2.266529
  O      4.344760    3.389571    1.100863
  H      3.404297    3.200617    1.319677
  H      5.043372    2.728457    2.908457
  H      6.070344    3.937796    2.139085
  H      4.514807    4.440137    2.832299

 Multiplicity           Mult            ....    1
 Number of Electrons    NEL             ....   18
 Basis Dimension        Dim             ....  172

ORBITAL ENERGIES
----------------

  NO   OCC          E(Eh)            E(eV)
   0   2.0000     -19.231881      -523.3261
   1   2.0000     -10.312959      -280.6299
   2   2.0000      -1.146203       -31.1898
   3   2.0000      -0.789121       -21.4731
   4   2.0000      -0.615033       -16.7359
   5   2.0000      -0.544511       -14.8169
   6   2.0000      -0.536180       -14.5902
   7   2.0000      -0.426618       -11.6089
   8   2.0000      -0.368369       -10.0238
   9   0.0000       0.090511         2.4629
  10   0.0000       0.115248         3.1360
  11   0.0000       0.153976         4.1899
  12   0.0000       0.175558         4.7772
  13   0.0000       0.185018         5.0346

MULLIKEN ATOMIC CHARGES
-----------------------
   0 C :   -0.003936
   1 O :    0.000026
   2 H :   -0.000173
   3 H :    0.006128
   4 H :    0.000196
   5 H :   -0.000004
   6 C :   -0.166649
   7 O :   -0.470275
   8 H :    0.321975
   9 H :    0.098239
  10 H :    0.119357
  11 H :    0.095117
Sum of atomic charges:    0.0000000

LOEWDIN ATOMIC CHARGES
----------------------
   0 C :   -0.002560
   1 O :   -0.000023
   2 H :   -0.000109
   3 H :   -0.004881
   4 H :   -0.000103
   5 H :   -0.000068
   6 C :   -0.424153
   7 O :   -0.056677
   8 H :    0.189136
   9 H :    0.095642
  10 H :    0.110653
  11 H :    0.093143

  Mayer bond orders larger than 0.1
B(  6-C ,  7-O ) :   0.9988 B(  6-C ,  9-H ) :   0.9790 B(  6-C , 10-H ) :   0.9696
B(  6-C , 11-H ) :   0.9824 B(  7-O ,  8-H ) :   0.8892

Dispersion correction           -0.000223990
FINAL SINGLE POINT ENERGY      -115.733535121817

DIPOLE MOMENT
-------------
                                X             Y             Z
Electronic contribution:     -0.73905      -0.26213      -1.72778
Nuclear contribution   :      0.40378       0.24992       2.28491
                        -----------------------------------------
Total Dipole Moment    :     -0.33526      -0.01220       0.55713
                        -----------------------------------------
Magnitude (a.u.)       :      0.65034
Magnitude (Debye)      :      1.65303

Rotational constants in cm-1:     4.245507     0.865911     0.834439
Rotational constants in MHz : 127277.083443 25959.347673 25015.852202

                             ****ORCA TERMINATED NORMALLY****
TOTAL RUN TIME: 0 days 0 hours 0 minutes 46 seconds 647 msec
