                         Program Version 4.1.2  - RELEASE  -
|  1> #Run DFT-D3 single point of the dimer
|  2> ! wB97X-D3 def2-TZVP TIGHTSCF CHELPG PMODEL PAL8
|  3>
|  4> %base "11-86_DFT_AB"
|  5>
|  6> %scf
|  7> MaxIter 1000
|  8> end
|  9>
| 10> * xyz 0 1
| 11>   C                      10.085171            9.090846             -6.497490
| 12>   O                      9.870105             7.743981             -6.738684
| 13>   H                      9.596428             7.627402             -7.668537
| 14>   H                      10.240051            9.593562             -7.467117
| 15>   H                      9.364494             9.634166             -5.908815
| 16>   H                      11.032180            9.300689             -5.983905
| 17>   C                      8.030817             10.454830            -2.583979
| 18>   O                      7.694170             10.824342            -1.287199
| 19>   H                      8.063028             11.723033            -1.103546
| 20>   H                      7.542536             9.473523             -2.840437
| 21>   H                      7.728920             11.252674            -3.294878
| 22>   H                      9.111819             10.355521            -2.710593
| 23> *
| 24>
| 25> #Run DFT-D3 single point of the molecule with dimer basis set
| 26> $new_job
| 27> %base "11-86_DFT_A"
| 28> ! wB97X-D3 def2-TZVP TIGHTSCF CHELPG PMODEL
| 29>
| 30> %scf
| 31> MaxIter 1000
| 32> end
| 33>
| 34> * xyz 0 1
| 35>   C                      10.085171            9.090846             -6.497490
| 36>   O                      9.870105             7.743981             -6.738684
| 37>   H                      9.596428             7.627402             -7.668537
| 38>   H                      10.240051            9.593562             -7.467117
| 39>   H                      9.364494             9.634166             -5.908815
| 40>   H                      11.032180            9.300689             -5.983905
| 41>   C                    : 8.030817             10.454830            -2.583979
| 42>   O                    : 7.694170             10.824342            -1.287199
| 43>   H                    : 8.063028             11.723033            -1.103546
| 44>   H                    : 7.542536             9.473523             -2.840437
| 45>   H                    : 7.728920             11.252674            -3.294878
| 46>   H                    : 9.111819             10.355521            -2.710593
| 47> *
| 48>
| 49> #Run DFT-D3 single point of the particle with dimer basis set
| 50> $new_job
| 51> %base "11-86_DFT_B"
| 52> ! wB97X-D3 def2-TZVP TIGHTSCF CHELPG PMODEL
| 53>
| 54> %scf
| 55> MaxIter 1000
| 56> end
| 57>
| 58> * xyz 0 1
| 59>   C                    : 10.085171            9.090846             -6.497490
| 60>   O                    : 9.870105             7.743981             -6.738684
| 61>   H                    : 9.596428             7.627402             -7.668537
| 62>   H                    : 10.240051            9.593562             -7.467117
| 63>   H                    : 9.364494             9.634166             -5.908815
| 64>   H                    : 11.032180            9.300689             -5.983905
| 65>   C                      8.030817             10.454830            -2.583979
| 66>   O                      7.694170             10.824342            -1.287199
| 67>   H                      8.063028             11.723033            -1.103546
| 68>   H                      7.542536             9.473523             -2.840437
| 69>   H                      7.728920             11.252674            -3.294878
| 70>   H                      9.111819             10.355521            -2.710593
| 71> *
| 72>
| 73>                          ****END OF INPUT****
 Total Charge           Charge          ....    0
 Multiplicity           Mult            ....    1
 Number of Electrons    NEL             ....   36
Dispersion correction           -0.000967336
FINAL SINGLE POINT ENERGY      -231.465879095316
Dispersion correction           -0.000246814
FINAL SINGLE POINT ENERGY      -115.730945685743

CARTESIAN COORDINATES (ANGSTROEM)
---------------------------------
  C     10.085171    9.090846   -6.497490
  O      9.870105    7.743981   -6.738684
  H      9.596428    7.627402   -7.668537
  H     10.240051    9.593562   -7.467117
  H      9.364494    9.634166   -5.908815
  H     11.032180    9.300689   -5.983905
  C      8.030817   10.454830   -2.583979
  O      7.694170   10.824342   -1.287199
  H      8.063028   11.723033   -1.103546
  H      7.542536    9.473523   -2.840437
  H      7.728920   11.252674   -3.294878
  H      9.111819   10.355521   -2.710593

 Multiplicity           Mult            ....    1
 Number of Electrons    NEL             ....   18
 Basis Dimension        Dim             ....  172

ORBITAL ENERGIES
----------------

  NO   OCC          E(Eh)            E(eV)
   0   2.0000     -19.231991      -523.3291
   1   2.0000     -10.315330      -280.6944
   2   2.0000      -1.138458       -30.9790
   3   2.0000      -0.787664       -21.4334
   4   2.0000      -0.613586       -16.6965
   5   2.0000      -0.539624       -14.6839
   6   2.0000      -0.528305       -14.3759
   7   2.0000      -0.431190       -11.7333
   8   2.0000      -0.368914       -10.0387
   9   0.0000       0.083471         2.2714
  10   0.0000       0.111004         3.0206
  11   0.0000       0.140855         3.8329
  12   0.0000       0.168805         4.5934
  13   0.0000       0.187524         5.1028

MULLIKEN ATOMIC CHARGES
-----------------------
   0 C :   -0.000204
   1 O :    0.000006
   2 H :    0.000000
   3 H :   -0.000010
   4 H :    0.000170
   5 H :   -0.000046
   6 C :   -0.159097
   7 O :   -0.472842
   8 H :    0.318459
   9 H :    0.118516
  10 H :    0.097363
  11 H :    0.097684
Sum of atomic charges:    0.0000000

LOEWDIN ATOMIC CHARGES
----------------------
   0 C :   -0.000307
   1 O :   -0.000005
   2 H :   -0.000000
   3 H :   -0.000003
   4 H :   -0.000368
   5 H :   -0.000055
   6 C :   -0.412986
   7 O :   -0.074494
   8 H :    0.187492
   9 H :    0.115430
  10 H :    0.095096
  11 H :    0.090201

  Mayer bond orders larger than 0.1
B(  6-C ,  7-O ) :   1.0037 B(  6-C ,  9-H ) :   0.9687 B(  6-C , 10-H ) :   0.9795
B(  6-C , 11-H ) :   0.9742 B(  7-O ,  8-H ) :   0.8908

Dispersion correction           -0.000230921
FINAL SINGLE POINT ENERGY      -115.734490859404

DIPOLE MOMENT
-------------
                                X             Y             Z
Electronic contribution:     -0.53024       0.30648       1.73116
Nuclear contribution   :      0.89309       0.11807      -2.10351
                        -----------------------------------------
Total Dipole Moment    :      0.36285       0.42455      -0.37234
                        -----------------------------------------
Magnitude (a.u.)       :      0.67122
Magnitude (Debye)      :      1.70611

Rotational constants in cm-1:     4.145678     0.855923     0.814626
Rotational constants in MHz : 124284.313392 25659.937116 24421.886246

                             ****ORCA TERMINATED NORMALLY****
TOTAL RUN TIME: 0 days 0 hours 1 minutes 11 seconds 96 msec
