                         Program Version 4.1.2  - RELEASE  -
|  1> #Run DFT-D3 single point of the dimer
|  2> ! wB97X-D3 def2-TZVP TIGHTSCF CHELPG PMODEL PAL8
|  3>
|  4> %base "16-11_DFT_AB"
|  5>
|  6> %scf
|  7> MaxIter 1000
|  8> end
|  9>
| 10> * xyz 0 1
| 11>   C                      -9.460971            -5.850150            -9.983236
| 12>   O                      -8.591912            -6.718918            -10.686473
| 13>   H                      -8.695396            -7.506844            -10.221084
| 14>   H                      -10.460182           -6.178799            -10.083656
| 15>   H                      -9.193688            -5.917862            -8.911150
| 16>   H                      -9.460853            -4.773154            -10.286841
| 17>   C                      -8.741000            -10.050704           -8.832468
| 18>   O                      -8.872883            -8.770483            -8.257972
| 19>   H                      -9.614841            -8.956050            -7.652595
| 20>   H                      -8.284211            -10.802288           -8.129658
| 21>   H                      -9.689343            -10.387381           -9.111734
| 22>   H                      -8.183061            -9.995485            -9.692613
| 23> *
| 24>
| 25> #Run DFT-D3 single point of the molecule with dimer basis set
| 26> $new_job
| 27> %base "16-11_DFT_A"
| 28> ! wB97X-D3 def2-TZVP TIGHTSCF CHELPG PMODEL
| 29>
| 30> %scf
| 31> MaxIter 1000
| 32> end
| 33>
| 34> * xyz 0 1
| 35>   C                      -9.460971            -5.850150            -9.983236
| 36>   O                      -8.591912            -6.718918            -10.686473
| 37>   H                      -8.695396            -7.506844            -10.221084
| 38>   H                      -10.460182           -6.178799            -10.083656
| 39>   H                      -9.193688            -5.917862            -8.911150
| 40>   H                      -9.460853            -4.773154            -10.286841
| 41>   C                    : -8.741000            -10.050704           -8.832468
| 42>   O                    : -8.872883            -8.770483            -8.257972
| 43>   H                    : -9.614841            -8.956050            -7.652595
| 44>   H                    : -8.284211            -10.802288           -8.129658
| 45>   H                    : -9.689343            -10.387381           -9.111734
| 46>   H                    : -8.183061            -9.995485            -9.692613
| 47> *
| 48>
| 49> #Run DFT-D3 single point of the particle with dimer basis set
| 50> $new_job
| 51> %base "16-11_DFT_B"
| 52> ! wB97X-D3 def2-TZVP TIGHTSCF CHELPG PMODEL
| 53>
| 54> %scf
| 55> MaxIter 1000
| 56> end
| 57>
| 58> * xyz 0 1
| 59>   C                    : -9.460971            -5.850150            -9.983236
| 60>   O                    : -8.591912            -6.718918            -10.686473
| 61>   H                    : -8.695396            -7.506844            -10.221084
| 62>   H                    : -10.460182           -6.178799            -10.083656
| 63>   H                    : -9.193688            -5.917862            -8.911150
| 64>   H                    : -9.460853            -4.773154            -10.286841
| 65>   C                      -8.741000            -10.050704           -8.832468
| 66>   O                      -8.872883            -8.770483            -8.257972
| 67>   H                      -9.614841            -8.956050            -7.652595
| 68>   H                      -8.284211            -10.802288           -8.129658
| 69>   H                      -9.689343            -10.387381           -9.111734
| 70>   H                      -8.183061            -9.995485            -9.692613
| 71> *
| 72>
| 73>                          ****END OF INPUT****
 Total Charge           Charge          ....    0
 Multiplicity           Mult            ....    1
 Number of Electrons    NEL             ....   36
Dispersion correction           -0.001844841
FINAL SINGLE POINT ENERGY      -231.464633566482
Dispersion correction           -0.000213957
FINAL SINGLE POINT ENERGY      -115.729918187053

CARTESIAN COORDINATES (ANGSTROEM)
---------------------------------
  C     -9.460971   -5.850150   -9.983236
  O     -8.591912   -6.718918  -10.686473
  H     -8.695396   -7.506844  -10.221084
  H    -10.460182   -6.178799  -10.083656
  H     -9.193688   -5.917862   -8.911150
  H     -9.460853   -4.773154  -10.286841
  C     -8.741000  -10.050704   -8.832468
  O     -8.872883   -8.770483   -8.257972
  H     -9.614841   -8.956050   -7.652595
  H     -8.284211  -10.802288   -8.129658
  H     -9.689343  -10.387381   -9.111734
  H     -8.183061   -9.995485   -9.692613

 Multiplicity           Mult            ....    1
 Number of Electrons    NEL             ....   18
 Basis Dimension        Dim             ....  172

ORBITAL ENERGIES
----------------

  NO   OCC          E(Eh)            E(eV)
   0   2.0000     -19.233417      -523.3679
   1   2.0000     -10.303342      -280.3682
   2   2.0000      -1.141468       -31.0609
   3   2.0000      -0.798228       -21.7209
   4   2.0000      -0.611794       -16.6478
   5   2.0000      -0.545281       -14.8379
   6   2.0000      -0.531980       -14.4759
   7   2.0000      -0.446002       -12.1363
   8   2.0000      -0.373858       -10.1732
   9   0.0000       0.096497         2.6258
  10   0.0000       0.125261         3.4085
  11   0.0000       0.154889         4.2147
  12   0.0000       0.182579         4.9682
  13   0.0000       0.201481         5.4826

MULLIKEN ATOMIC CHARGES
-----------------------
   0 C :    0.003538
   1 O :   -0.000529
   2 H :   -0.001773
   3 H :   -0.002246
   4 H :   -0.004645
   5 H :   -0.000289
   6 C :   -0.172906
   7 O :   -0.456794
   8 H :    0.312936
   9 H :    0.097859
  10 H :    0.102199
  11 H :    0.122650
Sum of atomic charges:   -0.0000000

LOEWDIN ATOMIC CHARGES
----------------------
   0 C :   -0.007372
   1 O :   -0.001541
   2 H :   -0.013131
   3 H :   -0.000715
   4 H :   -0.003456
   5 H :   -0.000085
   6 C :   -0.381291
   7 O :   -0.057425
   8 H :    0.183871
   9 H :    0.102509
  10 H :    0.085998
  11 H :    0.092637

  Mayer bond orders larger than 0.1
B(  6-C ,  7-O ) :   0.9936 B(  6-C ,  9-H ) :   0.9675 B(  6-C , 10-H ) :   0.9880
B(  6-C , 11-H ) :   0.9801 B(  7-O ,  8-H ) :   0.9021

Dispersion correction           -0.000203195
FINAL SINGLE POINT ENERGY      -115.728946396466

DIPOLE MOMENT
-------------
                                X             Y             Z
Electronic contribution:      0.00439       1.73414       0.57600
Nuclear contribution   :     -0.41569      -2.33887      -0.46300
                        -----------------------------------------
Total Dipole Moment    :     -0.41131      -0.60472       0.11300
                        -----------------------------------------
Magnitude (a.u.)       :      0.74002
Magnitude (Debye)      :      1.88099

Rotational constants in cm-1:     4.347004     0.851637     0.823000
Rotational constants in MHz : 130319.911802 25531.425880 24672.905239

                             ****ORCA TERMINATED NORMALLY****
TOTAL RUN TIME: 0 days 0 hours 1 minutes 7 seconds 332 msec
