                         Program Version 4.1.2  - RELEASE  -
|  1> #Run DFT-D3 single point of the dimer
|  2> ! wB97X-D3 def2-TZVP TIGHTSCF CHELPG PMODEL PAL8
|  3>
|  4> %base "14-26_DFT_AB"
|  5>
|  6> %scf
|  7> MaxIter 1000
|  8> end
|  9>
| 10> * xyz 0 1
| 11>   C                      -0.612086            2.931693             -2.166030
| 12>   O                      -1.917891            3.394526             -2.096503
| 13>   H                      -2.283379            3.362468             -1.200627
| 14>   H                      -0.456620            1.838111             -2.061463
| 15>   H                      -0.083063            3.269453             -3.069938
| 16>   H                      -0.006313            3.238354             -1.311755
| 17>   C                      3.680498             2.335612             0.190636
| 18>   O                      4.893785             1.958004             0.847665
| 19>   H                      5.476696             1.627880             0.132417
| 20>   H                      3.773636             2.993821             -0.671878
| 21>   H                      3.025651             1.475557             -0.033071
| 22>   H                      3.056318             2.917527             0.823814
| 23> *
| 24>
| 25> #Run DFT-D3 single point of the molecule with dimer basis set
| 26> $new_job
| 27> %base "14-26_DFT_A"
| 28> ! wB97X-D3 def2-TZVP TIGHTSCF CHELPG PMODEL
| 29>
| 30> %scf
| 31> MaxIter 1000
| 32> end
| 33>
| 34> * xyz 0 1
| 35>   C                      -0.612086            2.931693             -2.166030
| 36>   O                      -1.917891            3.394526             -2.096503
| 37>   H                      -2.283379            3.362468             -1.200627
| 38>   H                      -0.456620            1.838111             -2.061463
| 39>   H                      -0.083063            3.269453             -3.069938
| 40>   H                      -0.006313            3.238354             -1.311755
| 41>   C                    : 3.680498             2.335612             0.190636
| 42>   O                    : 4.893785             1.958004             0.847665
| 43>   H                    : 5.476696             1.627880             0.132417
| 44>   H                    : 3.773636             2.993821             -0.671878
| 45>   H                    : 3.025651             1.475557             -0.033071
| 46>   H                    : 3.056318             2.917527             0.823814
| 47> *
| 48>
| 49> #Run DFT-D3 single point of the particle with dimer basis set
| 50> $new_job
| 51> %base "14-26_DFT_B"
| 52> ! wB97X-D3 def2-TZVP TIGHTSCF CHELPG PMODEL
| 53>
| 54> %scf
| 55> MaxIter 1000
| 56> end
| 57>
| 58> * xyz 0 1
| 59>   C                    : -0.612086            2.931693             -2.166030
| 60>   O                    : -1.917891            3.394526             -2.096503
| 61>   H                    : -2.283379            3.362468             -1.200627
| 62>   H                    : -0.456620            1.838111             -2.061463
| 63>   H                    : -0.083063            3.269453             -3.069938
| 64>   H                    : -0.006313            3.238354             -1.311755
| 65>   C                      3.680498             2.335612             0.190636
| 66>   O                      4.893785             1.958004             0.847665
| 67>   H                      5.476696             1.627880             0.132417
| 68>   H                      3.773636             2.993821             -0.671878
| 69>   H                      3.025651             1.475557             -0.033071
| 70>   H                      3.056318             2.917527             0.823814
| 71> *
| 72>
| 73>                          ****END OF INPUT****
 Total Charge           Charge          ....    0
 Multiplicity           Mult            ....    1
 Number of Electrons    NEL             ....   36
Dispersion correction           -0.000877069
FINAL SINGLE POINT ENERGY      -231.464728386164
Dispersion correction           -0.000258881
FINAL SINGLE POINT ENERGY      -115.732074266726

CARTESIAN COORDINATES (ANGSTROEM)
---------------------------------
  C     -0.612086    2.931693   -2.166030
  O     -1.917891    3.394526   -2.096503
  H     -2.283379    3.362468   -1.200627
  H     -0.456620    1.838111   -2.061463
  H     -0.083063    3.269453   -3.069938
  H     -0.006313    3.238354   -1.311755
  C      3.680498    2.335612    0.190636
  O      4.893785    1.958004    0.847665
  H      5.476696    1.627880    0.132417
  H      3.773636    2.993821   -0.671878
  H      3.025651    1.475557   -0.033071
  H      3.056318    2.917527    0.823814

 Multiplicity           Mult            ....    1
 Number of Electrons    NEL             ....   18
 Basis Dimension        Dim             ....  172

ORBITAL ENERGIES
----------------

  NO   OCC          E(Eh)            E(eV)
   0   2.0000     -19.236637      -523.4555
   1   2.0000     -10.310893      -280.5737
   2   2.0000      -1.130361       -30.7587
   3   2.0000      -0.799482       -21.7550
   4   2.0000      -0.604474       -16.4486
   5   2.0000      -0.541022       -14.7219
   6   2.0000      -0.526200       -14.3186
   7   2.0000      -0.434597       -11.8260
   8   2.0000      -0.377904       -10.2833
   9   0.0000       0.079828         2.1722
  10   0.0000       0.115501         3.1429
  11   0.0000       0.135395         3.6843
  12   0.0000       0.167211         4.5500
  13   0.0000       0.184570         5.0224

MULLIKEN ATOMIC CHARGES
-----------------------
   0 C :    0.000002
   1 O :   -0.000000
   2 H :    0.000000
   3 H :   -0.000089
   4 H :   -0.000013
   5 H :    0.000084
   6 C :   -0.176936
   7 O :   -0.468775
   8 H :    0.317457
   9 H :    0.106521
  10 H :    0.103283
  11 H :    0.118467
Sum of atomic charges:   -0.0000000

LOEWDIN ATOMIC CHARGES
----------------------
   0 C :   -0.000114
   1 O :   -0.000003
   2 H :   -0.000000
   3 H :   -0.000054
   4 H :   -0.000006
   5 H :   -0.000080
   6 C :   -0.385266
   7 O :   -0.091949
   8 H :    0.182201
   9 H :    0.095686
  10 H :    0.098439
  11 H :    0.101146

  Mayer bond orders larger than 0.1
B(  6-C ,  7-O ) :   1.0112 B(  6-C ,  9-H ) :   0.9727 B(  6-C , 10-H ) :   0.9759
B(  6-C , 11-H ) :   0.9760 B(  7-O ,  8-H ) :   0.8981

Dispersion correction           -0.000263365
FINAL SINGLE POINT ENERGY      -115.732382853066

DIPOLE MOMENT
-------------
                                X             Y             Z
Electronic contribution:      1.63184      -0.46155       0.96105
Nuclear contribution   :     -1.76420       0.43619      -1.64532
                        -----------------------------------------
Total Dipole Moment    :     -0.13236      -0.02537      -0.68427
                        -----------------------------------------
Magnitude (a.u.)       :      0.69741
Magnitude (Debye)      :      1.77268

Rotational constants in cm-1:     4.438457     0.803099     0.783003
Rotational constants in MHz : 133061.606649 24076.317198 23473.839736

                             ****ORCA TERMINATED NORMALLY****
TOTAL RUN TIME: 0 days 0 hours 1 minutes 2 seconds 718 msec
