                         Program Version 4.1.2  - RELEASE  -
|  1> #Run DFT-D3 single point of the dimer
|  2> ! wB97X-D3 def2-TZVP TIGHTSCF CHELPG PMODEL PAL8
|  3>
|  4> %base "2-131_DFT_AB"
|  5>
|  6> %scf
|  7> MaxIter 1000
|  8> end
|  9>
| 10> * xyz 0 1
| 11>   C                      0.388477             4.100360             7.695616
| 12>   O                      -0.947411            4.692757             7.944071
| 13>   H                      -1.091817            5.388982             7.292805
| 14>   H                      1.164795             4.910124             7.802517
| 15>   H                      0.723529             3.246645             8.329768
| 16>   H                      0.383064             3.620852             6.668489
| 17>   C                      -2.263954            4.738131             10.922419
| 18>   O                      -0.929349            4.370361             10.997662
| 19>   H                      -0.760159            3.497367             11.411799
| 20>   H                      -2.695928            4.511880             11.908057
| 21>   H                      -2.366060            5.768363             10.646159
| 22>   H                      -2.790602            4.087023             10.237023
| 23> *
| 24>
| 25> #Run DFT-D3 single point of the molecule with dimer basis set
| 26> $new_job
| 27> %base "2-131_DFT_A"
| 28> ! wB97X-D3 def2-TZVP TIGHTSCF CHELPG PMODEL
| 29>
| 30> %scf
| 31> MaxIter 1000
| 32> end
| 33>
| 34> * xyz 0 1
| 35>   C                      0.388477             4.100360             7.695616
| 36>   O                      -0.947411            4.692757             7.944071
| 37>   H                      -1.091817            5.388982             7.292805
| 38>   H                      1.164795             4.910124             7.802517
| 39>   H                      0.723529             3.246645             8.329768
| 40>   H                      0.383064             3.620852             6.668489
| 41>   C                    : -2.263954            4.738131             10.922419
| 42>   O                    : -0.929349            4.370361             10.997662
| 43>   H                    : -0.760159            3.497367             11.411799
| 44>   H                    : -2.695928            4.511880             11.908057
| 45>   H                    : -2.366060            5.768363             10.646159
| 46>   H                    : -2.790602            4.087023             10.237023
| 47> *
| 48>
| 49> #Run DFT-D3 single point of the particle with dimer basis set
| 50> $new_job
| 51> %base "2-131_DFT_B"
| 52> ! wB97X-D3 def2-TZVP TIGHTSCF CHELPG PMODEL
| 53>
| 54> %scf
| 55> MaxIter 1000
| 56> end
| 57>
| 58> * xyz 0 1
| 59>   C                    : 0.388477             4.100360             7.695616
| 60>   O                    : -0.947411            4.692757             7.944071
| 61>   H                    : -1.091817            5.388982             7.292805
| 62>   H                    : 1.164795             4.910124             7.802517
| 63>   H                    : 0.723529             3.246645             8.329768
| 64>   H                    : 0.383064             3.620852             6.668489
| 65>   C                      -2.263954            4.738131             10.922419
| 66>   O                      -0.929349            4.370361             10.997662
| 67>   H                      -0.760159            3.497367             11.411799
| 68>   H                      -2.695928            4.511880             11.908057
| 69>   H                      -2.366060            5.768363             10.646159
| 70>   H                      -2.790602            4.087023             10.237023
| 71> *
| 72>
| 73>                          ****END OF INPUT****
 Total Charge           Charge          ....    0
 Multiplicity           Mult            ....    1
 Number of Electrons    NEL             ....   36
Dispersion correction           -0.001889266
FINAL SINGLE POINT ENERGY      -231.458247901777
Dispersion correction           -0.000286752
FINAL SINGLE POINT ENERGY      -115.726969467830

CARTESIAN COORDINATES (ANGSTROEM)
---------------------------------
  C      0.388477    4.100360    7.695616
  O     -0.947411    4.692757    7.944071
  H     -1.091817    5.388982    7.292805
  H      1.164795    4.910124    7.802517
  H      0.723529    3.246645    8.329768
  H      0.383064    3.620852    6.668489
  C     -2.263954    4.738131   10.922419
  O     -0.929349    4.370361   10.997662
  H     -0.760159    3.497367   11.411799
  H     -2.695928    4.511880   11.908057
  H     -2.366060    5.768363   10.646159
  H     -2.790602    4.087023   10.237023

 Multiplicity           Mult            ....    1
 Number of Electrons    NEL             ....   18
 Basis Dimension        Dim             ....  172

ORBITAL ENERGIES
----------------

  NO   OCC          E(Eh)            E(eV)
   0   2.0000     -19.225019      -523.1394
   1   2.0000     -10.308381      -280.5053
   2   2.0000      -1.135379       -30.8952
   3   2.0000      -0.796073       -21.6623
   4   2.0000      -0.613838       -16.7034
   5   2.0000      -0.541646       -14.7389
   6   2.0000      -0.540681       -14.7127
   7   2.0000      -0.423844       -11.5334
   8   2.0000      -0.365034        -9.9331
   9   0.0000       0.091030         2.4771
  10   0.0000       0.120860         3.2888
  11   0.0000       0.147197         4.0054
  12   0.0000       0.182350         4.9620
  13   0.0000       0.196551         5.3484

MULLIKEN ATOMIC CHARGES
-----------------------
   0 C :   -0.000853
   1 O :    0.001784
   2 H :    0.000077
   3 H :   -0.000516
   4 H :   -0.003800
   5 H :   -0.000181
   6 C :   -0.140205
   7 O :   -0.494411
   8 H :    0.320776
   9 H :    0.097704
  10 H :    0.122419
  11 H :    0.097207
Sum of atomic charges:    0.0000000

LOEWDIN ATOMIC CHARGES
----------------------
   0 C :   -0.007114
   1 O :   -0.003923
   2 H :   -0.000189
   3 H :   -0.000297
   4 H :   -0.001983
   5 H :   -0.000104
   6 C :   -0.395637
   7 O :   -0.065685
   8 H :    0.181127
   9 H :    0.097416
  10 H :    0.105468
  11 H :    0.090920

  Mayer bond orders larger than 0.1
B(  6-C ,  7-O ) :   0.9810 B(  6-C ,  9-H ) :   0.9851 B(  6-C , 10-H ) :   0.9707
B(  6-C , 11-H ) :   0.9805 B(  7-O ,  8-H ) :   0.8870

Dispersion correction           -0.000221920
FINAL SINGLE POINT ENERGY      -115.732129102942

DIPOLE MOMENT
-------------
                                X             Y             Z
Electronic contribution:      1.69713      -0.21068      -0.02899
Nuclear contribution   :     -2.12771      -0.20530       0.28035
                        -----------------------------------------
Total Dipole Moment    :     -0.43058      -0.41598       0.25136
                        -----------------------------------------
Magnitude (a.u.)       :      0.64932
Magnitude (Debye)      :      1.65045

Rotational constants in cm-1:     4.337397     0.862443     0.824673
Rotational constants in MHz : 130031.891146 25855.402015 24723.079593

                             ****ORCA TERMINATED NORMALLY****
TOTAL RUN TIME: 0 days 0 hours 6 minutes 20 seconds 165 msec
