                         Program Version 4.1.2  - RELEASE  -
|  1> #Run DFT-D3 single point of the dimer
|  2> ! wB97X-D3 def2-TZVP TIGHTSCF CHELPG PMODEL PAL8
|  3>
|  4> %base "7-60_DFT_AB"
|  5>
|  6> %scf
|  7> MaxIter 1000
|  8> end
|  9>
| 10> * xyz 0 1
| 11>   C                      -1.585404            3.392058             7.212129
| 12>   O                      -2.120105            3.744945             8.520689
| 13>   H                      -1.462705            3.477092             9.167592
| 14>   H                      -2.311762            3.531126             6.455074
| 15>   H                      -0.759444            4.075805             6.822156
| 16>   H                      -1.228848            2.336794             7.215379
| 17>   C                      -5.937137            1.611102             8.304273
| 18>   O                      -6.285615            0.571866             7.420897
| 19>   H                      -6.845697            0.910848             6.750429
| 20>   H                      -6.688215            1.793401             9.086896
| 21>   H                      -4.989211            1.450799             8.914783
| 22>   H                      -5.887714            2.542823             7.659055
| 23> *
| 24>
| 25> #Run DFT-D3 single point of the molecule with dimer basis set
| 26> $new_job
| 27> %base "7-60_DFT_A"
| 28> ! wB97X-D3 def2-TZVP TIGHTSCF CHELPG PMODEL
| 29>
| 30> %scf
| 31> MaxIter 1000
| 32> end
| 33>
| 34> * xyz 0 1
| 35>   C                      -1.585404            3.392058             7.212129
| 36>   O                      -2.120105            3.744945             8.520689
| 37>   H                      -1.462705            3.477092             9.167592
| 38>   H                      -2.311762            3.531126             6.455074
| 39>   H                      -0.759444            4.075805             6.822156
| 40>   H                      -1.228848            2.336794             7.215379
| 41>   C                    : -5.937137            1.611102             8.304273
| 42>   O                    : -6.285615            0.571866             7.420897
| 43>   H                    : -6.845697            0.910848             6.750429
| 44>   H                    : -6.688215            1.793401             9.086896
| 45>   H                    : -4.989211            1.450799             8.914783
| 46>   H                    : -5.887714            2.542823             7.659055
| 47> *
| 48>
| 49> #Run DFT-D3 single point of the particle with dimer basis set
| 50> $new_job
| 51> %base "7-60_DFT_B"
| 52> ! wB97X-D3 def2-TZVP TIGHTSCF CHELPG PMODEL
| 53>
| 54> %scf
| 55> MaxIter 1000
| 56> end
| 57>
| 58> * xyz 0 1
| 59>   C                    : -1.585404            3.392058             7.212129
| 60>   O                    : -2.120105            3.744945             8.520689
| 61>   H                    : -1.462705            3.477092             9.167592
| 62>   H                    : -2.311762            3.531126             6.455074
| 63>   H                    : -0.759444            4.075805             6.822156
| 64>   H                    : -1.228848            2.336794             7.215379
| 65>   C                      -5.937137            1.611102             8.304273
| 66>   O                      -6.285615            0.571866             7.420897
| 67>   H                      -6.845697            0.910848             6.750429
| 68>   H                      -6.688215            1.793401             9.086896
| 69>   H                      -4.989211            1.450799             8.914783
| 70>   H                      -5.887714            2.542823             7.659055
| 71> *
| 72>
| 73>                          ****END OF INPUT****
 Total Charge           Charge          ....    0
 Multiplicity           Mult            ....    1
 Number of Electrons    NEL             ....   36
Dispersion correction           -0.000995680
FINAL SINGLE POINT ENERGY      -231.462384084058
Dispersion correction           -0.000275674
FINAL SINGLE POINT ENERGY      -115.731948315531

CARTESIAN COORDINATES (ANGSTROEM)
---------------------------------
  C     -1.585404    3.392058    7.212129
  O     -2.120105    3.744945    8.520689
  H     -1.462705    3.477092    9.167592
  H     -2.311762    3.531126    6.455074
  H     -0.759444    4.075805    6.822156
  H     -1.228848    2.336794    7.215379
  C     -5.937137    1.611102    8.304273
  O     -6.285615    0.571866    7.420897
  H     -6.845697    0.910848    6.750429
  H     -6.688215    1.793401    9.086896
  H     -4.989211    1.450799    8.914783
  H     -5.887714    2.542823    7.659055

 Multiplicity           Mult            ....    1
 Number of Electrons    NEL             ....   18
 Basis Dimension        Dim             ....  172

ORBITAL ENERGIES
----------------

  NO   OCC          E(Eh)            E(eV)
   0   2.0000     -19.228412      -523.2317
   1   2.0000     -10.323894      -280.9274
   2   2.0000      -1.143265       -31.1098
   3   2.0000      -0.791565       -21.5396
   4   2.0000      -0.613910       -16.7053
   5   2.0000      -0.543585       -14.7917
   6   2.0000      -0.526613       -14.3299
   7   2.0000      -0.427855       -11.6425
   8   2.0000      -0.371197       -10.1008
   9   0.0000       0.083439         2.2705
  10   0.0000       0.114392         3.1128
  11   0.0000       0.147044         4.0013
  12   0.0000       0.163254         4.4424
  13   0.0000       0.186841         5.0842

MULLIKEN ATOMIC CHARGES
-----------------------
   0 C :   -0.000125
   1 O :   -0.000012
   2 H :   -0.000033
   3 H :   -0.000008
   4 H :    0.000005
   5 H :   -0.000026
   6 C :   -0.164855
   7 O :   -0.468567
   8 H :    0.315812
   9 H :    0.101220
  10 H :    0.120257
  11 H :    0.096331
Sum of atomic charges:    0.0000000

LOEWDIN ATOMIC CHARGES
----------------------
   0 C :   -0.000259
   1 O :   -0.000172
   2 H :   -0.000045
   3 H :   -0.000077
   4 H :   -0.000002
   5 H :   -0.000020
   6 C :   -0.399151
   7 O :   -0.065071
   8 H :    0.155655
   9 H :    0.091729
  10 H :    0.114854
  11 H :    0.102560

  Mayer bond orders larger than 0.1
B(  6-C ,  7-O ) :   1.0018 B(  6-C ,  9-H ) :   0.9671 B(  6-C , 10-H ) :   0.9693
B(  6-C , 11-H ) :   0.9923 B(  7-O ,  8-H ) :   0.9010

Dispersion correction           -0.000248794
FINAL SINGLE POINT ENERGY      -115.729497062234

DIPOLE MOMENT
-------------
                                X             Y             Z
Electronic contribution:     -0.33954      -1.52598      -1.07533
Nuclear contribution   :      0.10754       2.14735       0.98812
                        -----------------------------------------
Total Dipole Moment    :     -0.23200       0.62137      -0.08721
                        -----------------------------------------
Magnitude (a.u.)       :      0.66897
Magnitude (Debye)      :      1.70040

Rotational constants in cm-1:     4.227132     0.831882     0.794215
Rotational constants in MHz : 126726.221283 24939.205177 23809.979910

                             ****ORCA TERMINATED NORMALLY****
TOTAL RUN TIME: 0 days 0 hours 1 minutes 10 seconds 371 msec
