                         Program Version 4.1.2  - RELEASE  -
|  1> #Run DFT-D3 single point of the dimer
|  2> ! wB97X-D3 def2-TZVP TIGHTSCF CHELPG PMODEL PAL8
|  3>
|  4> %base "16-113_DFT_AB"
|  5>
|  6> %scf
|  7> MaxIter 1000
|  8> end
|  9>
| 10> * xyz 0 1
| 11>   C                      -6.170275            7.304904             2.945659
| 12>   O                      -6.004982            5.919241             2.961373
| 13>   H                      -5.177506            5.678358             2.626186
| 14>   H                      -5.361011            7.815695             3.442207
| 15>   H                      -6.204885            7.631160             1.917815
| 16>   H                      -7.083981            7.553979             3.478656
| 17>   C                      -10.565225           6.149630             1.858915
| 18>   O                      -9.441526            5.307321             1.741145
| 19>   H                      -8.755269            5.566378             2.413798
| 20>   H                      -10.616256           6.443767             2.897715
| 21>   H                      -10.487869           7.082382             1.229496
| 22>   H                      -11.568240           5.660243             1.593806
| 23> *
| 24>
| 25> #Run DFT-D3 single point of the molecule with dimer basis set
| 26> $new_job
| 27> %base "16-113_DFT_A"
| 28> ! wB97X-D3 def2-TZVP TIGHTSCF CHELPG PMODEL
| 29>
| 30> %scf
| 31> MaxIter 1000
| 32> end
| 33>
| 34> * xyz 0 1
| 35>   C                      -6.170275            7.304904             2.945659
| 36>   O                      -6.004982            5.919241             2.961373
| 37>   H                      -5.177506            5.678358             2.626186
| 38>   H                      -5.361011            7.815695             3.442207
| 39>   H                      -6.204885            7.631160             1.917815
| 40>   H                      -7.083981            7.553979             3.478656
| 41>   C                    : -10.565225           6.149630             1.858915
| 42>   O                    : -9.441526            5.307321             1.741145
| 43>   H                    : -8.755269            5.566378             2.413798
| 44>   H                    : -10.616256           6.443767             2.897715
| 45>   H                    : -10.487869           7.082382             1.229496
| 46>   H                    : -11.568240           5.660243             1.593806
| 47> *
| 48>
| 49> #Run DFT-D3 single point of the particle with dimer basis set
| 50> $new_job
| 51> %base "16-113_DFT_B"
| 52> ! wB97X-D3 def2-TZVP TIGHTSCF CHELPG PMODEL
| 53>
| 54> %scf
| 55> MaxIter 1000
| 56> end
| 57>
| 58> * xyz 0 1
| 59>   C                    : -6.170275            7.304904             2.945659
| 60>   O                    : -6.004982            5.919241             2.961373
| 61>   H                    : -5.177506            5.678358             2.626186
| 62>   H                    : -5.361011            7.815695             3.442207
| 63>   H                    : -6.204885            7.631160             1.917815
| 64>   H                    : -7.083981            7.553979             3.478656
| 65>   C                      -10.565225           6.149630             1.858915
| 66>   O                      -9.441526            5.307321             1.741145
| 67>   H                      -8.755269            5.566378             2.413798
| 68>   H                      -10.616256           6.443767             2.897715
| 69>   H                      -10.487869           7.082382             1.229496
| 70>   H                      -11.568240           5.660243             1.593806
| 71> *
| 72>
| 73>                          ****END OF INPUT****
 Total Charge           Charge          ....    0
 Multiplicity           Mult            ....    1
 Number of Electrons    NEL             ....   36
Dispersion correction           -0.001456872
FINAL SINGLE POINT ENERGY      -231.468630304157
Dispersion correction           -0.000219311
FINAL SINGLE POINT ENERGY      -115.735222269429

CARTESIAN COORDINATES (ANGSTROEM)
---------------------------------
  C     -6.170275    7.304904    2.945659
  O     -6.004982    5.919241    2.961373
  H     -5.177506    5.678358    2.626186
  H     -5.361011    7.815695    3.442207
  H     -6.204885    7.631160    1.917815
  H     -7.083981    7.553979    3.478656
  C    -10.565225    6.149630    1.858915
  O     -9.441526    5.307321    1.741145
  H     -8.755269    5.566378    2.413798
  H    -10.616256    6.443767    2.897715
  H    -10.487869    7.082382    1.229496
  H    -11.568240    5.660243    1.593806

 Multiplicity           Mult            ....    1
 Number of Electrons    NEL             ....   18
 Basis Dimension        Dim             ....  172

ORBITAL ENERGIES
----------------

  NO   OCC          E(Eh)            E(eV)
   0   2.0000     -19.233739      -523.3766
   1   2.0000     -10.320761      -280.8422
   2   2.0000      -1.131599       -30.7924
   3   2.0000      -0.786911       -21.4129
   4   2.0000      -0.608933       -16.5699
   5   2.0000      -0.538399       -14.6506
   6   2.0000      -0.527300       -14.3486
   7   2.0000      -0.425104       -11.5677
   8   2.0000      -0.371709       -10.1147
   9   0.0000       0.069063         1.8793
  10   0.0000       0.123093         3.3495
  11   0.0000       0.144167         3.9230
  12   0.0000       0.165827         4.5124
  13   0.0000       0.185668         5.0523

MULLIKEN ATOMIC CHARGES
-----------------------
   0 C :   -0.004202
   1 O :    0.000740
   2 H :    0.000072
   3 H :   -0.000252
   4 H :    0.000577
   5 H :   -0.000411
   6 C :   -0.161482
   7 O :   -0.474981
   8 H :    0.322294
   9 H :    0.102812
  10 H :    0.098579
  11 H :    0.116256
Sum of atomic charges:   -0.0000000

LOEWDIN ATOMIC CHARGES
----------------------
   0 C :   -0.003524
   1 O :   -0.001093
   2 H :   -0.000061
   3 H :   -0.000104
   4 H :   -0.000217
   5 H :   -0.000862
   6 C :   -0.401155
   7 O :   -0.089638
   8 H :    0.191346
   9 H :    0.092261
  10 H :    0.098448
  11 H :    0.114597

  Mayer bond orders larger than 0.1
B(  6-C ,  7-O ) :   1.0053 B(  6-C ,  9-H ) :   0.9912 B(  6-C , 10-H ) :   0.9678
B(  6-C , 11-H ) :   0.9684 B(  7-O ,  8-H ) :   0.8912

Dispersion correction           -0.000255809
FINAL SINGLE POINT ENERGY      -115.730330632029

DIPOLE MOMENT
-------------
                                X             Y             Z
Electronic contribution:      1.40436      -1.21212      -0.29044
Nuclear contribution   :     -1.41425       1.69849       0.79287
                        -----------------------------------------
Total Dipole Moment    :     -0.00989       0.48637       0.50243
                        -----------------------------------------
Magnitude (a.u.)       :      0.69935
Magnitude (Debye)      :      1.77761

Rotational constants in cm-1:     4.172624     0.822598     0.793885
Rotational constants in MHz : 125092.120101 24660.877906 23800.058648

                             ****ORCA TERMINATED NORMALLY****
TOTAL RUN TIME: 0 days 0 hours 0 minutes 52 seconds 389 msec
