                         Program Version 4.1.2  - RELEASE  -
|  1> #Run DFT-D3 single point of the dimer
|  2> ! wB97X-D3 def2-TZVP TIGHTSCF CHELPG PMODEL PAL8
|  3>
|  4> %base "4-159_DFT_AB"
|  5>
|  6> %scf
|  7> MaxIter 1000
|  8> end
|  9>
| 10> * xyz 0 1
| 11>   C                      7.497052             2.270548             -2.229564
| 12>   O                      7.274644             2.219434             -0.824995
| 13>   H                      7.353373             3.087960             -0.498924
| 14>   H                      6.908298             1.511459             -2.771878
| 15>   H                      7.202090             3.245681             -2.504666
| 16>   H                      8.554469             2.117082             -2.447961
| 17>   C                      8.803671             5.429537             -0.344730
| 18>   O                      7.914857             5.250084             -1.418711
| 19>   H                      8.278456             5.800383             -2.093842
| 20>   H                      9.875000             5.493104             -0.713531
| 21>   H                      8.621284             6.403243             0.179232
| 22>   H                      8.789780             4.531197             0.299483
| 23> *
| 24>
| 25> #Run DFT-D3 single point of the molecule with dimer basis set
| 26> $new_job
| 27> %base "4-159_DFT_A"
| 28> ! wB97X-D3 def2-TZVP TIGHTSCF CHELPG PMODEL
| 29>
| 30> %scf
| 31> MaxIter 1000
| 32> end
| 33>
| 34> * xyz 0 1
| 35>   C                      7.497052             2.270548             -2.229564
| 36>   O                      7.274644             2.219434             -0.824995
| 37>   H                      7.353373             3.087960             -0.498924
| 38>   H                      6.908298             1.511459             -2.771878
| 39>   H                      7.202090             3.245681             -2.504666
| 40>   H                      8.554469             2.117082             -2.447961
| 41>   C                    : 8.803671             5.429537             -0.344730
| 42>   O                    : 7.914857             5.250084             -1.418711
| 43>   H                    : 8.278456             5.800383             -2.093842
| 44>   H                    : 9.875000             5.493104             -0.713531
| 45>   H                    : 8.621284             6.403243             0.179232
| 46>   H                    : 8.789780             4.531197             0.299483
| 47> *
| 48>
| 49> #Run DFT-D3 single point of the particle with dimer basis set
| 50> $new_job
| 51> %base "4-159_DFT_B"
| 52> ! wB97X-D3 def2-TZVP TIGHTSCF CHELPG PMODEL
| 53>
| 54> %scf
| 55> MaxIter 1000
| 56> end
| 57>
| 58> * xyz 0 1
| 59>   C                    : 7.497052             2.270548             -2.229564
| 60>   O                    : 7.274644             2.219434             -0.824995
| 61>   H                    : 7.353373             3.087960             -0.498924
| 62>   H                    : 6.908298             1.511459             -2.771878
| 63>   H                    : 7.202090             3.245681             -2.504666
| 64>   H                    : 8.554469             2.117082             -2.447961
| 65>   C                      8.803671             5.429537             -0.344730
| 66>   O                      7.914857             5.250084             -1.418711
| 67>   H                      8.278456             5.800383             -2.093842
| 68>   H                      9.875000             5.493104             -0.713531
| 69>   H                      8.621284             6.403243             0.179232
| 70>   H                      8.789780             4.531197             0.299483
| 71> *
| 72>
| 73>                          ****END OF INPUT****
 Total Charge           Charge          ....    0
 Multiplicity           Mult            ....    1
 Number of Electrons    NEL             ....   36
Dispersion correction           -0.002165075
FINAL SINGLE POINT ENERGY      -231.469865125803
Dispersion correction           -0.000223534
FINAL SINGLE POINT ENERGY      -115.732754315751

CARTESIAN COORDINATES (ANGSTROEM)
---------------------------------
  C      7.497052    2.270548   -2.229564
  O      7.274644    2.219434   -0.824995
  H      7.353373    3.087960   -0.498924
  H      6.908298    1.511459   -2.771878
  H      7.202090    3.245681   -2.504666
  H      8.554469    2.117082   -2.447961
  C      8.803671    5.429537   -0.344730
  O      7.914857    5.250084   -1.418711
  H      8.278456    5.800383   -2.093842
  H      9.875000    5.493104   -0.713531
  H      8.621284    6.403243    0.179232
  H      8.789780    4.531197    0.299483

 Multiplicity           Mult            ....    1
 Number of Electrons    NEL             ....   18
 Basis Dimension        Dim             ....  172

ORBITAL ENERGIES
----------------

  NO   OCC          E(Eh)            E(eV)
   0   2.0000     -19.232025      -523.3300
   1   2.0000     -10.321542      -280.8634
   2   2.0000      -1.147286       -31.2192
   3   2.0000      -0.788626       -21.4596
   4   2.0000      -0.614534       -16.7223
   5   2.0000      -0.545491       -14.8436
   6   2.0000      -0.522293       -14.2123
   7   2.0000      -0.437098       -11.8940
   8   2.0000      -0.374633       -10.1943
   9   0.0000       0.098044         2.6679
  10   0.0000       0.129265         3.5175
  11   0.0000       0.151789         4.1304
  12   0.0000       0.176358         4.7989
  13   0.0000       0.195751         5.3267

MULLIKEN ATOMIC CHARGES
-----------------------
   0 C :    0.008329
   1 O :   -0.001337
   2 H :   -0.000248
   3 H :   -0.000487
   4 H :   -0.011878
   5 H :   -0.002361
   6 C :   -0.184019
   7 O :   -0.450247
   8 H :    0.312189
   9 H :    0.100035
  10 H :    0.106644
  11 H :    0.123381
Sum of atomic charges:    0.0000000

LOEWDIN ATOMIC CHARGES
----------------------
   0 C :   -0.014776
   1 O :   -0.001464
   2 H :   -0.009777
   3 H :   -0.000135
   4 H :   -0.014714
   5 H :   -0.000864
   6 C :   -0.399234
   7 O :   -0.033316
   8 H :    0.162735
   9 H :    0.099985
  10 H :    0.100108
  11 H :    0.111452

  Mayer bond orders larger than 0.1
B(  6-C ,  7-O ) :   0.9929 B(  6-C ,  9-H ) :   0.9823 B(  6-C , 10-H ) :   0.9655
B(  6-C , 11-H ) :   0.9758 B(  7-O ,  8-H ) :   0.9025

Dispersion correction           -0.000231076
FINAL SINGLE POINT ENERGY      -115.733302020425

DIPOLE MOMENT
-------------
                                X             Y             Z
Electronic contribution:     -1.36987      -0.34589      -1.25831
Nuclear contribution   :      1.94560       0.75277       1.22599
                        -----------------------------------------
Total Dipole Moment    :      0.57573       0.40688      -0.03232
                        -----------------------------------------
Magnitude (a.u.)       :      0.70573
Magnitude (Debye)      :      1.79383

Rotational constants in cm-1:     4.098339     0.841201     0.811765
Rotational constants in MHz : 122865.110840 25218.586508 24336.087574

                             ****ORCA TERMINATED NORMALLY****
TOTAL RUN TIME: 0 days 0 hours 1 minutes 28 seconds 627 msec
