                         Program Version 4.1.2  - RELEASE  -
|  1> #Run DFT-D3 single point of the dimer
|  2> ! wB97X-D3 def2-TZVP TIGHTSCF CHELPG PMODEL PAL8
|  3>
|  4> %base "8-85_DFT_AB"
|  5>
|  6> %scf
|  7> MaxIter 1000
|  8> end
|  9>
| 10> * xyz 0 1
| 11>   C                      6.555521             2.875121             5.302771
| 12>   O                      5.960526             2.912413             6.541502
| 13>   H                      5.034107             2.707951             6.433674
| 14>   H                      6.880396             3.815636             4.981021
| 15>   H                      7.546284             2.419773             5.320943
| 16>   H                      5.929050             2.395693             4.578541
| 17>   C                      7.988507             2.573793             9.626002
| 18>   O                      7.656822             1.686313             8.523288
| 19>   H                      6.941933             2.020952             8.045192
| 20>   H                      8.779664             2.093395             10.209201
| 21>   H                      8.392606             3.526841             9.233847
| 22>   H                      7.148142             2.739251             10.320082
| 23> *
| 24>
| 25> #Run DFT-D3 single point of the molecule with dimer basis set
| 26> $new_job
| 27> %base "8-85_DFT_A"
| 28> ! wB97X-D3 def2-TZVP TIGHTSCF CHELPG PMODEL
| 29>
| 30> %scf
| 31> MaxIter 1000
| 32> end
| 33>
| 34> * xyz 0 1
| 35>   C                      6.555521             2.875121             5.302771
| 36>   O                      5.960526             2.912413             6.541502
| 37>   H                      5.034107             2.707951             6.433674
| 38>   H                      6.880396             3.815636             4.981021
| 39>   H                      7.546284             2.419773             5.320943
| 40>   H                      5.929050             2.395693             4.578541
| 41>   C                    : 7.988507             2.573793             9.626002
| 42>   O                    : 7.656822             1.686313             8.523288
| 43>   H                    : 6.941933             2.020952             8.045192
| 44>   H                    : 8.779664             2.093395             10.209201
| 45>   H                    : 8.392606             3.526841             9.233847
| 46>   H                    : 7.148142             2.739251             10.320082
| 47> *
| 48>
| 49> #Run DFT-D3 single point of the particle with dimer basis set
| 50> $new_job
| 51> %base "8-85_DFT_B"
| 52> ! wB97X-D3 def2-TZVP TIGHTSCF CHELPG PMODEL
| 53>
| 54> %scf
| 55> MaxIter 1000
| 56> end
| 57>
| 58> * xyz 0 1
| 59>   C                    : 6.555521             2.875121             5.302771
| 60>   O                    : 5.960526             2.912413             6.541502
| 61>   H                    : 5.034107             2.707951             6.433674
| 62>   H                    : 6.880396             3.815636             4.981021
| 63>   H                    : 7.546284             2.419773             5.320943
| 64>   H                    : 5.929050             2.395693             4.578541
| 65>   C                      7.988507             2.573793             9.626002
| 66>   O                      7.656822             1.686313             8.523288
| 67>   H                      6.941933             2.020952             8.045192
| 68>   H                      8.779664             2.093395             10.209201
| 69>   H                      8.392606             3.526841             9.233847
| 70>   H                      7.148142             2.739251             10.320082
| 71> *
| 72>
| 73>                          ****END OF INPUT****
 Total Charge           Charge          ....    0
 Multiplicity           Mult            ....    1
 Number of Electrons    NEL             ....   36
Dispersion correction           -0.001675050
FINAL SINGLE POINT ENERGY      -231.471518257908
Dispersion correction           -0.000227656
FINAL SINGLE POINT ENERGY      -115.728944797073

CARTESIAN COORDINATES (ANGSTROEM)
---------------------------------
  C      6.555521    2.875121    5.302771
  O      5.960526    2.912413    6.541502
  H      5.034107    2.707951    6.433674
  H      6.880396    3.815636    4.981021
  H      7.546284    2.419773    5.320943
  H      5.929050    2.395693    4.578541
  C      7.988507    2.573793    9.626002
  O      7.656822    1.686313    8.523288
  H      6.941933    2.020952    8.045192
  H      8.779664    2.093395   10.209201
  H      8.392606    3.526841    9.233847
  H      7.148142    2.739251   10.320082

 Multiplicity           Mult            ....    1
 Number of Electrons    NEL             ....   18
 Basis Dimension        Dim             ....  172

ORBITAL ENERGIES
----------------

  NO   OCC          E(Eh)            E(eV)
   0   2.0000     -19.226362      -523.1759
   1   2.0000     -10.320170      -280.8261
   2   2.0000      -1.130895       -30.7732
   3   2.0000      -0.800214       -21.7749
   4   2.0000      -0.606317       -16.4987
   5   2.0000      -0.540900       -14.7186
   6   2.0000      -0.522414       -14.2156
   7   2.0000      -0.433848       -11.8056
   8   2.0000      -0.377783       -10.2800
   9   0.0000       0.076868         2.0917
  10   0.0000       0.133948         3.6449
  11   0.0000       0.151122         4.1122
  12   0.0000       0.167954         4.5703
  13   0.0000       0.194391         5.2896

MULLIKEN ATOMIC CHARGES
-----------------------
   0 C :   -0.003481
   1 O :   -0.002822
   2 H :   -0.000392
   3 H :    0.000449
   4 H :   -0.002652
   5 H :   -0.000037
   6 C :   -0.163102
   7 O :   -0.471197
   8 H :    0.304136
   9 H :    0.124943
  10 H :    0.104469
  11 H :    0.109686
Sum of atomic charges:    0.0000000

LOEWDIN ATOMIC CHARGES
----------------------
   0 C :   -0.005065
   1 O :   -0.016838
   2 H :   -0.001173
   3 H :   -0.000068
   4 H :   -0.001910
   5 H :   -0.000084
   6 C :   -0.352656
   7 O :   -0.073545
   8 H :    0.144383
   9 H :    0.110145
  10 H :    0.098891
  11 H :    0.097921

  Mayer bond orders larger than 0.1
B(  6-C ,  7-O ) :   0.9899 B(  6-C ,  9-H ) :   0.9750 B(  6-C , 10-H ) :   0.9725
B(  6-C , 11-H ) :   0.9734 B(  7-O ,  8-H ) :   0.9149

Dispersion correction           -0.000264386
FINAL SINGLE POINT ENERGY      -115.735166984668

DIPOLE MOMENT
-------------
                                X             Y             Z
Electronic contribution:     -0.36073      -1.14514      -1.30581
Nuclear contribution   :      0.05211       1.72626       1.48785
                        -----------------------------------------
Total Dipole Moment    :     -0.30862       0.58111       0.18204
                        -----------------------------------------
Magnitude (a.u.)       :      0.68270
Magnitude (Debye)      :      1.73528

Rotational constants in cm-1:     4.313602     0.789522     0.770372
Rotational constants in MHz : 129318.533633 23669.275217 23095.171508

                             ****ORCA TERMINATED NORMALLY****
TOTAL RUN TIME: 0 days 0 hours 0 minutes 46 seconds 738 msec
