                         Program Version 4.1.2  - RELEASE  -
|  1> #Run DFT-D3 single point of the dimer
|  2> ! wB97X-D3 def2-TZVP TIGHTSCF CHELPG PMODEL PAL8
|  3>
|  4> %base "3-15_DFT_AB"
|  5>
|  6> %scf
|  7> MaxIter 1000
|  8> end
|  9>
| 10> * xyz 0 1
| 11>   C                      0.141561             6.247437             4.342902
| 12>   O                      -0.671210            6.055133             5.470995
| 13>   H                      -0.143852            5.652897             6.120910
| 14>   H                      0.997028             6.871239             4.544806
| 15>   H                      0.411989             5.326716             3.898990
| 16>   H                      -0.387381            6.739469             3.540981
| 17>   C                      -2.104841            3.084643             0.843986
| 18>   O                      -2.083600            4.380224             0.255319
| 19>   H                      -2.532505            4.933065             0.852834
| 20>   H                      -3.153345            2.671950             0.795559
| 21>   H                      -1.390689            2.419240             0.375458
| 22>   H                      -1.825190            3.096817             1.930390
| 23> *
| 24>
| 25> #Run DFT-D3 single point of the molecule with dimer basis set
| 26> $new_job
| 27> %base "3-15_DFT_A"
| 28> ! wB97X-D3 def2-TZVP TIGHTSCF CHELPG PMODEL
| 29>
| 30> %scf
| 31> MaxIter 1000
| 32> end
| 33>
| 34> * xyz 0 1
| 35>   C                      0.141561             6.247437             4.342902
| 36>   O                      -0.671210            6.055133             5.470995
| 37>   H                      -0.143852            5.652897             6.120910
| 38>   H                      0.997028             6.871239             4.544806
| 39>   H                      0.411989             5.326716             3.898990
| 40>   H                      -0.387381            6.739469             3.540981
| 41>   C                    : -2.104841            3.084643             0.843986
| 42>   O                    : -2.083600            4.380224             0.255319
| 43>   H                    : -2.532505            4.933065             0.852834
| 44>   H                    : -3.153345            2.671950             0.795559
| 45>   H                    : -1.390689            2.419240             0.375458
| 46>   H                    : -1.825190            3.096817             1.930390
| 47> *
| 48>
| 49> #Run DFT-D3 single point of the particle with dimer basis set
| 50> $new_job
| 51> %base "3-15_DFT_B"
| 52> ! wB97X-D3 def2-TZVP TIGHTSCF CHELPG PMODEL
| 53>
| 54> %scf
| 55> MaxIter 1000
| 56> end
| 57>
| 58> * xyz 0 1
| 59>   C                    : 0.141561             6.247437             4.342902
| 60>   O                    : -0.671210            6.055133             5.470995
| 61>   H                    : -0.143852            5.652897             6.120910
| 62>   H                    : 0.997028             6.871239             4.544806
| 63>   H                    : 0.411989             5.326716             3.898990
| 64>   H                    : -0.387381            6.739469             3.540981
| 65>   C                      -2.104841            3.084643             0.843986
| 66>   O                      -2.083600            4.380224             0.255319
| 67>   H                      -2.532505            4.933065             0.852834
| 68>   H                      -3.153345            2.671950             0.795559
| 69>   H                      -1.390689            2.419240             0.375458
| 70>   H                      -1.825190            3.096817             1.930390
| 71> *
| 72>
| 73>                          ****END OF INPUT****
 Total Charge           Charge          ....    0
 Multiplicity           Mult            ....    1
 Number of Electrons    NEL             ....   36
Dispersion correction           -0.000810905
FINAL SINGLE POINT ENERGY      -231.468573861491
Dispersion correction           -0.000225441
FINAL SINGLE POINT ENERGY      -115.733616980759

CARTESIAN COORDINATES (ANGSTROEM)
---------------------------------
  C      0.141561    6.247437    4.342902
  O     -0.671210    6.055133    5.470995
  H     -0.143852    5.652897    6.120910
  H      0.997028    6.871239    4.544806
  H      0.411989    5.326716    3.898990
  H     -0.387381    6.739469    3.540981
  C     -2.104841    3.084643    0.843986
  O     -2.083600    4.380224    0.255319
  H     -2.532505    4.933065    0.852834
  H     -3.153345    2.671950    0.795559
  H     -1.390689    2.419240    0.375458
  H     -1.825190    3.096817    1.930390

 Multiplicity           Mult            ....    1
 Number of Electrons    NEL             ....   18
 Basis Dimension        Dim             ....  172

ORBITAL ENERGIES
----------------

  NO   OCC          E(Eh)            E(eV)
   0   2.0000     -19.229122      -523.2510
   1   2.0000     -10.319965      -280.8205
   2   2.0000      -1.142053       -31.0768
   3   2.0000      -0.794205       -21.6114
   4   2.0000      -0.611547       -16.6410
   5   2.0000      -0.540743       -14.7144
   6   2.0000      -0.525051       -14.2874
   7   2.0000      -0.438862       -11.9420
   8   2.0000      -0.373851       -10.1730
   9   0.0000       0.080093         2.1794
  10   0.0000       0.118203         3.2165
  11   0.0000       0.150739         4.1018
  12   0.0000       0.169105         4.6016
  13   0.0000       0.183614         4.9964

MULLIKEN ATOMIC CHARGES
-----------------------
   0 C :    0.000228
   1 O :   -0.000005
   2 H :   -0.000000
   3 H :   -0.000027
   4 H :    0.000018
   5 H :   -0.000549
   6 C :   -0.178055
   7 O :   -0.463527
   8 H :    0.309652
   9 H :    0.104122
  10 H :    0.124887
  11 H :    0.103257
Sum of atomic charges:   -0.0000000

LOEWDIN ATOMIC CHARGES
----------------------
   0 C :   -0.000136
   1 O :   -0.000007
   2 H :   -0.000000
   3 H :   -0.000002
   4 H :   -0.000084
   5 H :   -0.000172
   6 C :   -0.383728
   7 O :   -0.068827
   8 H :    0.149203
   9 H :    0.100606
  10 H :    0.104697
  11 H :    0.098450

  Mayer bond orders larger than 0.1
B(  6-C ,  7-O ) :   0.9954 B(  6-C ,  9-H ) :   0.9761 B(  6-C , 10-H ) :   0.9720
B(  6-C , 11-H ) :   0.9738 B(  7-O ,  8-H ) :   0.9078

Dispersion correction           -0.000241179
FINAL SINGLE POINT ENERGY      -115.734141992036

DIPOLE MOMENT
-------------
                                X             Y             Z
Electronic contribution:      0.16219       1.61855      -0.95817
Nuclear contribution   :     -0.43502      -1.77665       1.57268
                        -----------------------------------------
Total Dipole Moment    :     -0.27283      -0.15810       0.61451
                        -----------------------------------------
Magnitude (a.u.)       :      0.69069
Magnitude (Debye)      :      1.75559

Rotational constants in cm-1:     4.229870     0.820233     0.794229
Rotational constants in MHz : 126808.320701 24589.964557 23810.381988

                             ****ORCA TERMINATED NORMALLY****
TOTAL RUN TIME: 0 days 0 hours 6 minutes 22 seconds 444 msec
