                         Program Version 4.1.2  - RELEASE  -
|  1> #Run DFT-D3 single point of the dimer
|  2> ! wB97X-D3 def2-TZVP TIGHTSCF CHELPG PMODEL PAL8
|  3>
|  4> %base "3-101_DFT_AB"
|  5>
|  6> %scf
|  7> MaxIter 1000
|  8> end
|  9>
| 10> * xyz 0 1
| 11>   C                      3.247965             -4.559031            -0.450661
| 12>   O                      3.082228             -5.100131            0.833028
| 13>   H                      3.428484             -4.516003            1.598931
| 14>   H                      2.833958             -5.230700            -1.176977
| 15>   H                      2.781872             -3.575299            -0.586808
| 16>   H                      4.333572             -4.378047            -0.637821
| 17>   C                      7.093664             -3.621654            0.234565
| 18>   O                      6.634863             -2.310112            -0.095523
| 19>   H                      6.282050             -1.835852            0.611840
| 20>   H                      7.254940             -4.327655            -0.577283
| 21>   H                      7.974783             -3.551100            0.921362
| 22>   H                      6.375178             -4.203709            0.927211
| 23> *
| 24>
| 25> #Run DFT-D3 single point of the molecule with dimer basis set
| 26> $new_job
| 27> %base "3-101_DFT_A"
| 28> ! wB97X-D3 def2-TZVP TIGHTSCF CHELPG PMODEL
| 29>
| 30> %scf
| 31> MaxIter 1000
| 32> end
| 33>
| 34> * xyz 0 1
| 35>   C                      3.247965             -4.559031            -0.450661
| 36>   O                      3.082228             -5.100131            0.833028
| 37>   H                      3.428484             -4.516003            1.598931
| 38>   H                      2.833958             -5.230700            -1.176977
| 39>   H                      2.781872             -3.575299            -0.586808
| 40>   H                      4.333572             -4.378047            -0.637821
| 41>   C                    : 7.093664             -3.621654            0.234565
| 42>   O                    : 6.634863             -2.310112            -0.095523
| 43>   H                    : 6.282050             -1.835852            0.611840
| 44>   H                    : 7.254940             -4.327655            -0.577283
| 45>   H                    : 7.974783             -3.551100            0.921362
| 46>   H                    : 6.375178             -4.203709            0.927211
| 47> *
| 48>
| 49> #Run DFT-D3 single point of the particle with dimer basis set
| 50> $new_job
| 51> %base "3-101_DFT_B"
| 52> ! wB97X-D3 def2-TZVP TIGHTSCF CHELPG PMODEL
| 53>
| 54> %scf
| 55> MaxIter 1000
| 56> end
| 57>
| 58> * xyz 0 1
| 59>   C                    : 3.247965             -4.559031            -0.450661
| 60>   O                    : 3.082228             -5.100131            0.833028
| 61>   H                    : 3.428484             -4.516003            1.598931
| 62>   H                    : 2.833958             -5.230700            -1.176977
| 63>   H                    : 2.781872             -3.575299            -0.586808
| 64>   H                    : 4.333572             -4.378047            -0.637821
| 65>   C                      7.093664             -3.621654            0.234565
| 66>   O                      6.634863             -2.310112            -0.095523
| 67>   H                      6.282050             -1.835852            0.611840
| 68>   H                      7.254940             -4.327655            -0.577283
| 69>   H                      7.974783             -3.551100            0.921362
| 70>   H                      6.375178             -4.203709            0.927211
| 71> *
| 72>
| 73>                          ****END OF INPUT****
 Total Charge           Charge          ....    0
 Multiplicity           Mult            ....    1
 Number of Electrons    NEL             ....   36
Dispersion correction           -0.001768961
FINAL SINGLE POINT ENERGY      -231.458701065416
Dispersion correction           -0.000258005
FINAL SINGLE POINT ENERGY      -115.731366656121

CARTESIAN COORDINATES (ANGSTROEM)
---------------------------------
  C      3.247965   -4.559031   -0.450661
  O      3.082228   -5.100131    0.833028
  H      3.428484   -4.516003    1.598931
  H      2.833958   -5.230700   -1.176977
  H      2.781872   -3.575299   -0.586808
  H      4.333572   -4.378047   -0.637821
  C      7.093664   -3.621654    0.234565
  O      6.634863   -2.310112   -0.095523
  H      6.282050   -1.835852    0.611840
  H      7.254940   -4.327655   -0.577283
  H      7.974783   -3.551100    0.921362
  H      6.375178   -4.203709    0.927211

 Multiplicity           Mult            ....    1
 Number of Electrons    NEL             ....   18
 Basis Dimension        Dim             ....  172

ORBITAL ENERGIES
----------------

  NO   OCC          E(Eh)            E(eV)
   0   2.0000     -19.228451      -523.2327
   1   2.0000     -10.326102      -280.9875
   2   2.0000      -1.137693       -30.9582
   3   2.0000      -0.799789       -21.7634
   4   2.0000      -0.618363       -16.8265
   5   2.0000      -0.542842       -14.7715
   6   2.0000      -0.517105       -14.0712
   7   2.0000      -0.429095       -11.6763
   8   2.0000      -0.371404       -10.1064
   9   0.0000       0.084433         2.2975
  10   0.0000       0.129473         3.5231
  11   0.0000       0.145951         3.9715
  12   0.0000       0.159268         4.3339
  13   0.0000       0.201721         5.4891

MULLIKEN ATOMIC CHARGES
-----------------------
   0 C :   -0.002734
   1 O :   -0.000112
   2 H :    0.000002
   3 H :    0.000107
   4 H :   -0.000059
   5 H :    0.003353
   6 C :   -0.180582
   7 O :   -0.481698
   8 H :    0.315307
   9 H :    0.134700
  10 H :    0.114279
  11 H :    0.097438
Sum of atomic charges:    0.0000000

LOEWDIN ATOMIC CHARGES
----------------------
   0 C :   -0.002694
   1 O :   -0.000274
   2 H :   -0.000769
   3 H :   -0.000014
   4 H :   -0.000152
   5 H :   -0.003306
   6 C :   -0.381251
   7 O :   -0.066671
   8 H :    0.142953
   9 H :    0.108375
  10 H :    0.100238
  11 H :    0.103565

  Mayer bond orders larger than 0.1
B(  6-C ,  7-O ) :   0.9799 B(  6-C ,  9-H ) :   0.9691 B(  6-C , 10-H ) :   0.9760
B(  6-C , 11-H ) :   0.9775 B(  7-O ,  8-H ) :   0.9002

Dispersion correction           -0.000279574
FINAL SINGLE POINT ENERGY      -115.726093115775

DIPOLE MOMENT
-------------
                                X             Y             Z
Electronic contribution:     -0.50727       1.75001      -0.78412
Nuclear contribution   :      0.45654      -1.98201       1.39054
                        -----------------------------------------
Total Dipole Moment    :     -0.05073      -0.23200       0.60642
                        -----------------------------------------
Magnitude (a.u.)       :      0.65126
Magnitude (Debye)      :      1.65537

Rotational constants in cm-1:     4.416213     0.796339     0.768981
Rotational constants in MHz : 132394.728966 23873.628712 23053.485247

                             ****ORCA TERMINATED NORMALLY****
TOTAL RUN TIME: 0 days 0 hours 5 minutes 59 seconds 468 msec
