                         Program Version 4.1.2  - RELEASE  -
|  1> #Run DFT-D3 single point of the dimer
|  2> ! wB97X-D3 def2-TZVP TIGHTSCF CHELPG PMODEL PAL8
|  3>
|  4> %base "2-56_DFT_AB"
|  5>
|  6> %scf
|  7> MaxIter 1000
|  8> end
|  9>
| 10> * xyz 0 1
| 11>   C                      0.999467             -9.027304            -3.912011
| 12>   O                      2.186414             -9.130388            -3.186209
| 13>   H                      2.083546             -9.885682            -2.567494
| 14>   H                      0.950091             -9.809537            -4.582821
| 15>   H                      0.089306             -9.087572            -3.267712
| 16>   H                      0.963477             -8.154280            -4.573107
| 17>   C                      -0.374480            -9.771720            -0.426842
| 18>   O                      -1.356860            -10.419149           -1.161084
| 19>   H                      -2.105428            -10.409884           -0.526393
| 20>   H                      -0.582705            -8.711593            -0.219260
| 21>   H                      -0.288451            -10.241618           0.570621
| 22>   H                      0.529468             -9.875784            -0.950636
| 23> *
| 24>
| 25> #Run DFT-D3 single point of the molecule with dimer basis set
| 26> $new_job
| 27> %base "2-56_DFT_A"
| 28> ! wB97X-D3 def2-TZVP TIGHTSCF CHELPG PMODEL
| 29>
| 30> %scf
| 31> MaxIter 1000
| 32> end
| 33>
| 34> * xyz 0 1
| 35>   C                      0.999467             -9.027304            -3.912011
| 36>   O                      2.186414             -9.130388            -3.186209
| 37>   H                      2.083546             -9.885682            -2.567494
| 38>   H                      0.950091             -9.809537            -4.582821
| 39>   H                      0.089306             -9.087572            -3.267712
| 40>   H                      0.963477             -8.154280            -4.573107
| 41>   C                    : -0.374480            -9.771720            -0.426842
| 42>   O                    : -1.356860            -10.419149           -1.161084
| 43>   H                    : -2.105428            -10.409884           -0.526393
| 44>   H                    : -0.582705            -8.711593            -0.219260
| 45>   H                    : -0.288451            -10.241618           0.570621
| 46>   H                    : 0.529468             -9.875784            -0.950636
| 47> *
| 48>
| 49> #Run DFT-D3 single point of the particle with dimer basis set
| 50> $new_job
| 51> %base "2-56_DFT_B"
| 52> ! wB97X-D3 def2-TZVP TIGHTSCF CHELPG PMODEL
| 53>
| 54> %scf
| 55> MaxIter 1000
| 56> end
| 57>
| 58> * xyz 0 1
| 59>   C                    : 0.999467             -9.027304            -3.912011
| 60>   O                    : 2.186414             -9.130388            -3.186209
| 61>   H                    : 2.083546             -9.885682            -2.567494
| 62>   H                    : 0.950091             -9.809537            -4.582821
| 63>   H                    : 0.089306             -9.087572            -3.267712
| 64>   H                    : 0.963477             -8.154280            -4.573107
| 65>   C                      -0.374480            -9.771720            -0.426842
| 66>   O                      -1.356860            -10.419149           -1.161084
| 67>   H                      -2.105428            -10.409884           -0.526393
| 68>   H                      -0.582705            -8.711593            -0.219260
| 69>   H                      -0.288451            -10.241618           0.570621
| 70>   H                      0.529468             -9.875784            -0.950636
| 71> *
| 72>
| 73>                          ****END OF INPUT****
 Total Charge           Charge          ....    0
 Multiplicity           Mult            ....    1
 Number of Electrons    NEL             ....   36
Dispersion correction           -0.001834905
FINAL SINGLE POINT ENERGY      -231.465359320449
Dispersion correction           -0.000223826
FINAL SINGLE POINT ENERGY      -115.731049199297

CARTESIAN COORDINATES (ANGSTROEM)
---------------------------------
  C      0.999467   -9.027304   -3.912011
  O      2.186414   -9.130388   -3.186209
  H      2.083546   -9.885682   -2.567494
  H      0.950091   -9.809537   -4.582821
  H      0.089306   -9.087572   -3.267712
  H      0.963477   -8.154280   -4.573107
  C     -0.374480   -9.771720   -0.426842
  O     -1.356860  -10.419149   -1.161084
  H     -2.105428  -10.409884   -0.526393
  H     -0.582705   -8.711593   -0.219260
  H     -0.288451  -10.241618    0.570621
  H      0.529468   -9.875784   -0.950636

 Multiplicity           Mult            ....    1
 Number of Electrons    NEL             ....   18
 Basis Dimension        Dim             ....  172

ORBITAL ENERGIES
----------------

  NO   OCC          E(Eh)            E(eV)
   0   2.0000     -19.233731      -523.3764
   1   2.0000     -10.307199      -280.4731
   2   2.0000      -1.146313       -31.1928
   3   2.0000      -0.791186       -21.5293
   4   2.0000      -0.616868       -16.7858
   5   2.0000      -0.540950       -14.7200
   6   2.0000      -0.531555       -14.4644
   7   2.0000      -0.443918       -12.0796
   8   2.0000      -0.370359       -10.0780
   9   0.0000       0.093563         2.5460
  10   0.0000       0.116837         3.1793
  11   0.0000       0.156538         4.2596
  12   0.0000       0.172879         4.7043
  13   0.0000       0.201077         5.4716

MULLIKEN ATOMIC CHARGES
-----------------------
   0 C :   -0.000788
   1 O :   -0.000237
   2 H :   -0.000149
   3 H :   -0.000063
   4 H :    0.000660
   5 H :    0.000120
   6 C :   -0.175376
   7 O :   -0.458408
   8 H :    0.313145
   9 H :    0.095616
  10 H :    0.099446
  11 H :    0.126032
Sum of atomic charges:   -0.0000000

LOEWDIN ATOMIC CHARGES
----------------------
   0 C :   -0.003110
   1 O :   -0.000954
   2 H :   -0.004784
   3 H :   -0.000027
   4 H :   -0.003916
   5 H :   -0.000010
   6 C :   -0.406816
   7 O :   -0.060176
   8 H :    0.187283
   9 H :    0.093894
  10 H :    0.096712
  11 H :    0.101905

  Mayer bond orders larger than 0.1
B(  6-C ,  7-O ) :   1.0013 B(  6-C ,  9-H ) :   0.9724 B(  6-C , 10-H ) :   0.9812
B(  6-C , 11-H ) :   0.9776 B(  7-O ,  8-H ) :   0.9006

Dispersion correction           -0.000205774
FINAL SINGLE POINT ENERGY      -115.732856534185

DIPOLE MOMENT
-------------
                                X             Y             Z
Electronic contribution:     -1.14179      -0.85455      -1.19346
Nuclear contribution   :      1.05547       1.08376       1.84716
                        -----------------------------------------
Total Dipole Moment    :     -0.08632       0.22921       0.65371
                        -----------------------------------------
Magnitude (a.u.)       :      0.69808
Magnitude (Debye)      :      1.77438

Rotational constants in cm-1:     4.228791     0.872867     0.833368
Rotational constants in MHz : 126775.978986 26167.907338 24983.743630

                             ****ORCA TERMINATED NORMALLY****
TOTAL RUN TIME: 0 days 0 hours 6 minutes 0 seconds 682 msec
