                         Program Version 4.1.2  - RELEASE  -
|  1> #Run DFT-D3 single point of the dimer
|  2> ! wB97X-D3 def2-TZVP TIGHTSCF CHELPG PMODEL PAL8
|  3>
|  4> %base "19-40_DFT_AB"
|  5>
|  6> %scf
|  7> MaxIter 1000
|  8> end
|  9>
| 10> * xyz 0 1
| 11>   C                      7.257563             6.735818             4.442851
| 12>   O                      8.386543             7.556154             4.548185
| 13>   H                      9.044606             7.039462             5.018656
| 14>   H                      7.278685             6.428361             3.430371
| 15>   H                      7.463774             5.931356             5.183014
| 16>   H                      6.305239             7.244127             4.579032
| 17>   C                      2.133361             7.137426             6.794470
| 18>   O                      3.422089             7.275639             7.377078
| 19>   H                      3.459965             6.780640             8.178787
| 20>   H                      2.011717             6.085576             6.397610
| 21>   H                      1.310506             7.357630             7.547516
| 22>   H                      2.139126             7.935520             6.013690
| 23> *
| 24>
| 25> #Run DFT-D3 single point of the molecule with dimer basis set
| 26> $new_job
| 27> %base "19-40_DFT_A"
| 28> ! wB97X-D3 def2-TZVP TIGHTSCF CHELPG PMODEL
| 29>
| 30> %scf
| 31> MaxIter 1000
| 32> end
| 33>
| 34> * xyz 0 1
| 35>   C                      7.257563             6.735818             4.442851
| 36>   O                      8.386543             7.556154             4.548185
| 37>   H                      9.044606             7.039462             5.018656
| 38>   H                      7.278685             6.428361             3.430371
| 39>   H                      7.463774             5.931356             5.183014
| 40>   H                      6.305239             7.244127             4.579032
| 41>   C                    : 2.133361             7.137426             6.794470
| 42>   O                    : 3.422089             7.275639             7.377078
| 43>   H                    : 3.459965             6.780640             8.178787
| 44>   H                    : 2.011717             6.085576             6.397610
| 45>   H                    : 1.310506             7.357630             7.547516
| 46>   H                    : 2.139126             7.935520             6.013690
| 47> *
| 48>
| 49> #Run DFT-D3 single point of the particle with dimer basis set
| 50> $new_job
| 51> %base "19-40_DFT_B"
| 52> ! wB97X-D3 def2-TZVP TIGHTSCF CHELPG PMODEL
| 53>
| 54> %scf
| 55> MaxIter 1000
| 56> end
| 57>
| 58> * xyz 0 1
| 59>   C                    : 7.257563             6.735818             4.442851
| 60>   O                    : 8.386543             7.556154             4.548185
| 61>   H                    : 9.044606             7.039462             5.018656
| 62>   H                    : 7.278685             6.428361             3.430371
| 63>   H                    : 7.463774             5.931356             5.183014
| 64>   H                    : 6.305239             7.244127             4.579032
| 65>   C                      2.133361             7.137426             6.794470
| 66>   O                      3.422089             7.275639             7.377078
| 67>   H                      3.459965             6.780640             8.178787
| 68>   H                      2.011717             6.085576             6.397610
| 69>   H                      1.310506             7.357630             7.547516
| 70>   H                      2.139126             7.935520             6.013690
| 71> *
| 72>
| 73>                          ****END OF INPUT****
 Total Charge           Charge          ....    0
 Multiplicity           Mult            ....    1
 Number of Electrons    NEL             ....   36
Dispersion correction           -0.000664599
FINAL SINGLE POINT ENERGY      -231.460156104930
Dispersion correction           -0.000206596
FINAL SINGLE POINT ENERGY      -115.726365866014

CARTESIAN COORDINATES (ANGSTROEM)
---------------------------------
  C      7.257563    6.735818    4.442851
  O      8.386543    7.556154    4.548185
  H      9.044606    7.039462    5.018656
  H      7.278685    6.428361    3.430371
  H      7.463774    5.931356    5.183014
  H      6.305239    7.244127    4.579032
  C      2.133361    7.137426    6.794470
  O      3.422089    7.275639    7.377078
  H      3.459965    6.780640    8.178787
  H      2.011717    6.085576    6.397610
  H      1.310506    7.357630    7.547516
  H      2.139126    7.935520    6.013690

 Multiplicity           Mult            ....    1
 Number of Electrons    NEL             ....   18
 Basis Dimension        Dim             ....  172

ORBITAL ENERGIES
----------------

  NO   OCC          E(Eh)            E(eV)
   0   2.0000     -19.226302      -523.1743
   1   2.0000     -10.325117      -280.9607
   2   2.0000      -1.136418       -30.9235
   3   2.0000      -0.789071       -21.4717
   4   2.0000      -0.609139       -16.5755
   5   2.0000      -0.539530       -14.6814
   6   2.0000      -0.518330       -14.1045
   7   2.0000      -0.433149       -11.7866
   8   2.0000      -0.372551       -10.1376
   9   0.0000       0.095958         2.6112
  10   0.0000       0.114856         3.1254
  11   0.0000       0.156263         4.2521
  12   0.0000       0.173244         4.7142
  13   0.0000       0.191112         5.2004

MULLIKEN ATOMIC CHARGES
-----------------------
   0 C :    0.000424
   1 O :   -0.000005
   2 H :   -0.000001
   3 H :   -0.000068
   4 H :   -0.000006
   5 H :   -0.001482
   6 C :   -0.155956
   7 O :   -0.474583
   8 H :    0.308436
   9 H :    0.101777
  10 H :    0.099773
  11 H :    0.121692
Sum of atomic charges:    0.0000000

LOEWDIN ATOMIC CHARGES
----------------------
   0 C :   -0.000260
   1 O :   -0.000005
   2 H :   -0.000000
   3 H :   -0.000004
   4 H :   -0.000020
   5 H :   -0.000496
   6 C :   -0.387330
   7 O :   -0.079691
   8 H :    0.152988
   9 H :    0.100291
  10 H :    0.099765
  11 H :    0.114762

  Mayer bond orders larger than 0.1
B(  6-C ,  7-O ) :   0.9902 B(  6-C ,  9-H ) :   0.9702 B(  6-C , 10-H ) :   0.9711
B(  6-C , 11-H ) :   0.9751 B(  7-O ,  8-H ) :   0.9045

Dispersion correction           -0.000247030
FINAL SINGLE POINT ENERGY      -115.733505121616

DIPOLE MOMENT
-------------
                                X             Y             Z
Electronic contribution:      1.60718       0.21999       0.59616
Nuclear contribution   :     -2.08733      -0.57790      -0.30072
                        -----------------------------------------
Total Dipole Moment    :     -0.48015      -0.35791       0.29544
                        -----------------------------------------
Magnitude (a.u.)       :      0.66778
Magnitude (Debye)      :      1.69735

Rotational constants in cm-1:     4.002545     0.828592     0.800489
Rotational constants in MHz : 119993.290548 24840.562969 23998.044546

                             ****ORCA TERMINATED NORMALLY****
TOTAL RUN TIME: 0 days 0 hours 0 minutes 39 seconds 996 msec
