                         Program Version 4.1.2  - RELEASE  -
|  1> #Run DFT-D3 single point of the dimer
|  2> ! wB97X-D3 def2-TZVP TIGHTSCF CHELPG PMODEL PAL8
|  3>
|  4> %base "5-126_DFT_AB"
|  5>
|  6> %scf
|  7> MaxIter 1000
|  8> end
|  9>
| 10> * xyz 0 1
| 11>   C                      8.993395             7.768408             -1.929499
| 12>   O                      8.277690             6.973573             -2.867001
| 13>   H                      8.425852             6.002038             -2.621908
| 14>   H                      8.719667             7.623738             -0.890754
| 15>   H                      10.017294            7.538047             -2.089698
| 16>   H                      8.693752             8.789069             -2.138796
| 17>   C                      9.745298             5.083402             1.782673
| 18>   O                      10.423921            6.121988             1.166058
| 19>   H                      10.411888            5.829857             0.220622
| 20>   H                      8.651582             5.107699             1.579043
| 21>   H                      10.105484            4.151773             1.427554
| 22>   H                      9.845843             5.177307             2.919829
| 23> *
| 24>
| 25> #Run DFT-D3 single point of the molecule with dimer basis set
| 26> $new_job
| 27> %base "5-126_DFT_A"
| 28> ! wB97X-D3 def2-TZVP TIGHTSCF CHELPG PMODEL
| 29>
| 30> %scf
| 31> MaxIter 1000
| 32> end
| 33>
| 34> * xyz 0 1
| 35>   C                      8.993395             7.768408             -1.929499
| 36>   O                      8.277690             6.973573             -2.867001
| 37>   H                      8.425852             6.002038             -2.621908
| 38>   H                      8.719667             7.623738             -0.890754
| 39>   H                      10.017294            7.538047             -2.089698
| 40>   H                      8.693752             8.789069             -2.138796
| 41>   C                    : 9.745298             5.083402             1.782673
| 42>   O                    : 10.423921            6.121988             1.166058
| 43>   H                    : 10.411888            5.829857             0.220622
| 44>   H                    : 8.651582             5.107699             1.579043
| 45>   H                    : 10.105484            4.151773             1.427554
| 46>   H                    : 9.845843             5.177307             2.919829
| 47> *
| 48>
| 49> #Run DFT-D3 single point of the particle with dimer basis set
| 50> $new_job
| 51> %base "5-126_DFT_B"
| 52> ! wB97X-D3 def2-TZVP TIGHTSCF CHELPG PMODEL
| 53>
| 54> %scf
| 55> MaxIter 1000
| 56> end
| 57>
| 58> * xyz 0 1
| 59>   C                    : 8.993395             7.768408             -1.929499
| 60>   O                    : 8.277690             6.973573             -2.867001
| 61>   H                    : 8.425852             6.002038             -2.621908
| 62>   H                    : 8.719667             7.623738             -0.890754
| 63>   H                    : 10.017294            7.538047             -2.089698
| 64>   H                    : 8.693752             8.789069             -2.138796
| 65>   C                      9.745298             5.083402             1.782673
| 66>   O                      10.423921            6.121988             1.166058
| 67>   H                      10.411888            5.829857             0.220622
| 68>   H                      8.651582             5.107699             1.579043
| 69>   H                      10.105484            4.151773             1.427554
| 70>   H                      9.845843             5.177307             2.919829
| 71> *
| 72>
| 73>                          ****END OF INPUT****
 Total Charge           Charge          ....    0
 Multiplicity           Mult            ....    1
 Number of Electrons    NEL             ....   36
Dispersion correction           -0.001430736
FINAL SINGLE POINT ENERGY      -231.462620111206
Dispersion correction           -0.000229114
FINAL SINGLE POINT ENERGY      -115.730977595160

CARTESIAN COORDINATES (ANGSTROEM)
---------------------------------
  C      8.993395    7.768408   -1.929499
  O      8.277690    6.973573   -2.867001
  H      8.425852    6.002038   -2.621908
  H      8.719667    7.623738   -0.890754
  H     10.017294    7.538047   -2.089698
  H      8.693752    8.789069   -2.138796
  C      9.745298    5.083402    1.782673
  O     10.423921    6.121988    1.166058
  H     10.411888    5.829857    0.220622
  H      8.651582    5.107699    1.579043
  H     10.105484    4.151773    1.427554
  H      9.845843    5.177307    2.919829

 Multiplicity           Mult            ....    1
 Number of Electrons    NEL             ....   18
 Basis Dimension        Dim             ....  172

ORBITAL ENERGIES
----------------

  NO   OCC          E(Eh)            E(eV)
   0   2.0000     -19.236050      -523.4395
   1   2.0000     -10.314679      -280.6767
   2   2.0000      -1.146464       -31.1969
   3   2.0000      -0.785727       -21.3807
   4   2.0000      -0.616709       -16.7815
   5   2.0000      -0.545843       -14.8531
   6   2.0000      -0.524977       -14.2854
   7   2.0000      -0.438454       -11.9309
   8   2.0000      -0.371241       -10.1020
   9   0.0000       0.074846         2.0367
  10   0.0000       0.127834         3.4785
  11   0.0000       0.153056         4.1649
  12   0.0000       0.165241         4.4964
  13   0.0000       0.186534         5.0758

MULLIKEN ATOMIC CHARGES
-----------------------
   0 C :   -0.000757
   1 O :    0.000203
   2 H :   -0.000034
   3 H :   -0.006369
   4 H :    0.000609
   5 H :   -0.000634
   6 C :   -0.174031
   7 O :   -0.451399
   8 H :    0.318468
   9 H :    0.097097
  10 H :    0.101790
  11 H :    0.115054
Sum of atomic charges:    0.0000000

LOEWDIN ATOMIC CHARGES
----------------------
   0 C :   -0.004030
   1 O :   -0.000031
   2 H :   -0.000099
   3 H :   -0.003891
   4 H :   -0.000582
   5 H :   -0.000060
   6 C :   -0.419183
   7 O :   -0.062014
   8 H :    0.193515
   9 H :    0.094223
  10 H :    0.084815
  11 H :    0.117338

  Mayer bond orders larger than 0.1
B(  6-C ,  7-O ) :   1.0107 B(  6-C ,  9-H ) :   0.9694 B(  6-C , 10-H ) :   0.9860
B(  6-C , 11-H ) :   0.9720 B(  7-O ,  8-H ) :   0.8949

Dispersion correction           -0.000214835
FINAL SINGLE POINT ENERGY      -115.731408824172

DIPOLE MOMENT
-------------
                                X             Y             Z
Electronic contribution:      1.00390       1.42087      -0.69400
Nuclear contribution   :     -1.23902      -1.99328       0.34458
                        -----------------------------------------
Total Dipole Moment    :     -0.23512      -0.57241      -0.34942
                        -----------------------------------------
Magnitude (a.u.)       :      0.71065
Magnitude (Debye)      :      1.80634

Rotational constants in cm-1:     4.112497     0.869694     0.825360
Rotational constants in MHz : 123289.570101 26072.759871 24743.661126

                             ****ORCA TERMINATED NORMALLY****
TOTAL RUN TIME: 0 days 0 hours 1 minutes 2 seconds 345 msec
