                         Program Version 4.1.2  - RELEASE  -
|  1> #Run DFT-D3 single point of the dimer
|  2> ! wB97X-D3 def2-TZVP TIGHTSCF CHELPG PMODEL PAL8
|  3>
|  4> %base "10-104_DFT_AB"
|  5>
|  6> %scf
|  7> MaxIter 1000
|  8> end
|  9>
| 10> * xyz 0 1
| 11>   C                      5.369477             -6.342536            -0.441178
| 12>   O                      5.334754             -5.019816            0.209316
| 13>   H                      4.689948             -4.385982            -0.258636
| 14>   H                      5.435570             -7.157379            0.285672
| 15>   H                      4.490291             -6.557346            -0.960870
| 16>   H                      6.075459             -6.414477            -1.304671
| 17>   C                      6.188934             -4.857423            -4.247510
| 18>   O                      7.074866             -5.615235            -5.057782
| 19>   H                      7.897927             -5.141377            -5.178186
| 20>   H                      6.510234             -4.836641            -3.244249
| 21>   H                      6.135170             -3.765486            -4.495306
| 22>   H                      5.240519             -5.352060            -4.303331
| 23> *
| 24>
| 25> #Run DFT-D3 single point of the molecule with dimer basis set
| 26> $new_job
| 27> %base "10-104_DFT_A"
| 28> ! wB97X-D3 def2-TZVP TIGHTSCF CHELPG PMODEL
| 29>
| 30> %scf
| 31> MaxIter 1000
| 32> end
| 33>
| 34> * xyz 0 1
| 35>   C                      5.369477             -6.342536            -0.441178
| 36>   O                      5.334754             -5.019816            0.209316
| 37>   H                      4.689948             -4.385982            -0.258636
| 38>   H                      5.435570             -7.157379            0.285672
| 39>   H                      4.490291             -6.557346            -0.960870
| 40>   H                      6.075459             -6.414477            -1.304671
| 41>   C                    : 6.188934             -4.857423            -4.247510
| 42>   O                    : 7.074866             -5.615235            -5.057782
| 43>   H                    : 7.897927             -5.141377            -5.178186
| 44>   H                    : 6.510234             -4.836641            -3.244249
| 45>   H                    : 6.135170             -3.765486            -4.495306
| 46>   H                    : 5.240519             -5.352060            -4.303331
| 47> *
| 48>
| 49> #Run DFT-D3 single point of the particle with dimer basis set
| 50> $new_job
| 51> %base "10-104_DFT_B"
| 52> ! wB97X-D3 def2-TZVP TIGHTSCF CHELPG PMODEL
| 53>
| 54> %scf
| 55> MaxIter 1000
| 56> end
| 57>
| 58> * xyz 0 1
| 59>   C                    : 5.369477             -6.342536            -0.441178
| 60>   O                    : 5.334754             -5.019816            0.209316
| 61>   H                    : 4.689948             -4.385982            -0.258636
| 62>   H                    : 5.435570             -7.157379            0.285672
| 63>   H                    : 4.490291             -6.557346            -0.960870
| 64>   H                    : 6.075459             -6.414477            -1.304671
| 65>   C                      6.188934             -4.857423            -4.247510
| 66>   O                      7.074866             -5.615235            -5.057782
| 67>   H                      7.897927             -5.141377            -5.178186
| 68>   H                      6.510234             -4.836641            -3.244249
| 69>   H                      6.135170             -3.765486            -4.495306
| 70>   H                      5.240519             -5.352060            -4.303331
| 71> *
| 72>
| 73>                          ****END OF INPUT****
 Total Charge           Charge          ....    0
 Multiplicity           Mult            ....    1
 Number of Electrons    NEL             ....   36
Dispersion correction           -0.001432379
FINAL SINGLE POINT ENERGY      -231.457584061307
Dispersion correction           -0.000291350
FINAL SINGLE POINT ENERGY      -115.722732352167

CARTESIAN COORDINATES (ANGSTROEM)
---------------------------------
  C      5.369477   -6.342536   -0.441178
  O      5.334754   -5.019816    0.209316
  H      4.689948   -4.385982   -0.258636
  H      5.435570   -7.157379    0.285672
  H      4.490291   -6.557346   -0.960870
  H      6.075459   -6.414477   -1.304671
  C      6.188934   -4.857423   -4.247510
  O      7.074866   -5.615235   -5.057782
  H      7.897927   -5.141377   -5.178186
  H      6.510234   -4.836641   -3.244249
  H      6.135170   -3.765486   -4.495306
  H      5.240519   -5.352060   -4.303331

 Multiplicity           Mult            ....    1
 Number of Electrons    NEL             ....   18
 Basis Dimension        Dim             ....  172

ORBITAL ENERGIES
----------------

  NO   OCC          E(Eh)            E(eV)
   0   2.0000     -19.228689      -523.2392
   1   2.0000     -10.308757      -280.5155
   2   2.0000      -1.133109       -30.8335
   3   2.0000      -0.800095       -21.7717
   4   2.0000      -0.615803       -16.7569
   5   2.0000      -0.533801       -14.5255
   6   2.0000      -0.527811       -14.3625
   7   2.0000      -0.439280       -11.9534
   8   2.0000      -0.371336       -10.1046
   9   0.0000       0.085246         2.3197
  10   0.0000       0.117412         3.1949
  11   0.0000       0.153373         4.1735
  12   0.0000       0.165995         4.5170
  13   0.0000       0.189544         5.1578

MULLIKEN ATOMIC CHARGES
-----------------------
   0 C :   -0.004001
   1 O :    0.000197
   2 H :    0.000016
   3 H :    0.000044
   4 H :    0.000176
   5 H :    0.004507
   6 C :   -0.165244
   7 O :   -0.477020
   8 H :    0.311981
   9 H :    0.106002
  10 H :    0.100523
  11 H :    0.122819
Sum of atomic charges:   -0.0000000

LOEWDIN ATOMIC CHARGES
----------------------
   0 C :   -0.002401
   1 O :   -0.000065
   2 H :   -0.000151
   3 H :   -0.000021
   4 H :   -0.000149
   5 H :   -0.002458
   6 C :   -0.374195
   7 O :   -0.078244
   8 H :    0.164294
   9 H :    0.086585
  10 H :    0.099769
  11 H :    0.107034

  Mayer bond orders larger than 0.1
B(  6-C ,  7-O ) :   0.9939 B(  6-C ,  9-H ) :   0.9736 B(  6-C , 10-H ) :   0.9725
B(  6-C , 11-H ) :   0.9760 B(  7-O ,  8-H ) :   0.9004

Dispersion correction           -0.000244457
FINAL SINGLE POINT ENERGY      -115.733881379335

DIPOLE MOMENT
-------------
                                X             Y             Z
Electronic contribution:      0.98783      -1.08720      -1.05555
Nuclear contribution   :     -0.81078       1.68823       1.32290
                        -----------------------------------------
Total Dipole Moment    :      0.17705       0.60103       0.26735
                        -----------------------------------------
Magnitude (a.u.)       :      0.68122
Magnitude (Debye)      :      1.73153

Rotational constants in cm-1:     4.398410     0.831775     0.791569
Rotational constants in MHz : 131861.012119 24935.995517 23730.647011

                             ****ORCA TERMINATED NORMALLY****
TOTAL RUN TIME: 0 days 0 hours 1 minutes 0 seconds 521 msec
