                         Program Version 4.1.2  - RELEASE  -
|  1> #Run DFT-D3 single point of the dimer
|  2> ! wB97X-D3 def2-TZVP TIGHTSCF CHELPG PMODEL PAL8
|  3>
|  4> %base "12-183_DFT_AB"
|  5>
|  6> %scf
|  7> MaxIter 1000
|  8> end
|  9>
| 10> * xyz 0 1
| 11>   C                      1.004850             -7.973251            -4.730451
| 12>   O                      2.010199             -8.111811            -5.665440
| 13>   H                      2.740079             -8.411108            -5.097560
| 14>   H                      -0.051324            -8.105995            -5.161093
| 15>   H                      1.086488             -8.584173            -3.828320
| 16>   H                      1.030126             -6.951584            -4.336741
| 17>   C                      1.428738             -7.296741            -8.962109
| 18>   O                      0.994576             -6.405838            -7.914931
| 19>   H                      1.193973             -6.806109            -7.075848
| 20>   H                      2.320660             -7.032394            -9.595755
| 21>   H                      1.723187             -8.301169            -8.580874
| 22>   H                      0.628930             -7.428416            -9.766215
| 23> *
| 24>
| 25> #Run DFT-D3 single point of the molecule with dimer basis set
| 26> $new_job
| 27> %base "12-183_DFT_A"
| 28> ! wB97X-D3 def2-TZVP TIGHTSCF CHELPG PMODEL
| 29>
| 30> %scf
| 31> MaxIter 1000
| 32> end
| 33>
| 34> * xyz 0 1
| 35>   C                      1.004850             -7.973251            -4.730451
| 36>   O                      2.010199             -8.111811            -5.665440
| 37>   H                      2.740079             -8.411108            -5.097560
| 38>   H                      -0.051324            -8.105995            -5.161093
| 39>   H                      1.086488             -8.584173            -3.828320
| 40>   H                      1.030126             -6.951584            -4.336741
| 41>   C                    : 1.428738             -7.296741            -8.962109
| 42>   O                    : 0.994576             -6.405838            -7.914931
| 43>   H                    : 1.193973             -6.806109            -7.075848
| 44>   H                    : 2.320660             -7.032394            -9.595755
| 45>   H                    : 1.723187             -8.301169            -8.580874
| 46>   H                    : 0.628930             -7.428416            -9.766215
| 47> *
| 48>
| 49> #Run DFT-D3 single point of the particle with dimer basis set
| 50> $new_job
| 51> %base "12-183_DFT_B"
| 52> ! wB97X-D3 def2-TZVP TIGHTSCF CHELPG PMODEL
| 53>
| 54> %scf
| 55> MaxIter 1000
| 56> end
| 57>
| 58> * xyz 0 1
| 59>   C                    : 1.004850             -7.973251            -4.730451
| 60>   O                    : 2.010199             -8.111811            -5.665440
| 61>   H                    : 2.740079             -8.411108            -5.097560
| 62>   H                    : -0.051324            -8.105995            -5.161093
| 63>   H                    : 1.086488             -8.584173            -3.828320
| 64>   H                    : 1.030126             -6.951584            -4.336741
| 65>   C                      1.428738             -7.296741            -8.962109
| 66>   O                      0.994576             -6.405838            -7.914931
| 67>   H                      1.193973             -6.806109            -7.075848
| 68>   H                      2.320660             -7.032394            -9.595755
| 69>   H                      1.723187             -8.301169            -8.580874
| 70>   H                      0.628930             -7.428416            -9.766215
| 71> *
| 72>
| 73>                          ****END OF INPUT****
 Total Charge           Charge          ....    0
 Multiplicity           Mult            ....    1
 Number of Electrons    NEL             ....   36
Dispersion correction           -0.001890645
FINAL SINGLE POINT ENERGY      -231.464451730015
Dispersion correction           -0.000226704
FINAL SINGLE POINT ENERGY      -115.729505586486

CARTESIAN COORDINATES (ANGSTROEM)
---------------------------------
  C      1.004850   -7.973251   -4.730451
  O      2.010199   -8.111811   -5.665440
  H      2.740079   -8.411108   -5.097560
  H     -0.051324   -8.105995   -5.161093
  H      1.086488   -8.584173   -3.828320
  H      1.030126   -6.951584   -4.336741
  C      1.428738   -7.296741   -8.962109
  O      0.994576   -6.405838   -7.914931
  H      1.193973   -6.806109   -7.075848
  H      2.320660   -7.032394   -9.595755
  H      1.723187   -8.301169   -8.580874
  H      0.628930   -7.428416   -9.766215

 Multiplicity           Mult            ....    1
 Number of Electrons    NEL             ....   18
 Basis Dimension        Dim             ....  172

ORBITAL ENERGIES
----------------

  NO   OCC          E(Eh)            E(eV)
   0   2.0000     -19.237367      -523.4754
   1   2.0000     -10.328089      -281.0416
   2   2.0000      -1.133650       -30.8482
   3   2.0000      -0.793564       -21.5940
   4   2.0000      -0.613685       -16.6992
   5   2.0000      -0.529929       -14.4201
   6   2.0000      -0.519272       -14.1301
   7   2.0000      -0.437061       -11.8930
   8   2.0000      -0.375515       -10.2183
   9   0.0000       0.067728         1.8430
  10   0.0000       0.131327         3.5736
  11   0.0000       0.147470         4.0129
  12   0.0000       0.160816         4.3760
  13   0.0000       0.185889         5.0583

MULLIKEN ATOMIC CHARGES
-----------------------
   0 C :   -0.001840
   1 O :   -0.004139
   2 H :   -0.000255
   3 H :   -0.001466
   4 H :   -0.000086
   5 H :    0.000025
   6 C :   -0.180459
   7 O :   -0.462035
   8 H :    0.317608
   9 H :    0.109118
  10 H :    0.106473
  11 H :    0.117055
Sum of atomic charges:   -0.0000000

LOEWDIN ATOMIC CHARGES
----------------------
   0 C :   -0.007570
   1 O :   -0.012671
   2 H :   -0.000467
   3 H :   -0.001378
   4 H :   -0.000115
   5 H :   -0.000469
   6 C :   -0.383698
   7 O :   -0.075007
   8 H :    0.168886
   9 H :    0.102342
  10 H :    0.099455
  11 H :    0.110693

  Mayer bond orders larger than 0.1
B(  6-C ,  7-O ) :   0.9991 B(  6-C ,  9-H ) :   0.9676 B(  6-C , 10-H ) :   0.9773
B(  6-C , 11-H ) :   0.9753 B(  7-O ,  8-H ) :   0.9099

Dispersion correction           -0.000296486
FINAL SINGLE POINT ENERGY      -115.728760335303

DIPOLE MOMENT
-------------
                                X             Y             Z
Electronic contribution:     -0.62447       1.34801       1.40191
Nuclear contribution   :      0.93473      -1.97515      -1.27432
                        -----------------------------------------
Total Dipole Moment    :      0.31026      -0.62714       0.12759
                        -----------------------------------------
Magnitude (a.u.)       :      0.71123
Magnitude (Debye)      :      1.80779

Rotational constants in cm-1:     4.336208     0.784991     0.752325
Rotational constants in MHz : 129996.244428 23533.452451 22554.128791

                             ****ORCA TERMINATED NORMALLY****
TOTAL RUN TIME: 0 days 0 hours 1 minutes 16 seconds 11 msec
