                         Program Version 4.1.2  - RELEASE  -
|  1> #Run DFT-D3 single point of the dimer
|  2> ! wB97X-D3 def2-TZVP TIGHTSCF CHELPG PMODEL PAL8
|  3>
|  4> %base "11-117_DFT_AB"
|  5>
|  6> %scf
|  7> MaxIter 1000
|  8> end
|  9>
| 10> * xyz 0 1
| 11>   C                      9.746196             0.127752             0.272165
| 12>   O                      9.036215             1.286193             0.694994
| 13>   H                      9.106927             1.857356             -0.091271
| 14>   H                      9.334585             -0.309086            -0.601121
| 15>   H                      10.778810            0.400009             -0.013756
| 16>   H                      9.754853             -0.603531            1.099498
| 17>   C                      5.383772             1.473984             -0.370313
| 18>   O                      5.049317             2.549317             -1.247021
| 19>   H                      4.397362             2.140532             -1.766536
| 20>   H                      4.888294             1.611386             0.614607
| 21>   H                      5.168040             0.555937             -0.835142
| 22>   H                      6.514453             1.453211             -0.175672
| 23> *
| 24>
| 25> #Run DFT-D3 single point of the molecule with dimer basis set
| 26> $new_job
| 27> %base "11-117_DFT_A"
| 28> ! wB97X-D3 def2-TZVP TIGHTSCF CHELPG PMODEL
| 29>
| 30> %scf
| 31> MaxIter 1000
| 32> end
| 33>
| 34> * xyz 0 1
| 35>   C                      9.746196             0.127752             0.272165
| 36>   O                      9.036215             1.286193             0.694994
| 37>   H                      9.106927             1.857356             -0.091271
| 38>   H                      9.334585             -0.309086            -0.601121
| 39>   H                      10.778810            0.400009             -0.013756
| 40>   H                      9.754853             -0.603531            1.099498
| 41>   C                    : 5.383772             1.473984             -0.370313
| 42>   O                    : 5.049317             2.549317             -1.247021
| 43>   H                    : 4.397362             2.140532             -1.766536
| 44>   H                    : 4.888294             1.611386             0.614607
| 45>   H                    : 5.168040             0.555937             -0.835142
| 46>   H                    : 6.514453             1.453211             -0.175672
| 47> *
| 48>
| 49> #Run DFT-D3 single point of the particle with dimer basis set
| 50> $new_job
| 51> %base "11-117_DFT_B"
| 52> ! wB97X-D3 def2-TZVP TIGHTSCF CHELPG PMODEL
| 53>
| 54> %scf
| 55> MaxIter 1000
| 56> end
| 57>
| 58> * xyz 0 1
| 59>   C                    : 9.746196             0.127752             0.272165
| 60>   O                    : 9.036215             1.286193             0.694994
| 61>   H                    : 9.106927             1.857356             -0.091271
| 62>   H                    : 9.334585             -0.309086            -0.601121
| 63>   H                    : 10.778810            0.400009             -0.013756
| 64>   H                    : 9.754853             -0.603531            1.099498
| 65>   C                      5.383772             1.473984             -0.370313
| 66>   O                      5.049317             2.549317             -1.247021
| 67>   H                      4.397362             2.140532             -1.766536
| 68>   H                      4.888294             1.611386             0.614607
| 69>   H                      5.168040             0.555937             -0.835142
| 70>   H                      6.514453             1.453211             -0.175672
| 71> *
| 72>
| 73>                          ****END OF INPUT****
 Total Charge           Charge          ....    0
 Multiplicity           Mult            ....    1
 Number of Electrons    NEL             ....   36
Dispersion correction           -0.001281032
FINAL SINGLE POINT ENERGY      -231.466026449423
Dispersion correction           -0.000218739
FINAL SINGLE POINT ENERGY      -115.734702841759

CARTESIAN COORDINATES (ANGSTROEM)
---------------------------------
  C      9.746196    0.127752    0.272165
  O      9.036215    1.286193    0.694994
  H      9.106927    1.857356   -0.091271
  H      9.334585   -0.309086   -0.601121
  H     10.778810    0.400009   -0.013756
  H      9.754853   -0.603531    1.099498
  C      5.383772    1.473984   -0.370313
  O      5.049317    2.549317   -1.247021
  H      4.397362    2.140532   -1.766536
  H      4.888294    1.611386    0.614607
  H      5.168040    0.555937   -0.835142
  H      6.514453    1.453211   -0.175672

 Multiplicity           Mult            ....    1
 Number of Electrons    NEL             ....   18
 Basis Dimension        Dim             ....  172

ORBITAL ENERGIES
----------------

  NO   OCC          E(Eh)            E(eV)
   0   2.0000     -19.228575      -523.2361
   1   2.0000     -10.317344      -280.7492
   2   2.0000      -1.144689       -31.1486
   3   2.0000      -0.792536       -21.5660
   4   2.0000      -0.614351       -16.7173
   5   2.0000      -0.543212       -14.7816
   6   2.0000      -0.521134       -14.1808
   7   2.0000      -0.442480       -12.0405
   8   2.0000      -0.375181       -10.2092
   9   0.0000       0.084745         2.3060
  10   0.0000       0.118065         3.2127
  11   0.0000       0.154463         4.2032
  12   0.0000       0.167257         4.5513
  13   0.0000       0.190827         5.1927

MULLIKEN ATOMIC CHARGES
-----------------------
   0 C :   -0.000849
   1 O :    0.000897
   2 H :    0.000633
   3 H :   -0.000032
   4 H :   -0.000016
   5 H :   -0.000057
   6 C :   -0.175763
   7 O :   -0.453707
   8 H :    0.306861
   9 H :    0.105715
  10 H :    0.109543
  11 H :    0.106774
Sum of atomic charges:   -0.0000000

LOEWDIN ATOMIC CHARGES
----------------------
   0 C :   -0.001375
   1 O :   -0.003617
   2 H :   -0.001979
   3 H :   -0.000248
   4 H :   -0.000017
   5 H :   -0.000026
   6 C :   -0.377936
   7 O :   -0.070400
   8 H :    0.149934
   9 H :    0.101376
  10 H :    0.087098
  11 H :    0.117191

  Mayer bond orders larger than 0.1
B(  6-C ,  7-O ) :   1.0148 B(  6-C ,  9-H ) :   0.9728 B(  6-C , 10-H ) :   0.9869
B(  6-C , 11-H ) :   0.9743 B(  7-O ,  8-H ) :   0.9126

Dispersion correction           -0.000233139
FINAL SINGLE POINT ENERGY      -115.729666518094

DIPOLE MOMENT
-------------
                                X             Y             Z
Electronic contribution:     -0.44390       1.42026      -1.08739
Nuclear contribution   :      0.15952      -2.11752       1.07767
                        -----------------------------------------
Total Dipole Moment    :     -0.28438      -0.69726      -0.00971
                        -----------------------------------------
Magnitude (a.u.)       :      0.75308
Magnitude (Debye)      :      1.91418

Rotational constants in cm-1:     4.204949     0.825840     0.801769
Rotational constants in MHz : 126061.195977 24758.069511 24036.439188

                             ****ORCA TERMINATED NORMALLY****
TOTAL RUN TIME: 0 days 0 hours 1 minutes 1 seconds 200 msec
