                         Program Version 4.1.2  - RELEASE  -
|  1> #Run DFT geometry optimization
|  2> ! wB97X-D3 def2-TZVP TIGHTSCF Grid5 FinalGrid6 Opt CHELPG PAL4
|  3>
|  4> %base "8_geo_opt"
|  5> %geom MaxIter 500
|  6> end
|  7>
|  8> %geom
|  9>   Constraints
| 10>     { A 2 1 0 C }
| 11>   end
| 12> end
| 13>
| 14>
| 15> * xyz 0 1
| 16>   C                    3.011622             -1.177891            0.596365
| 17>   O                    4.394673             -1.128050            0.874308
| 18>   H                    4.769936             -0.378458            0.411567
| 19>   H                    2.806434             -1.318965            -0.469350
| 20>   H                    2.611632             -2.040265            1.135898
| 21>   H                    2.484757             -0.284491            0.945659
| 22> *
| 23>
| 24>                          ****END OF INPUT****
 Total Charge           Charge          ....    0
 Multiplicity           Mult            ....    1
 Number of Electrons    NEL             ....   18
Dispersion correction           -0.000238826
FINAL SINGLE POINT ENERGY      -115.738034260588
Dispersion correction            ... done
Dispersion correction           -0.000238808
FINAL SINGLE POINT ENERGY      -115.738047882779
Dispersion correction            ... done
Dispersion correction           -0.000238648
FINAL SINGLE POINT ENERGY      -115.738049037750
Dispersion correction            ... done
                    ***********************HURRAY********************

CARTESIAN COORDINATES (ANGSTROEM)
---------------------------------
  C      3.011672   -1.180484    0.598266
  O      4.395286   -1.128017    0.874395
  H      4.768590   -0.377853    0.410853
  H      2.807246   -1.318414   -0.469693
  H      2.610705   -2.039534    1.135163
  H      2.485555   -0.283819    0.945462

 Multiplicity           Mult            ....    1
 Number of Electrons    NEL             ....   18
 Basis Dimension        Dim             ....   86

ORBITAL ENERGIES
----------------

  NO   OCC          E(Eh)            E(eV)
   0   2.0000     -19.228218      -523.2264
   1   2.0000     -10.315123      -280.6888
   2   2.0000      -1.136916       -30.9371
   3   2.0000      -0.795217       -21.6390
   4   2.0000      -0.611484       -16.6393
   5   2.0000      -0.541831       -14.7440
   6   2.0000      -0.526245       -14.3199
   7   2.0000      -0.434147       -11.8137
   8   2.0000      -0.373667       -10.1680
   9   0.0000       0.116573         3.1721
  10   0.0000       0.156703         4.2641
  11   0.0000       0.202561         5.5120
  12   0.0000       0.205051         5.5797
  13   0.0000       0.226283         6.1575

MULLIKEN ATOMIC CHARGES
-----------------------
   0 C :   -0.151567
   1 O :   -0.477039
   2 H :    0.312936
   3 H :    0.098733
   4 H :    0.118200
   5 H :    0.098737
Sum of atomic charges:   -0.0000000

LOEWDIN ATOMIC CHARGES
----------------------
   0 C :   -0.385174
   1 O :   -0.076244
   2 H :    0.165954
   3 H :    0.093420
   4 H :    0.108626
   5 H :    0.093418

  Mayer bond orders larger than 0.1
B(  0-C ,  1-O ) :   0.9988 B(  0-C ,  3-H ) :   0.9755 B(  0-C ,  4-H ) :   0.9750
B(  0-C ,  5-H ) :   0.9755 B(  1-O ,  2-H ) :   0.9004

Dispersion correction           -0.000238577
FINAL SINGLE POINT ENERGY      -115.738049151398

DIPOLE MOMENT
-------------
                                X             Y             Z
Electronic contribution:      1.75733      -0.02996       0.42135
Nuclear contribution   :     -2.06972       0.47774      -0.81968
                        -----------------------------------------
Total Dipole Moment    :     -0.31239       0.44777      -0.39833
                        -----------------------------------------
Magnitude (a.u.)       :      0.67584
Magnitude (Debye)      :      1.71784

Rotational constants in cm-1:     4.289650     0.833860     0.804880
Rotational constants in MHz : 128600.459125 24998.479037 24129.686606

                             ****ORCA TERMINATED NORMALLY****
TOTAL RUN TIME: 0 days 0 hours 0 minutes 50 seconds 187 msec
