                         Program Version 4.1.2  - RELEASE  -
|  1> #Run DFT-D3 single point of the dimer
|  2> ! wB97X-D3 def2-TZVP TIGHTSCF CHELPG PMODEL PAL8
|  3>
|  4> %base "14-38_DFT_AB"
|  5>
|  6> %scf
|  7> MaxIter 1000
|  8> end
|  9>
| 10> * xyz 0 1
| 11>   C                      9.292696             -8.407143            -10.959282
| 12>   O                      9.750118             -9.719901            -11.130576
| 13>   H                      10.356786            -9.725511            -11.852830
| 14>   H                      8.471294             -8.255547            -11.710006
| 15>   H                      8.921736             -8.207136            -9.946187
| 16>   H                      10.158140            -7.646811            -11.149071
| 17>   C                      6.017581             -6.453415            -8.567214
| 18>   O                      5.229039             -5.915533            -9.588859
| 19>   H                      5.694986             -5.160984            -9.970381
| 20>   H                      5.702481             -7.454117            -8.465420
| 21>   H                      7.041725             -6.565009            -8.829998
| 22>   H                      6.066577             -5.873545            -7.571626
| 23> *
| 24>
| 25> #Run DFT-D3 single point of the molecule with dimer basis set
| 26> $new_job
| 27> %base "14-38_DFT_A"
| 28> ! wB97X-D3 def2-TZVP TIGHTSCF CHELPG PMODEL
| 29>
| 30> %scf
| 31> MaxIter 1000
| 32> end
| 33>
| 34> * xyz 0 1
| 35>   C                      9.292696             -8.407143            -10.959282
| 36>   O                      9.750118             -9.719901            -11.130576
| 37>   H                      10.356786            -9.725511            -11.852830
| 38>   H                      8.471294             -8.255547            -11.710006
| 39>   H                      8.921736             -8.207136            -9.946187
| 40>   H                      10.158140            -7.646811            -11.149071
| 41>   C                    : 6.017581             -6.453415            -8.567214
| 42>   O                    : 5.229039             -5.915533            -9.588859
| 43>   H                    : 5.694986             -5.160984            -9.970381
| 44>   H                    : 5.702481             -7.454117            -8.465420
| 45>   H                    : 7.041725             -6.565009            -8.829998
| 46>   H                    : 6.066577             -5.873545            -7.571626
| 47> *
| 48>
| 49> #Run DFT-D3 single point of the particle with dimer basis set
| 50> $new_job
| 51> %base "14-38_DFT_B"
| 52> ! wB97X-D3 def2-TZVP TIGHTSCF CHELPG PMODEL
| 53>
| 54> %scf
| 55> MaxIter 1000
| 56> end
| 57>
| 58> * xyz 0 1
| 59>   C                    : 9.292696             -8.407143            -10.959282
| 60>   O                    : 9.750118             -9.719901            -11.130576
| 61>   H                    : 10.356786            -9.725511            -11.852830
| 62>   H                    : 8.471294             -8.255547            -11.710006
| 63>   H                    : 8.921736             -8.207136            -9.946187
| 64>   H                    : 10.158140            -7.646811            -11.149071
| 65>   C                      6.017581             -6.453415            -8.567214
| 66>   O                      5.229039             -5.915533            -9.588859
| 67>   H                      5.694986             -5.160984            -9.970381
| 68>   H                      5.702481             -7.454117            -8.465420
| 69>   H                      7.041725             -6.565009            -8.829998
| 70>   H                      6.066577             -5.873545            -7.571626
| 71> *
| 72>
| 73>                          ****END OF INPUT****
 Total Charge           Charge          ....    0
 Multiplicity           Mult            ....    1
 Number of Electrons    NEL             ....   36
Dispersion correction           -0.001086076
FINAL SINGLE POINT ENERGY      -231.462672089001
Dispersion correction           -0.000238915
FINAL SINGLE POINT ENERGY      -115.731630030493

CARTESIAN COORDINATES (ANGSTROEM)
---------------------------------
  C      9.292696   -8.407143  -10.959282
  O      9.750118   -9.719901  -11.130576
  H     10.356786   -9.725511  -11.852830
  H      8.471294   -8.255547  -11.710006
  H      8.921736   -8.207136   -9.946187
  H     10.158140   -7.646811  -11.149071
  C      6.017581   -6.453415   -8.567214
  O      5.229039   -5.915533   -9.588859
  H      5.694986   -5.160984   -9.970381
  H      5.702481   -7.454117   -8.465420
  H      7.041725   -6.565009   -8.829998
  H      6.066577   -5.873545   -7.571626

 Multiplicity           Mult            ....    1
 Number of Electrons    NEL             ....   18
 Basis Dimension        Dim             ....  172

ORBITAL ENERGIES
----------------

  NO   OCC          E(Eh)            E(eV)
   0   2.0000     -19.233421      -523.3680
   1   2.0000     -10.309434      -280.5339
   2   2.0000      -1.141345       -31.0576
   3   2.0000      -0.798328       -21.7236
   4   2.0000      -0.619130       -16.8474
   5   2.0000      -0.540735       -14.7141
   6   2.0000      -0.523146       -14.2355
   7   2.0000      -0.436085       -11.8665
   8   2.0000      -0.374191       -10.1822
   9   0.0000       0.083177         2.2633
  10   0.0000       0.117256         3.1907
  11   0.0000       0.146970         3.9992
  12   0.0000       0.172993         4.7074
  13   0.0000       0.193034         5.2527

MULLIKEN ATOMIC CHARGES
-----------------------
   0 C :    0.000889
   1 O :    0.000026
   2 H :    0.000006
   3 H :   -0.000053
   4 H :   -0.001073
   5 H :   -0.000042
   6 C :   -0.163552
   7 O :   -0.468878
   8 H :    0.315235
   9 H :    0.121127
  10 H :    0.105354
  11 H :    0.090962
Sum of atomic charges:    0.0000000

LOEWDIN ATOMIC CHARGES
----------------------
   0 C :   -0.000908
   1 O :   -0.000007
   2 H :   -0.000001
   3 H :   -0.000076
   4 H :   -0.002130
   5 H :   -0.000013
   6 C :   -0.401016
   7 O :   -0.062428
   8 H :    0.172937
   9 H :    0.102243
  10 H :    0.088517
  11 H :    0.102882

  Mayer bond orders larger than 0.1
B(  6-C ,  7-O ) :   1.0070 B(  6-C ,  9-H ) :   0.9789 B(  6-C , 10-H ) :   0.9766
B(  6-C , 11-H ) :   0.9633 B(  7-O ,  8-H ) :   0.8984

Dispersion correction           -0.000252050
FINAL SINGLE POINT ENERGY      -115.730671338886

DIPOLE MOMENT
-------------
                                X             Y             Z
Electronic contribution:     -1.20061       0.62292      -1.33643
Nuclear contribution   :      1.82863      -0.38095       1.44074
                        -----------------------------------------
Total Dipole Moment    :      0.62802       0.24197       0.10431
                        -----------------------------------------
Magnitude (a.u.)       :      0.68106
Magnitude (Debye)      :      1.73111

Rotational constants in cm-1:     4.397374     0.838767     0.811900
Rotational constants in MHz : 131829.948873 25145.605470 24340.145944

                             ****ORCA TERMINATED NORMALLY****
TOTAL RUN TIME: 0 days 0 hours 1 minutes 7 seconds 571 msec
