                         Program Version 4.1.2  - RELEASE  -
|  1> #Run DFT-D3 single point of the dimer
|  2> ! wB97X-D3 def2-TZVP TIGHTSCF CHELPG PMODEL PAL8
|  3>
|  4> %base "1-51_DFT_AB"
|  5>
|  6> %scf
|  7> MaxIter 1000
|  8> end
|  9>
| 10> * xyz 0 1
| 11>   C                      -5.018804            -11.394211           4.335101
| 12>   O                      -4.125954            -10.858784           5.383765
| 13>   H                      -3.702437            -10.083851           5.035189
| 14>   H                      -5.527582            -10.505104           3.828122
| 15>   H                      -4.441818            -11.900742           3.519998
| 16>   H                      -5.719270            -12.198359           4.600835
| 17>   C                      -0.665410            -8.380681            4.393711
| 18>   O                      0.289953             -8.164521            5.389637
| 19>   H                      0.352855             -8.938722            5.877031
| 20>   H                      -0.398421            -7.807642            3.558172
| 21>   H                      -0.649855            -9.464361            4.143995
| 22>   H                      -1.682944            -8.024090            4.647246
| 23> *
| 24>
| 25> #Run DFT-D3 single point of the molecule with dimer basis set
| 26> $new_job
| 27> %base "1-51_DFT_A"
| 28> ! wB97X-D3 def2-TZVP TIGHTSCF CHELPG PMODEL
| 29>
| 30> %scf
| 31> MaxIter 1000
| 32> end
| 33>
| 34> * xyz 0 1
| 35>   C                      -5.018804            -11.394211           4.335101
| 36>   O                      -4.125954            -10.858784           5.383765
| 37>   H                      -3.702437            -10.083851           5.035189
| 38>   H                      -5.527582            -10.505104           3.828122
| 39>   H                      -4.441818            -11.900742           3.519998
| 40>   H                      -5.719270            -12.198359           4.600835
| 41>   C                    : -0.665410            -8.380681            4.393711
| 42>   O                    : 0.289953             -8.164521            5.389637
| 43>   H                    : 0.352855             -8.938722            5.877031
| 44>   H                    : -0.398421            -7.807642            3.558172
| 45>   H                    : -0.649855            -9.464361            4.143995
| 46>   H                    : -1.682944            -8.024090            4.647246
| 47> *
| 48>
| 49> #Run DFT-D3 single point of the particle with dimer basis set
| 50> $new_job
| 51> %base "1-51_DFT_B"
| 52> ! wB97X-D3 def2-TZVP TIGHTSCF CHELPG PMODEL
| 53>
| 54> %scf
| 55> MaxIter 1000
| 56> end
| 57>
| 58> * xyz 0 1
| 59>   C                    : -5.018804            -11.394211           4.335101
| 60>   O                    : -4.125954            -10.858784           5.383765
| 61>   H                    : -3.702437            -10.083851           5.035189
| 62>   H                    : -5.527582            -10.505104           3.828122
| 63>   H                    : -4.441818            -11.900742           3.519998
| 64>   H                    : -5.719270            -12.198359           4.600835
| 65>   C                      -0.665410            -8.380681            4.393711
| 66>   O                      0.289953             -8.164521            5.389637
| 67>   H                      0.352855             -8.938722            5.877031
| 68>   H                      -0.398421            -7.807642            3.558172
| 69>   H                      -0.649855            -9.464361            4.143995
| 70>   H                      -1.682944            -8.024090            4.647246
| 71> *
| 72>
| 73>                          ****END OF INPUT****
 Total Charge           Charge          ....    0
 Multiplicity           Mult            ....    1
 Number of Electrons    NEL             ....   36
Dispersion correction           -0.001046724
FINAL SINGLE POINT ENERGY      -231.458437735216
Dispersion correction           -0.000282966
FINAL SINGLE POINT ENERGY      -115.726313877033

CARTESIAN COORDINATES (ANGSTROEM)
---------------------------------
  C     -5.018804  -11.394211    4.335101
  O     -4.125954  -10.858784    5.383765
  H     -3.702437  -10.083851    5.035189
  H     -5.527582  -10.505104    3.828122
  H     -4.441818  -11.900742    3.519998
  H     -5.719270  -12.198359    4.600835
  C     -0.665410   -8.380681    4.393711
  O      0.289953   -8.164521    5.389637
  H      0.352855   -8.938722    5.877031
  H     -0.398421   -7.807642    3.558172
  H     -0.649855   -9.464361    4.143995
  H     -1.682944   -8.024090    4.647246

 Multiplicity           Mult            ....    1
 Number of Electrons    NEL             ....   18
 Basis Dimension        Dim             ....  172

ORBITAL ENERGIES
----------------

  NO   OCC          E(Eh)            E(eV)
   0   2.0000     -19.224777      -523.1328
   1   2.0000     -10.310186      -280.5544
   2   2.0000      -1.150790       -31.3146
   3   2.0000      -0.800114       -21.7722
   4   2.0000      -0.616374       -16.7724
   5   2.0000      -0.545322       -14.8390
   6   2.0000      -0.535969       -14.5845
   7   2.0000      -0.434476       -11.8227
   8   2.0000      -0.372968       -10.1490
   9   0.0000       0.082523         2.2456
  10   0.0000       0.116784         3.1778
  11   0.0000       0.149599         4.0708
  12   0.0000       0.180233         4.9044
  13   0.0000       0.189044         5.1441

MULLIKEN ATOMIC CHARGES
-----------------------
   0 C :    0.000176
   1 O :    0.000190
   2 H :   -0.001631
   3 H :   -0.000018
   4 H :   -0.000034
   5 H :   -0.000001
   6 C :   -0.155007
   7 O :   -0.456809
   8 H :    0.306173
   9 H :    0.116947
  10 H :    0.096314
  11 H :    0.093700
Sum of atomic charges:    0.0000000

LOEWDIN ATOMIC CHARGES
----------------------
   0 C :   -0.000038
   1 O :   -0.000065
   2 H :   -0.001828
   3 H :   -0.000003
   4 H :   -0.000009
   5 H :   -0.000001
   6 C :   -0.388917
   7 O :   -0.043397
   8 H :    0.141278
   9 H :    0.095086
  10 H :    0.101529
  11 H :    0.096364

  Mayer bond orders larger than 0.1
B(  6-C ,  7-O ) :   1.0129 B(  6-C ,  9-H ) :   0.9772 B(  6-C , 10-H ) :   0.9909
B(  6-C , 11-H ) :   0.9702 B(  7-O ,  8-H ) :   0.9128

Dispersion correction           -0.000227501
FINAL SINGLE POINT ENERGY      -115.731415389969

DIPOLE MOMENT
-------------
                                X             Y             Z
Electronic contribution:      1.24746       0.40705       1.23806
Nuclear contribution   :     -1.55087      -0.98710      -1.32468
                        -----------------------------------------
Total Dipole Moment    :     -0.30341      -0.58005      -0.08662
                        -----------------------------------------
Magnitude (a.u.)       :      0.66032
Magnitude (Debye)      :      1.67841

Rotational constants in cm-1:     4.368509     0.857224     0.823694
Rotational constants in MHz : 130964.595117 25698.917924 24693.727418

                             ****ORCA TERMINATED NORMALLY****
TOTAL RUN TIME: 0 days 0 hours 5 minutes 40 seconds 902 msec
