                         Program Version 4.1.2  - RELEASE  -
|  1> #Run DFT-D3 single point of the dimer
|  2> ! wB97X-D3 def2-TZVP TIGHTSCF CHELPG PMODEL PAL8
|  3>
|  4> %base "16-22_DFT_AB"
|  5>
|  6> %scf
|  7> MaxIter 1000
|  8> end
|  9>
| 10> * xyz 0 1
| 11>   C                      4.271779             4.712240             5.343485
| 12>   O                      4.861457             5.690898             4.454410
| 13>   H                      4.587557             5.662843             3.570705
| 14>   H                      4.713760             3.664029             5.121006
| 15>   H                      4.705710             4.923602             6.335144
| 16>   H                      3.190266             4.808637             5.377588
| 17>   C                      4.174423             2.521291             2.269891
| 18>   O                      3.727706             3.617166             1.427619
| 19>   H                      3.640388             3.247452             0.542139
| 20>   H                      3.348106             1.928534             2.618243
| 21>   H                      4.747251             1.855609             1.722985
| 22>   H                      4.757139             2.821299             3.072047
| 23> *
| 24>
| 25> #Run DFT-D3 single point of the molecule with dimer basis set
| 26> $new_job
| 27> %base "16-22_DFT_A"
| 28> ! wB97X-D3 def2-TZVP TIGHTSCF CHELPG PMODEL
| 29>
| 30> %scf
| 31> MaxIter 1000
| 32> end
| 33>
| 34> * xyz 0 1
| 35>   C                      4.271779             4.712240             5.343485
| 36>   O                      4.861457             5.690898             4.454410
| 37>   H                      4.587557             5.662843             3.570705
| 38>   H                      4.713760             3.664029             5.121006
| 39>   H                      4.705710             4.923602             6.335144
| 40>   H                      3.190266             4.808637             5.377588
| 41>   C                    : 4.174423             2.521291             2.269891
| 42>   O                    : 3.727706             3.617166             1.427619
| 43>   H                    : 3.640388             3.247452             0.542139
| 44>   H                    : 3.348106             1.928534             2.618243
| 45>   H                    : 4.747251             1.855609             1.722985
| 46>   H                    : 4.757139             2.821299             3.072047
| 47> *
| 48>
| 49> #Run DFT-D3 single point of the particle with dimer basis set
| 50> $new_job
| 51> %base "16-22_DFT_B"
| 52> ! wB97X-D3 def2-TZVP TIGHTSCF CHELPG PMODEL
| 53>
| 54> %scf
| 55> MaxIter 1000
| 56> end
| 57>
| 58> * xyz 0 1
| 59>   C                    : 4.271779             4.712240             5.343485
| 60>   O                    : 4.861457             5.690898             4.454410
| 61>   H                    : 4.587557             5.662843             3.570705
| 62>   H                    : 4.713760             3.664029             5.121006
| 63>   H                    : 4.705710             4.923602             6.335144
| 64>   H                    : 3.190266             4.808637             5.377588
| 65>   C                      4.174423             2.521291             2.269891
| 66>   O                      3.727706             3.617166             1.427619
| 67>   H                      3.640388             3.247452             0.542139
| 68>   H                      3.348106             1.928534             2.618243
| 69>   H                      4.747251             1.855609             1.722985
| 70>   H                      4.757139             2.821299             3.072047
| 71> *
| 72>
| 73>                          ****END OF INPUT****
 Total Charge           Charge          ....    0
 Multiplicity           Mult            ....    1
 Number of Electrons    NEL             ....   36
Dispersion correction           -0.001894063
FINAL SINGLE POINT ENERGY      -231.461766632229
Dispersion correction           -0.000280228
FINAL SINGLE POINT ENERGY      -115.729388571945

CARTESIAN COORDINATES (ANGSTROEM)
---------------------------------
  C      4.271779    4.712240    5.343485
  O      4.861457    5.690898    4.454410
  H      4.587557    5.662843    3.570705
  H      4.713760    3.664029    5.121006
  H      4.705710    4.923602    6.335144
  H      3.190266    4.808637    5.377588
  C      4.174423    2.521291    2.269891
  O      3.727706    3.617166    1.427619
  H      3.640388    3.247452    0.542139
  H      3.348106    1.928534    2.618243
  H      4.747251    1.855609    1.722985
  H      4.757139    2.821299    3.072047

 Multiplicity           Mult            ....    1
 Number of Electrons    NEL             ....   18
 Basis Dimension        Dim             ....  172

ORBITAL ENERGIES
----------------

  NO   OCC          E(Eh)            E(eV)
   0   2.0000     -19.229921      -523.2728
   1   2.0000     -10.301525      -280.3187
   2   2.0000      -1.124556       -30.6007
   3   2.0000      -0.808838       -22.0096
   4   2.0000      -0.607229       -16.5235
   5   2.0000      -0.542366       -14.7585
   6   2.0000      -0.529391       -14.4055
   7   2.0000      -0.441289       -12.0081
   8   2.0000      -0.375347       -10.2137
   9   0.0000       0.093691         2.5495
  10   0.0000       0.119386         3.2486
  11   0.0000       0.155275         4.2252
  12   0.0000       0.178790         4.8651
  13   0.0000       0.194662         5.2970

MULLIKEN ATOMIC CHARGES
-----------------------
   0 C :    0.001864
   1 O :    0.000055
   2 H :   -0.002434
   3 H :   -0.000142
   4 H :    0.000136
   5 H :   -0.000400
   6 C :   -0.181587
   7 O :   -0.478201
   8 H :    0.312645
   9 H :    0.104637
  10 H :    0.114098
  11 H :    0.129330
Sum of atomic charges:   -0.0000000

LOEWDIN ATOMIC CHARGES
----------------------
   0 C :   -0.004184
   1 O :   -0.000155
   2 H :   -0.002280
   3 H :   -0.005249
   4 H :   -0.000012
   5 H :   -0.000090
   6 C :   -0.336300
   7 O :   -0.101639
   8 H :    0.169080
   9 H :    0.096772
  10 H :    0.086264
  11 H :    0.097792

  Mayer bond orders larger than 0.1
B(  6-C ,  7-O ) :   1.0036 B(  6-C ,  9-H ) :   0.9801 B(  6-C , 10-H ) :   0.9845
B(  6-C , 11-H ) :   0.9720 B(  7-O ,  8-H ) :   0.9022

Dispersion correction           -0.000236591
FINAL SINGLE POINT ENERGY      -115.729456272086

DIPOLE MOMENT
-------------
                                X             Y             Z
Electronic contribution:     -0.50739       1.51796      -0.86289
Nuclear contribution   :      0.66587      -2.23569       0.65058
                        -----------------------------------------
Total Dipole Moment    :      0.15847      -0.71774      -0.21232
                        -----------------------------------------
Magnitude (a.u.)       :      0.76507
Magnitude (Debye)      :      1.94466

Rotational constants in cm-1:     4.614618     0.801649     0.774581
Rotational constants in MHz : 138342.762646 24032.829797 23221.345010

                             ****ORCA TERMINATED NORMALLY****
TOTAL RUN TIME: 0 days 0 hours 0 minutes 58 seconds 149 msec
