                         Program Version 4.1.2  - RELEASE  -
|  1> #Run DFT-D3 single point of the dimer
|  2> ! wB97X-D3 def2-TZVP TIGHTSCF CHELPG PMODEL PAL8
|  3>
|  4> %base "21-186_DFT_AB"
|  5>
|  6> %scf
|  7> MaxIter 1000
|  8> end
|  9>
| 10> * xyz 0 1
| 11>   C                      -3.841102            6.614214             4.620056
| 12>   O                      -3.327764            5.808069             3.606693
| 13>   H                      -2.593277            6.280095             3.215739
| 14>   H                      -4.227038            7.550951             4.196775
| 15>   H                      -4.778707            6.249320             4.989437
| 16>   H                      -3.116987            6.809601             5.396907
| 17>   C                      -3.271868            2.136895             3.383500
| 18>   O                      -2.382350            3.164202             3.374353
| 19>   H                      -2.899568            3.985669             3.406576
| 20>   H                      -2.731020            1.117228             3.518354
| 21>   H                      -3.845044            2.326833             4.235113
| 22>   H                      -3.987816            2.124145             2.480175
| 23> *
| 24>
| 25> #Run DFT-D3 single point of the molecule with dimer basis set
| 26> $new_job
| 27> %base "21-186_DFT_A"
| 28> ! wB97X-D3 def2-TZVP TIGHTSCF CHELPG PMODEL
| 29>
| 30> %scf
| 31> MaxIter 1000
| 32> end
| 33>
| 34> * xyz 0 1
| 35>   C                      -3.841102            6.614214             4.620056
| 36>   O                      -3.327764            5.808069             3.606693
| 37>   H                      -2.593277            6.280095             3.215739
| 38>   H                      -4.227038            7.550951             4.196775
| 39>   H                      -4.778707            6.249320             4.989437
| 40>   H                      -3.116987            6.809601             5.396907
| 41>   C                    : -3.271868            2.136895             3.383500
| 42>   O                    : -2.382350            3.164202             3.374353
| 43>   H                    : -2.899568            3.985669             3.406576
| 44>   H                    : -2.731020            1.117228             3.518354
| 45>   H                    : -3.845044            2.326833             4.235113
| 46>   H                    : -3.987816            2.124145             2.480175
| 47> *
| 48>
| 49> #Run DFT-D3 single point of the particle with dimer basis set
| 50> $new_job
| 51> %base "21-186_DFT_B"
| 52> ! wB97X-D3 def2-TZVP TIGHTSCF CHELPG PMODEL
| 53>
| 54> %scf
| 55> MaxIter 1000
| 56> end
| 57>
| 58> * xyz 0 1
| 59>   C                    : -3.841102            6.614214             4.620056
| 60>   O                    : -3.327764            5.808069             3.606693
| 61>   H                    : -2.593277            6.280095             3.215739
| 62>   H                    : -4.227038            7.550951             4.196775
| 63>   H                    : -4.778707            6.249320             4.989437
| 64>   H                    : -3.116987            6.809601             5.396907
| 65>   C                      -3.271868            2.136895             3.383500
| 66>   O                      -2.382350            3.164202             3.374353
| 67>   H                      -2.899568            3.985669             3.406576
| 68>   H                      -2.731020            1.117228             3.518354
| 69>   H                      -3.845044            2.326833             4.235113
| 70>   H                      -3.987816            2.124145             2.480175
| 71> *
| 72>
| 73>                          ****END OF INPUT****
 Total Charge           Charge          ....    0
 Multiplicity           Mult            ....    1
 Number of Electrons    NEL             ....   36
Dispersion correction           -0.001496589
FINAL SINGLE POINT ENERGY      -231.466363663861
Dispersion correction           -0.000223185
FINAL SINGLE POINT ENERGY      -115.733110699754

CARTESIAN COORDINATES (ANGSTROEM)
---------------------------------
  C     -3.841102    6.614214    4.620056
  O     -3.327764    5.808069    3.606693
  H     -2.593277    6.280095    3.215739
  H     -4.227038    7.550951    4.196775
  H     -4.778707    6.249320    4.989437
  H     -3.116987    6.809601    5.396907
  C     -3.271868    2.136895    3.383500
  O     -2.382350    3.164202    3.374353
  H     -2.899568    3.985669    3.406576
  H     -2.731020    1.117228    3.518354
  H     -3.845044    2.326833    4.235113
  H     -3.987816    2.124145    2.480175

 Multiplicity           Mult            ....    1
 Number of Electrons    NEL             ....   18
 Basis Dimension        Dim             ....  172

ORBITAL ENERGIES
----------------

  NO   OCC          E(Eh)            E(eV)
   0   2.0000     -19.230431      -523.2866
   1   2.0000     -10.315569      -280.7009
   2   2.0000      -1.155210       -31.4349
   3   2.0000      -0.784826       -21.3562
   4   2.0000      -0.620708       -16.8903
   5   2.0000      -0.549059       -14.9407
   6   2.0000      -0.530228       -14.4282
   7   2.0000      -0.427258       -11.6263
   8   2.0000      -0.367108        -9.9895
   9   0.0000       0.069577         1.8933
  10   0.0000       0.127606         3.4723
  11   0.0000       0.147611         4.0167
  12   0.0000       0.171103         4.6559
  13   0.0000       0.193826         5.2743

MULLIKEN ATOMIC CHARGES
-----------------------
   0 C :   -0.001782
   1 O :   -0.000969
   2 H :   -0.000339
   3 H :   -0.000015
   4 H :    0.000042
   5 H :    0.000228
   6 C :   -0.161157
   7 O :   -0.452186
   8 H :    0.313352
   9 H :    0.113203
  10 H :    0.103867
  11 H :    0.085756
Sum of atomic charges:   -0.0000000

LOEWDIN ATOMIC CHARGES
----------------------
   0 C :   -0.002716
   1 O :   -0.023219
   2 H :   -0.002189
   3 H :   -0.000083
   4 H :   -0.000103
   5 H :   -0.000083
   6 C :   -0.436596
   7 O :   -0.031749
   8 H :    0.194258
   9 H :    0.120957
  10 H :    0.083416
  11 H :    0.098108

  Mayer bond orders larger than 0.1
B(  6-C ,  7-O ) :   0.9950 B(  6-C ,  9-H ) :   0.9662 B(  6-C , 10-H ) :   0.9943
B(  6-C , 11-H ) :   0.9697 B(  7-O ,  8-H ) :   0.8992

Dispersion correction           -0.000212879
FINAL SINGLE POINT ENERGY      -115.724546601751

DIPOLE MOMENT
-------------
                                X             Y             Z
Electronic contribution:      1.33101       1.25563      -0.03179
Nuclear contribution   :     -1.96834      -1.09252       0.10413
                        -----------------------------------------
Total Dipole Moment    :     -0.63733       0.16310       0.07235
                        -----------------------------------------
Magnitude (a.u.)       :      0.66183
Magnitude (Debye)      :      1.68225

Rotational constants in cm-1:     4.089576     0.893290     0.847895
Rotational constants in MHz : 122602.400823 26780.165401 25419.241209

                             ****ORCA TERMINATED NORMALLY****
TOTAL RUN TIME: 0 days 0 hours 1 minutes 6 seconds 61 msec
