                         Program Version 4.1.2  - RELEASE  -
|  1> #Run DFT-D3 single point of the dimer
|  2> ! wB97X-D3 def2-TZVP TIGHTSCF CHELPG PMODEL PAL8
|  3>
|  4> %base "11-200_DFT_AB"
|  5>
|  6> %scf
|  7> MaxIter 1000
|  8> end
|  9>
| 10> * xyz 0 1
| 11>   C                      -0.907765            -10.387057           -7.837134
| 12>   O                      0.405391             -10.686019           -7.496707
| 13>   H                      0.426644             -10.754461           -6.527792
| 14>   H                      -1.282115            -9.678535            -7.062980
| 15>   H                      -0.910572            -9.964160            -8.848894
| 16>   H                      -1.557584            -11.213663           -7.775463
| 17>   C                      3.768563             -10.521496           -9.356716
| 18>   O                      3.342263             -10.307915           -8.030770
| 19>   H                      2.407537             -10.446156           -8.036449
| 20>   H                      3.783018             -11.621557           -9.523668
| 21>   H                      3.205777             -10.116418           -10.128131
| 22>   H                      4.831256             -10.227154           -9.505641
| 23> *
| 24>
| 25> #Run DFT-D3 single point of the molecule with dimer basis set
| 26> $new_job
| 27> %base "11-200_DFT_A"
| 28> ! wB97X-D3 def2-TZVP TIGHTSCF CHELPG PMODEL
| 29>
| 30> %scf
| 31> MaxIter 1000
| 32> end
| 33>
| 34> * xyz 0 1
| 35>   C                      -0.907765            -10.387057           -7.837134
| 36>   O                      0.405391             -10.686019           -7.496707
| 37>   H                      0.426644             -10.754461           -6.527792
| 38>   H                      -1.282115            -9.678535            -7.062980
| 39>   H                      -0.910572            -9.964160            -8.848894
| 40>   H                      -1.557584            -11.213663           -7.775463
| 41>   C                    : 3.768563             -10.521496           -9.356716
| 42>   O                    : 3.342263             -10.307915           -8.030770
| 43>   H                    : 2.407537             -10.446156           -8.036449
| 44>   H                    : 3.783018             -11.621557           -9.523668
| 45>   H                    : 3.205777             -10.116418           -10.128131
| 46>   H                    : 4.831256             -10.227154           -9.505641
| 47> *
| 48>
| 49> #Run DFT-D3 single point of the particle with dimer basis set
| 50> $new_job
| 51> %base "11-200_DFT_B"
| 52> ! wB97X-D3 def2-TZVP TIGHTSCF CHELPG PMODEL
| 53>
| 54> %scf
| 55> MaxIter 1000
| 56> end
| 57>
| 58> * xyz 0 1
| 59>   C                    : -0.907765            -10.387057           -7.837134
| 60>   O                    : 0.405391             -10.686019           -7.496707
| 61>   H                    : 0.426644             -10.754461           -6.527792
| 62>   H                    : -1.282115            -9.678535            -7.062980
| 63>   H                    : -0.910572            -9.964160            -8.848894
| 64>   H                    : -1.557584            -11.213663           -7.775463
| 65>   C                      3.768563             -10.521496           -9.356716
| 66>   O                      3.342263             -10.307915           -8.030770
| 67>   H                      2.407537             -10.446156           -8.036449
| 68>   H                      3.783018             -11.621557           -9.523668
| 69>   H                      3.205777             -10.116418           -10.128131
| 70>   H                      4.831256             -10.227154           -9.505641
| 71> *
| 72>
| 73>                          ****END OF INPUT****
 Total Charge           Charge          ....    0
 Multiplicity           Mult            ....    1
 Number of Electrons    NEL             ....   36
Dispersion correction           -0.001358022
FINAL SINGLE POINT ENERGY      -231.472026114985
Dispersion correction           -0.000210251
FINAL SINGLE POINT ENERGY      -115.732861447423

CARTESIAN COORDINATES (ANGSTROEM)
---------------------------------
  C     -0.907765  -10.387057   -7.837134
  O      0.405391  -10.686019   -7.496707
  H      0.426644  -10.754461   -6.527792
  H     -1.282115   -9.678535   -7.062980
  H     -0.910572   -9.964160   -8.848894
  H     -1.557584  -11.213663   -7.775463
  C      3.768563  -10.521496   -9.356716
  O      3.342263  -10.307915   -8.030770
  H      2.407537  -10.446156   -8.036449
  H      3.783018  -11.621557   -9.523668
  H      3.205777  -10.116418  -10.128131
  H      4.831256  -10.227154   -9.505641

 Multiplicity           Mult            ....    1
 Number of Electrons    NEL             ....   18
 Basis Dimension        Dim             ....  172

ORBITAL ENERGIES
----------------

  NO   OCC          E(Eh)            E(eV)
   0   2.0000     -19.231325      -523.3110
   1   2.0000     -10.309954      -280.5481
   2   2.0000      -1.143115       -31.1058
   3   2.0000      -0.798757       -21.7353
   4   2.0000      -0.618943       -16.8423
   5   2.0000      -0.539425       -14.6785
   6   2.0000      -0.527465       -14.3530
   7   2.0000      -0.440654       -11.9908
   8   2.0000      -0.371923       -10.1205
   9   0.0000       0.072107         1.9621
  10   0.0000       0.128074         3.4851
  11   0.0000       0.147569         4.0156
  12   0.0000       0.172874         4.7041
  13   0.0000       0.196466         5.3461

MULLIKEN ATOMIC CHARGES
-----------------------
   0 C :   -0.000710
   1 O :   -0.001006
   2 H :   -0.000278
   3 H :    0.000047
   4 H :   -0.000013
   5 H :    0.000001
   6 C :   -0.170365
   7 O :   -0.460427
   8 H :    0.307110
   9 H :    0.097862
  10 H :    0.111606
  11 H :    0.116172
Sum of atomic charges:    0.0000000

LOEWDIN ATOMIC CHARGES
----------------------
   0 C :   -0.001227
   1 O :   -0.013601
   2 H :   -0.001346
   3 H :   -0.000026
   4 H :   -0.000086
   5 H :   -0.000035
   6 C :   -0.388597
   7 O :   -0.055863
   8 H :    0.166845
   9 H :    0.099110
  10 H :    0.081427
  11 H :    0.113398

  Mayer bond orders larger than 0.1
B(  6-C ,  7-O ) :   0.9953 B(  6-C ,  9-H ) :   0.9862 B(  6-C , 10-H ) :   0.9693
B(  6-C , 11-H ) :   0.9735 B(  7-O ,  8-H ) :   0.9116

Dispersion correction           -0.000233244
FINAL SINGLE POINT ENERGY      -115.731472586844

DIPOLE MOMENT
-------------
                                X             Y             Z
Electronic contribution:     -0.53188       0.50642       1.74818
Nuclear contribution   :      0.10166      -0.66526      -2.28375
                        -----------------------------------------
Total Dipole Moment    :     -0.43022      -0.15884      -0.53557
                        -----------------------------------------
Magnitude (a.u.)       :      0.70509
Magnitude (Debye)      :      1.79220

Rotational constants in cm-1:     4.431849     0.835367     0.803408
Rotational constants in MHz : 132863.477123 25043.675929 24085.577285

                             ****ORCA TERMINATED NORMALLY****
TOTAL RUN TIME: 0 days 0 hours 1 minutes 2 seconds 873 msec
