                         Program Version 4.1.2  - RELEASE  -
|  1> #Run DFT-D3 single point of the dimer
|  2> ! wB97X-D3 def2-TZVP TIGHTSCF CHELPG PMODEL PAL8
|  3>
|  4> %base "6-167_DFT_AB"
|  5>
|  6> %scf
|  7> MaxIter 1000
|  8> end
|  9>
| 10> * xyz 0 1
| 11>   C                      7.921592             -9.643380            5.268875
| 12>   O                      8.729613             -8.573952            4.837167
| 13>   H                      8.174072             -7.825036            4.434077
| 14>   H                      8.433361             -10.193491           6.014222
| 15>   H                      6.942352             -9.413133            5.582032
| 16>   H                      7.760987             -10.375064           4.441845
| 17>   C                      10.469407            -10.775529           1.702895
| 18>   O                      10.321539            -9.515999            2.202532
| 19>   H                      9.645278             -9.527604            2.904574
| 20>   H                      10.440997            -11.518192           2.514949
| 21>   H                      9.659381             -11.009913           0.909153
| 22>   H                      11.467087            -10.917614           1.164855
| 23> *
| 24>
| 25> #Run DFT-D3 single point of the molecule with dimer basis set
| 26> $new_job
| 27> %base "6-167_DFT_A"
| 28> ! wB97X-D3 def2-TZVP TIGHTSCF CHELPG PMODEL
| 29>
| 30> %scf
| 31> MaxIter 1000
| 32> end
| 33>
| 34> * xyz 0 1
| 35>   C                      7.921592             -9.643380            5.268875
| 36>   O                      8.729613             -8.573952            4.837167
| 37>   H                      8.174072             -7.825036            4.434077
| 38>   H                      8.433361             -10.193491           6.014222
| 39>   H                      6.942352             -9.413133            5.582032
| 40>   H                      7.760987             -10.375064           4.441845
| 41>   C                    : 10.469407            -10.775529           1.702895
| 42>   O                    : 10.321539            -9.515999            2.202532
| 43>   H                    : 9.645278             -9.527604            2.904574
| 44>   H                    : 10.440997            -11.518192           2.514949
| 45>   H                    : 9.659381             -11.009913           0.909153
| 46>   H                    : 11.467087            -10.917614           1.164855
| 47> *
| 48>
| 49> #Run DFT-D3 single point of the particle with dimer basis set
| 50> $new_job
| 51> %base "6-167_DFT_B"
| 52> ! wB97X-D3 def2-TZVP TIGHTSCF CHELPG PMODEL
| 53>
| 54> %scf
| 55> MaxIter 1000
| 56> end
| 57>
| 58> * xyz 0 1
| 59>   C                    : 7.921592             -9.643380            5.268875
| 60>   O                    : 8.729613             -8.573952            4.837167
| 61>   H                    : 8.174072             -7.825036            4.434077
| 62>   H                    : 8.433361             -10.193491           6.014222
| 63>   H                    : 6.942352             -9.413133            5.582032
| 64>   H                    : 7.760987             -10.375064           4.441845
| 65>   C                      10.469407            -10.775529           1.702895
| 66>   O                      10.321539            -9.515999            2.202532
| 67>   H                      9.645278             -9.527604            2.904574
| 68>   H                      10.440997            -11.518192           2.514949
| 69>   H                      9.659381             -11.009913           0.909153
| 70>   H                      11.467087            -10.917614           1.164855
| 71> *
| 72>
| 73>                          ****END OF INPUT****
 Total Charge           Charge          ....    0
 Multiplicity           Mult            ....    1
 Number of Electrons    NEL             ....   36
Dispersion correction           -0.001653968
FINAL SINGLE POINT ENERGY      -231.466660700736
Dispersion correction           -0.000257863
FINAL SINGLE POINT ENERGY      -115.730378603556

CARTESIAN COORDINATES (ANGSTROEM)
---------------------------------
  C      7.921592   -9.643380    5.268875
  O      8.729613   -8.573952    4.837167
  H      8.174072   -7.825036    4.434077
  H      8.433361  -10.193491    6.014222
  H      6.942352   -9.413133    5.582032
  H      7.760987  -10.375064    4.441845
  C     10.469407  -10.775529    1.702895
  O     10.321539   -9.515999    2.202532
  H      9.645278   -9.527604    2.904574
  H     10.440997  -11.518192    2.514949
  H      9.659381  -11.009913    0.909153
  H     11.467087  -10.917614    1.164855

 Multiplicity           Mult            ....    1
 Number of Electrons    NEL             ....   18
 Basis Dimension        Dim             ....  172

ORBITAL ENERGIES
----------------

  NO   OCC          E(Eh)            E(eV)
   0   2.0000     -19.233489      -523.3698
   1   2.0000     -10.321708      -280.8680
   2   2.0000      -1.151893       -31.3446
   3   2.0000      -0.784257       -21.3407
   4   2.0000      -0.618215       -16.8225
   5   2.0000      -0.542686       -14.7672
   6   2.0000      -0.532698       -14.4954
   7   2.0000      -0.424230       -11.5439
   8   2.0000      -0.369218       -10.0469
   9   0.0000       0.066657         1.8138
  10   0.0000       0.131608         3.5812
  11   0.0000       0.145988         3.9725
  12   0.0000       0.167926         4.5695
  13   0.0000       0.188242         5.1223

MULLIKEN ATOMIC CHARGES
-----------------------
   0 C :   -0.002322
   1 O :    0.001215
   2 H :   -0.000081
   3 H :    0.000190
   4 H :   -0.000099
   5 H :   -0.000487
   6 C :   -0.158686
   7 O :   -0.457400
   8 H :    0.317646
   9 H :    0.096855
  10 H :    0.088953
  11 H :    0.114217
Sum of atomic charges:    0.0000000

LOEWDIN ATOMIC CHARGES
----------------------
   0 C :   -0.003895
   1 O :   -0.005428
   2 H :   -0.000702
   3 H :   -0.000058
   4 H :   -0.000068
   5 H :   -0.001270
   6 C :   -0.439758
   7 O :   -0.040941
   8 H :    0.186481
   9 H :    0.092224
  10 H :    0.099255
  11 H :    0.114159

  Mayer bond orders larger than 0.1
B(  6-C ,  7-O ) :   1.0049 B(  6-C ,  9-H ) :   0.9814 B(  6-C , 10-H ) :   0.9744
B(  6-C , 11-H ) :   0.9681 B(  7-O ,  8-H ) :   0.8978

Dispersion correction           -0.000240487
FINAL SINGLE POINT ENERGY      -115.731272253401

DIPOLE MOMENT
-------------
                                X             Y             Z
Electronic contribution:     -0.08060       1.79522       0.67327
Nuclear contribution   :     -0.26900      -2.24518      -0.37354
                        -----------------------------------------
Total Dipole Moment    :     -0.34960      -0.44996       0.29972
                        -----------------------------------------
Magnitude (a.u.)       :      0.64384
Magnitude (Debye)      :      1.63650

Rotational constants in cm-1:     4.081665     0.866210     0.838578
Rotational constants in MHz : 122365.227072 25968.320745 25139.925237

                             ****ORCA TERMINATED NORMALLY****
TOTAL RUN TIME: 0 days 0 hours 1 minutes 4 seconds 932 msec
