                         Program Version 4.1.2  - RELEASE  -
|  1> #Run DFT-D3 single point of the dimer
|  2> ! wB97X-D3 def2-TZVP TIGHTSCF  CHELPG PAL8
|  3>
|  4> %base "14_charges"
|  5>
|  6> %scf
|  7> MaxIter 1000
|  8> end
|  9> %output
| 10>   Print[ P_Mayer ] 1
| 11>   Print[ P_NatPop ] 1
| 12>   Print[ P_Hirshfeld ] 1
| 13>   Print[ P_Mulliken ] 1
| 14>   Print [ P_Loewdin ] 1
| 15> end
| 16>
| 17> * xyz 0 1
| 18>   C                      10.497073            -3.038141            5.985491
| 19>   O                      10.591594            -2.996538            7.408356
| 20>   H                      9.736850             -2.844457            7.793575
| 21>   H                      9.553735             -2.512706            5.712524
| 22>   H                      11.367821            -2.621097            5.424829
| 23>   H                      10.509099            -4.115966            5.573732
| 24> *
| 25>
| 26>                          ****END OF INPUT****

CARTESIAN COORDINATES (ANGSTROEM)
---------------------------------
  C     10.497073   -3.038141    5.985491
  O     10.591594   -2.996538    7.408356
  H      9.736850   -2.844457    7.793575
  H      9.553735   -2.512706    5.712524
  H     11.367821   -2.621097    5.424829
  H     10.509099   -4.115966    5.573732

 Total Charge           Charge          ....    0
 Multiplicity           Mult            ....    1
 Number of Electrons    NEL             ....   18
 Basis Dimension        Dim             ....   86

ORBITAL ENERGIES
----------------

  NO   OCC          E(Eh)            E(eV)
   0   2.0000     -19.230062      -523.2766
   1   2.0000     -10.326459      -280.9972
   2   2.0000      -1.134316       -30.8663
   3   2.0000      -0.791001       -21.5242
   4   2.0000      -0.609164       -16.5762
   5   2.0000      -0.541789       -14.7428
   6   2.0000      -0.521492       -14.1905
   7   2.0000      -0.429026       -11.6744
   8   2.0000      -0.370547       -10.0831
   9   0.0000       0.112694         3.0666
  10   0.0000       0.148190         4.0324
  11   0.0000       0.197460         5.3732
  12   0.0000       0.203196         5.5292
  13   0.0000       0.225427         6.1342

MULLIKEN ATOMIC CHARGES
-----------------------
   0 C :   -0.172852
   1 O :   -0.471523
   2 H :    0.318428
   3 H :    0.105278
   4 H :    0.121298
   5 H :    0.099370
Sum of atomic charges:    0.0000000

LOEWDIN ATOMIC CHARGES
----------------------
   0 C :   -0.389246
   1 O :   -0.084205
   2 H :    0.161996
   3 H :    0.100347
   4 H :    0.107345
   5 H :    0.103763

  Mayer bond orders larger than 0.1
B(  0-C ,  1-O ) :   1.0082 B(  0-C ,  3-H ) :   0.9864 B(  0-C ,  4-H ) :   0.9697
B(  0-C ,  5-H ) :   0.9702 B(  1-O ,  2-H ) :   0.8984

Dispersion correction           -0.000270439
FINAL SINGLE POINT ENERGY      -115.729167065683

DIPOLE MOMENT
-------------
                                X             Y             Z
Electronic contribution:      0.25856       0.13367       1.87853
Nuclear contribution   :     -0.84917      -0.02983      -2.19438
                        -----------------------------------------
Total Dipole Moment    :     -0.59061       0.10384      -0.31585
                        -----------------------------------------
Magnitude (a.u.)       :      0.67776
Magnitude (Debye)      :      1.72274

Rotational constants in cm-1:     4.208103     0.808227     0.775133
Rotational constants in MHz : 126155.743386 24230.036753 23237.907049

                             ****ORCA TERMINATED NORMALLY****
TOTAL RUN TIME: 0 days 0 hours 0 minutes 40 seconds 628 msec
