                         Program Version 4.1.2  - RELEASE  -
|  1> #Run DFT-D3 single point of the dimer
|  2> ! wB97X-D3 def2-TZVP TIGHTSCF CHELPG PMODEL PAL8
|  3>
|  4> %base "2-71_DFT_AB"
|  5>
|  6> %scf
|  7> MaxIter 1000
|  8> end
|  9>
| 10> * xyz 0 1
| 11>   C                      2.216168             -10.583670           6.792271
| 12>   O                      1.676542             -10.073466           5.612727
| 13>   H                      2.289929             -10.296612           4.873086
| 14>   H                      1.920652             -11.635590           6.979439
| 15>   H                      3.230282             -10.410300           6.926087
| 16>   H                      1.813010             -10.092693           7.607417
| 17>   C                      -2.414577            -9.840233            4.373726
| 18>   O                      -2.565059            -10.638349           3.278567
| 19>   H                      -1.753456            -10.671124           2.788095
| 20>   H                      -2.990042            -10.192673           5.225289
| 21>   H                      -1.368952            -9.985903            4.812101
| 22>   H                      -2.448214            -8.747455            4.203547
| 23> *
| 24>
| 25> #Run DFT-D3 single point of the molecule with dimer basis set
| 26> $new_job
| 27> %base "2-71_DFT_A"
| 28> ! wB97X-D3 def2-TZVP TIGHTSCF CHELPG PMODEL
| 29>
| 30> %scf
| 31> MaxIter 1000
| 32> end
| 33>
| 34> * xyz 0 1
| 35>   C                      2.216168             -10.583670           6.792271
| 36>   O                      1.676542             -10.073466           5.612727
| 37>   H                      2.289929             -10.296612           4.873086
| 38>   H                      1.920652             -11.635590           6.979439
| 39>   H                      3.230282             -10.410300           6.926087
| 40>   H                      1.813010             -10.092693           7.607417
| 41>   C                    : -2.414577            -9.840233            4.373726
| 42>   O                    : -2.565059            -10.638349           3.278567
| 43>   H                    : -1.753456            -10.671124           2.788095
| 44>   H                    : -2.990042            -10.192673           5.225289
| 45>   H                    : -1.368952            -9.985903            4.812101
| 46>   H                    : -2.448214            -8.747455            4.203547
| 47> *
| 48>
| 49> #Run DFT-D3 single point of the particle with dimer basis set
| 50> $new_job
| 51> %base "2-71_DFT_B"
| 52> ! wB97X-D3 def2-TZVP TIGHTSCF CHELPG PMODEL
| 53>
| 54> %scf
| 55> MaxIter 1000
| 56> end
| 57>
| 58> * xyz 0 1
| 59>   C                    : 2.216168             -10.583670           6.792271
| 60>   O                    : 1.676542             -10.073466           5.612727
| 61>   H                    : 2.289929             -10.296612           4.873086
| 62>   H                    : 1.920652             -11.635590           6.979439
| 63>   H                    : 3.230282             -10.410300           6.926087
| 64>   H                    : 1.813010             -10.092693           7.607417
| 65>   C                      -2.414577            -9.840233            4.373726
| 66>   O                      -2.565059            -10.638349           3.278567
| 67>   H                      -1.753456            -10.671124           2.788095
| 68>   H                      -2.990042            -10.192673           5.225289
| 69>   H                      -1.368952            -9.985903            4.812101
| 70>   H                      -2.448214            -8.747455            4.203547
| 71> *
| 72>
| 73>                          ****END OF INPUT****
 Total Charge           Charge          ....    0
 Multiplicity           Mult            ....    1
 Number of Electrons    NEL             ....   36
Dispersion correction           -0.000950779
FINAL SINGLE POINT ENERGY      -231.459351712021
Dispersion correction           -0.000238871
FINAL SINGLE POINT ENERGY      -115.729032253003

CARTESIAN COORDINATES (ANGSTROEM)
---------------------------------
  C      2.216168  -10.583670    6.792271
  O      1.676542  -10.073466    5.612727
  H      2.289929  -10.296612    4.873086
  H      1.920652  -11.635590    6.979439
  H      3.230282  -10.410300    6.926087
  H      1.813010  -10.092693    7.607417
  C     -2.414577   -9.840233    4.373726
  O     -2.565059  -10.638349    3.278567
  H     -1.753456  -10.671124    2.788095
  H     -2.990042  -10.192673    5.225289
  H     -1.368952   -9.985903    4.812101
  H     -2.448214   -8.747455    4.203547

 Multiplicity           Mult            ....    1
 Number of Electrons    NEL             ....   18
 Basis Dimension        Dim             ....  172

ORBITAL ENERGIES
----------------

  NO   OCC          E(Eh)            E(eV)
   0   2.0000     -19.231485      -523.3153
   1   2.0000     -10.315013      -280.6858
   2   2.0000      -1.155527       -31.4435
   3   2.0000      -0.793789       -21.6001
   4   2.0000      -0.625003       -17.0072
   5   2.0000      -0.552345       -15.0301
   6   2.0000      -0.528015       -14.3680
   7   2.0000      -0.421018       -11.4565
   8   2.0000      -0.373176       -10.1546
   9   0.0000       0.078316         2.1311
  10   0.0000       0.116218         3.1624
  11   0.0000       0.152218         4.1421
  12   0.0000       0.165005         4.4900
  13   0.0000       0.182731         4.9724

MULLIKEN ATOMIC CHARGES
-----------------------
   0 C :   -0.000172
   1 O :    0.000079
   2 H :   -0.000045
   3 H :   -0.000012
   4 H :   -0.000015
   5 H :   -0.000030
   6 C :   -0.167534
   7 O :   -0.461296
   8 H :    0.321640
   9 H :    0.120837
  10 H :    0.085350
  11 H :    0.101198
Sum of atomic charges:    0.0000000

LOEWDIN ATOMIC CHARGES
----------------------
   0 C :   -0.000410
   1 O :   -0.001312
   2 H :   -0.000161
   3 H :   -0.000023
   4 H :   -0.000012
   5 H :   -0.000028
   6 C :   -0.435375
   7 O :   -0.032694
   8 H :    0.168504
   9 H :    0.106369
  10 H :    0.100294
  11 H :    0.094848

  Mayer bond orders larger than 0.1
B(  6-C ,  7-O ) :   1.0114 B(  6-C ,  9-H ) :   0.9696 B(  6-C , 10-H ) :   0.9907
B(  6-C , 11-H ) :   0.9652 B(  7-O ,  8-H ) :   0.8957

Dispersion correction           -0.000236875
FINAL SINGLE POINT ENERGY      -115.729160978982

DIPOLE MOMENT
-------------
                                X             Y             Z
Electronic contribution:     -0.58306      -1.05743      -1.57414
Nuclear contribution   :      1.18055       1.29596       1.66212
                        -----------------------------------------
Total Dipole Moment    :      0.59749       0.23853       0.08798
                        -----------------------------------------
Magnitude (a.u.)       :      0.64933
Magnitude (Debye)      :      1.65046

Rotational constants in cm-1:     4.321747     0.864842     0.840930
Rotational constants in MHz : 129562.718475 25927.300255 25210.457912

                             ****ORCA TERMINATED NORMALLY****
TOTAL RUN TIME: 0 days 0 hours 5 minutes 58 seconds 761 msec
