                         Program Version 4.1.2  - RELEASE  -
|  1> #Run DFT-D3 single point of the dimer
|  2> ! wB97X-D3 def2-TZVP TIGHTSCF CHELPG PMODEL PAL8
|  3>
|  4> %base "14-128_DFT_AB"
|  5>
|  6> %scf
|  7> MaxIter 1000
|  8> end
|  9>
| 10> * xyz 0 1
| 11>   C                      -4.769766            -3.580536            9.570225
| 12>   O                      -4.512011            -2.670247            8.537336
| 13>   H                      -4.507633            -1.874928            9.074293
| 14>   H                      -4.004359            -3.378747            10.345685
| 15>   H                      -5.746053            -3.566870            10.002338
| 16>   H                      -4.559165            -4.618552            9.236661
| 17>   C                      -8.197839            -1.460506            9.699021
| 18>   O                      -7.300278            -0.605665            10.426654
| 19>   H                      -7.352618            0.295565             10.150033
| 20>   H                      -7.792381            -2.510370            9.672710
| 21>   H                      -9.254685            -1.444177            10.050358
| 22>   H                      -8.271616            -1.233693            8.619963
| 23> *
| 24>
| 25> #Run DFT-D3 single point of the molecule with dimer basis set
| 26> $new_job
| 27> %base "14-128_DFT_A"
| 28> ! wB97X-D3 def2-TZVP TIGHTSCF CHELPG PMODEL
| 29>
| 30> %scf
| 31> MaxIter 1000
| 32> end
| 33>
| 34> * xyz 0 1
| 35>   C                      -4.769766            -3.580536            9.570225
| 36>   O                      -4.512011            -2.670247            8.537336
| 37>   H                      -4.507633            -1.874928            9.074293
| 38>   H                      -4.004359            -3.378747            10.345685
| 39>   H                      -5.746053            -3.566870            10.002338
| 40>   H                      -4.559165            -4.618552            9.236661
| 41>   C                    : -8.197839            -1.460506            9.699021
| 42>   O                    : -7.300278            -0.605665            10.426654
| 43>   H                    : -7.352618            0.295565             10.150033
| 44>   H                    : -7.792381            -2.510370            9.672710
| 45>   H                    : -9.254685            -1.444177            10.050358
| 46>   H                    : -8.271616            -1.233693            8.619963
| 47> *
| 48>
| 49> #Run DFT-D3 single point of the particle with dimer basis set
| 50> $new_job
| 51> %base "14-128_DFT_B"
| 52> ! wB97X-D3 def2-TZVP TIGHTSCF CHELPG PMODEL
| 53>
| 54> %scf
| 55> MaxIter 1000
| 56> end
| 57>
| 58> * xyz 0 1
| 59>   C                    : -4.769766            -3.580536            9.570225
| 60>   O                    : -4.512011            -2.670247            8.537336
| 61>   H                    : -4.507633            -1.874928            9.074293
| 62>   H                    : -4.004359            -3.378747            10.345685
| 63>   H                    : -5.746053            -3.566870            10.002338
| 64>   H                    : -4.559165            -4.618552            9.236661
| 65>   C                      -8.197839            -1.460506            9.699021
| 66>   O                      -7.300278            -0.605665            10.426654
| 67>   H                      -7.352618            0.295565             10.150033
| 68>   H                      -7.792381            -2.510370            9.672710
| 69>   H                      -9.254685            -1.444177            10.050358
| 70>   H                      -8.271616            -1.233693            8.619963
| 71> *
| 72>
| 73>                          ****END OF INPUT****
 Total Charge           Charge          ....    0
 Multiplicity           Mult            ....    1
 Number of Electrons    NEL             ....   36
Dispersion correction           -0.001734231
FINAL SINGLE POINT ENERGY      -231.466248080593
Dispersion correction           -0.000208334
FINAL SINGLE POINT ENERGY      -115.730469850433

CARTESIAN COORDINATES (ANGSTROEM)
---------------------------------
  C     -4.769766   -3.580536    9.570225
  O     -4.512011   -2.670247    8.537336
  H     -4.507633   -1.874928    9.074293
  H     -4.004359   -3.378747   10.345685
  H     -5.746053   -3.566870   10.002338
  H     -4.559165   -4.618552    9.236661
  C     -8.197839   -1.460506    9.699021
  O     -7.300278   -0.605665   10.426654
  H     -7.352618    0.295565   10.150033
  H     -7.792381   -2.510370    9.672710
  H     -9.254685   -1.444177   10.050358
  H     -8.271616   -1.233693    8.619963

 Multiplicity           Mult            ....    1
 Number of Electrons    NEL             ....   18
 Basis Dimension        Dim             ....  172

ORBITAL ENERGIES
----------------

  NO   OCC          E(Eh)            E(eV)
   0   2.0000     -19.231460      -523.3146
   1   2.0000     -10.322488      -280.8892
   2   2.0000      -1.131273       -30.7835
   3   2.0000      -0.796936       -21.6857
   4   2.0000      -0.613725       -16.7003
   5   2.0000      -0.536519       -14.5994
   6   2.0000      -0.516959       -14.0672
   7   2.0000      -0.429169       -11.6783
   8   2.0000      -0.377809       -10.2807
   9   0.0000       0.093217         2.5366
  10   0.0000       0.123328         3.3559
  11   0.0000       0.147456         4.0125
  12   0.0000       0.176959         4.8153
  13   0.0000       0.192346         5.2340

MULLIKEN ATOMIC CHARGES
-----------------------
   0 C :   -0.000839
   1 O :    0.000122
   2 H :   -0.002664
   3 H :   -0.000109
   4 H :    0.002931
   5 H :    0.000178
   6 C :   -0.180264
   7 O :   -0.477803
   8 H :    0.315331
   9 H :    0.120242
  10 H :    0.113466
  11 H :    0.109409
Sum of atomic charges:   -0.0000000

LOEWDIN ATOMIC CHARGES
----------------------
   0 C :   -0.002893
   1 O :   -0.000156
   2 H :   -0.002187
   3 H :   -0.000030
   4 H :   -0.003693
   5 H :   -0.000011
   6 C :   -0.379181
   7 O :   -0.081350
   8 H :    0.155964
   9 H :    0.117156
  10 H :    0.099304
  11 H :    0.097077

  Mayer bond orders larger than 0.1
B(  6-C ,  7-O ) :   0.9973 B(  6-C ,  9-H ) :   0.9741 B(  6-C , 10-H ) :   0.9694
B(  6-C , 11-H ) :   0.9758 B(  7-O ,  8-H ) :   0.8986

Dispersion correction           -0.000287680
FINAL SINGLE POINT ENERGY      -115.732752827818

DIPOLE MOMENT
-------------
                                X             Y             Z
Electronic contribution:      1.18091       1.06449       1.09736
Nuclear contribution   :     -1.57678      -0.81731      -1.60641
                        -----------------------------------------
Total Dipole Moment    :     -0.39587       0.24718      -0.50905
                        -----------------------------------------
Magnitude (a.u.)       :      0.69061
Magnitude (Debye)      :      1.75539

Rotational constants in cm-1:     4.354721     0.789195     0.766981
Rotational constants in MHz : 130551.263617 23659.470579 22993.506798

                             ****ORCA TERMINATED NORMALLY****
TOTAL RUN TIME: 0 days 0 hours 1 minutes 8 seconds 895 msec
