                         Program Version 4.1.2  - RELEASE  -
|  1> #Run DFT-D3 single point of the dimer
|  2> ! wB97X-D3 def2-TZVP TIGHTSCF CHELPG PMODEL PAL8
|  3>
|  4> %base "6-115_DFT_AB"
|  5>
|  6> %scf
|  7> MaxIter 1000
|  8> end
|  9>
| 10> * xyz 0 1
| 11>   C                      6.494887             -9.319664            0.599304
| 12>   O                      6.530466             -9.264981            2.010500
| 13>   H                      6.957669             -10.100235           2.248466
| 14>   H                      5.656828             -9.905448            0.193507
| 15>   H                      6.395575             -8.342034            0.169458
| 16>   H                      7.472226             -9.620610            0.188917
| 17>   C                      5.214555             -5.719470            -0.540958
| 18>   O                      6.435239             -6.211418            -0.983080
| 19>   H                      7.137188             -5.637817            -0.659574
| 20>   H                      5.152850             -4.633872            -0.732966
| 21>   H                      4.397840             -6.244215            -1.078387
| 22>   H                      5.083328             -5.960183            0.535244
| 23> *
| 24>
| 25> #Run DFT-D3 single point of the molecule with dimer basis set
| 26> $new_job
| 27> %base "6-115_DFT_A"
| 28> ! wB97X-D3 def2-TZVP TIGHTSCF CHELPG PMODEL
| 29>
| 30> %scf
| 31> MaxIter 1000
| 32> end
| 33>
| 34> * xyz 0 1
| 35>   C                      6.494887             -9.319664            0.599304
| 36>   O                      6.530466             -9.264981            2.010500
| 37>   H                      6.957669             -10.100235           2.248466
| 38>   H                      5.656828             -9.905448            0.193507
| 39>   H                      6.395575             -8.342034            0.169458
| 40>   H                      7.472226             -9.620610            0.188917
| 41>   C                    : 5.214555             -5.719470            -0.540958
| 42>   O                    : 6.435239             -6.211418            -0.983080
| 43>   H                    : 7.137188             -5.637817            -0.659574
| 44>   H                    : 5.152850             -4.633872            -0.732966
| 45>   H                    : 4.397840             -6.244215            -1.078387
| 46>   H                    : 5.083328             -5.960183            0.535244
| 47> *
| 48>
| 49> #Run DFT-D3 single point of the particle with dimer basis set
| 50> $new_job
| 51> %base "6-115_DFT_B"
| 52> ! wB97X-D3 def2-TZVP TIGHTSCF CHELPG PMODEL
| 53>
| 54> %scf
| 55> MaxIter 1000
| 56> end
| 57>
| 58> * xyz 0 1
| 59>   C                    : 6.494887             -9.319664            0.599304
| 60>   O                    : 6.530466             -9.264981            2.010500
| 61>   H                    : 6.957669             -10.100235           2.248466
| 62>   H                    : 5.656828             -9.905448            0.193507
| 63>   H                    : 6.395575             -8.342034            0.169458
| 64>   H                    : 7.472226             -9.620610            0.188917
| 65>   C                      5.214555             -5.719470            -0.540958
| 66>   O                      6.435239             -6.211418            -0.983080
| 67>   H                      7.137188             -5.637817            -0.659574
| 68>   H                      5.152850             -4.633872            -0.732966
| 69>   H                      4.397840             -6.244215            -1.078387
| 70>   H                      5.083328             -5.960183            0.535244
| 71> *
| 72>
| 73>                          ****END OF INPUT****
 Total Charge           Charge          ....    0
 Multiplicity           Mult            ....    1
 Number of Electrons    NEL             ....   36
Dispersion correction           -0.001624508
FINAL SINGLE POINT ENERGY      -231.472352857549
Dispersion correction           -0.000238372
FINAL SINGLE POINT ENERGY      -115.733781549938

CARTESIAN COORDINATES (ANGSTROEM)
---------------------------------
  C      6.494887   -9.319664    0.599304
  O      6.530466   -9.264981    2.010500
  H      6.957669  -10.100235    2.248466
  H      5.656828   -9.905448    0.193507
  H      6.395575   -8.342034    0.169458
  H      7.472226   -9.620610    0.188917
  C      5.214555   -5.719470   -0.540958
  O      6.435239   -6.211418   -0.983080
  H      7.137188   -5.637817   -0.659574
  H      5.152850   -4.633872   -0.732966
  H      4.397840   -6.244215   -1.078387
  H      5.083328   -5.960183    0.535244

 Multiplicity           Mult            ....    1
 Number of Electrons    NEL             ....   18
 Basis Dimension        Dim             ....  172

ORBITAL ENERGIES
----------------

  NO   OCC          E(Eh)            E(eV)
   0   2.0000     -19.229049      -523.2490
   1   2.0000     -10.314670      -280.6764
   2   2.0000      -1.143555       -31.1177
   3   2.0000      -0.790385       -21.5075
   4   2.0000      -0.612242       -16.6599
   5   2.0000      -0.546667       -14.8756
   6   2.0000      -0.530018       -14.4225
   7   2.0000      -0.428689       -11.6652
   8   2.0000      -0.371091       -10.0979
   9   0.0000       0.093345         2.5401
  10   0.0000       0.121416         3.3039
  11   0.0000       0.153881         4.1873
  12   0.0000       0.178404         4.8546
  13   0.0000       0.191983         5.2241

MULLIKEN ATOMIC CHARGES
-----------------------
   0 C :   -0.006242
   1 O :    0.000177
   2 H :    0.000002
   3 H :   -0.000465
   4 H :    0.003417
   5 H :    0.000146
   6 C :   -0.159376
   7 O :   -0.474042
   8 H :    0.316065
   9 H :    0.106012
  10 H :    0.113977
  11 H :    0.100330
Sum of atomic charges:    0.0000000

LOEWDIN ATOMIC CHARGES
----------------------
   0 C :   -0.005825
   1 O :   -0.000042
   2 H :   -0.000005
   3 H :   -0.000080
   4 H :   -0.014154
   5 H :   -0.000218
   6 C :   -0.408300
   7 O :   -0.048446
   8 H :    0.171892
   9 H :    0.097260
  10 H :    0.111487
  11 H :    0.096432

  Mayer bond orders larger than 0.1
B(  6-C ,  7-O ) :   0.9874 B(  6-C ,  9-H ) :   0.9755 B(  6-C , 10-H ) :   0.9747
B(  6-C , 11-H ) :   0.9782 B(  7-O ,  8-H ) :   0.8963

Dispersion correction           -0.000227256
FINAL SINGLE POINT ENERGY      -115.736192068688

DIPOLE MOMENT
-------------
                                X             Y             Z
Electronic contribution:      1.50695      -0.69058      -0.65872
Nuclear contribution   :     -1.52992       1.24749       1.01217
                        -----------------------------------------
Total Dipole Moment    :     -0.02297       0.55691       0.35344
                        -----------------------------------------
Magnitude (a.u.)       :      0.66000
Magnitude (Debye)      :      1.67759

Rotational constants in cm-1:     4.161050     0.857091     0.827452
Rotational constants in MHz : 124745.131805 25694.936222 24806.382956

                             ****ORCA TERMINATED NORMALLY****
TOTAL RUN TIME: 0 days 0 hours 1 minutes 3 seconds 263 msec
