                         Program Version 4.1.2  - RELEASE  -
|  1> #Run DFT-D3 single point of the dimer
|  2> ! wB97X-D3 def2-TZVP TIGHTSCF CHELPG PMODEL PAL8
|  3>
|  4> %base "6-82_DFT_AB"
|  5>
|  6> %scf
|  7> MaxIter 1000
|  8> end
|  9>
| 10> * xyz 0 1
| 11>   C                      -4.592135            -8.778354            -4.672863
| 12>   O                      -4.996036            -7.685713            -3.782804
| 13>   H                      -4.696775            -7.821721            -2.928204
| 14>   H                      -3.534098            -9.010149            -4.638917
| 15>   H                      -5.112055            -9.688766            -4.343416
| 16>   H                      -4.938609            -8.647915            -5.698391
| 17>   C                      -6.599554            -6.042447            -7.483774
| 18>   O                      -6.237968            -7.365187            -7.023287
| 19>   H                      -6.486182            -7.464170            -6.141548
| 20>   H                      -5.802286            -5.308373            -7.271396
| 21>   H                      -6.682115            -6.133184            -8.605517
| 22>   H                      -7.524278            -5.712223            -7.081601
| 23> *
| 24>
| 25> #Run DFT-D3 single point of the molecule with dimer basis set
| 26> $new_job
| 27> %base "6-82_DFT_A"
| 28> ! wB97X-D3 def2-TZVP TIGHTSCF CHELPG PMODEL
| 29>
| 30> %scf
| 31> MaxIter 1000
| 32> end
| 33>
| 34> * xyz 0 1
| 35>   C                      -4.592135            -8.778354            -4.672863
| 36>   O                      -4.996036            -7.685713            -3.782804
| 37>   H                      -4.696775            -7.821721            -2.928204
| 38>   H                      -3.534098            -9.010149            -4.638917
| 39>   H                      -5.112055            -9.688766            -4.343416
| 40>   H                      -4.938609            -8.647915            -5.698391
| 41>   C                    : -6.599554            -6.042447            -7.483774
| 42>   O                    : -6.237968            -7.365187            -7.023287
| 43>   H                    : -6.486182            -7.464170            -6.141548
| 44>   H                    : -5.802286            -5.308373            -7.271396
| 45>   H                    : -6.682115            -6.133184            -8.605517
| 46>   H                    : -7.524278            -5.712223            -7.081601
| 47> *
| 48>
| 49> #Run DFT-D3 single point of the particle with dimer basis set
| 50> $new_job
| 51> %base "6-82_DFT_B"
| 52> ! wB97X-D3 def2-TZVP TIGHTSCF CHELPG PMODEL
| 53>
| 54> %scf
| 55> MaxIter 1000
| 56> end
| 57>
| 58> * xyz 0 1
| 59>   C                    : -4.592135            -8.778354            -4.672863
| 60>   O                    : -4.996036            -7.685713            -3.782804
| 61>   H                    : -4.696775            -7.821721            -2.928204
| 62>   H                    : -3.534098            -9.010149            -4.638917
| 63>   H                    : -5.112055            -9.688766            -4.343416
| 64>   H                    : -4.938609            -8.647915            -5.698391
| 65>   C                      -6.599554            -6.042447            -7.483774
| 66>   O                      -6.237968            -7.365187            -7.023287
| 67>   H                      -6.486182            -7.464170            -6.141548
| 68>   H                      -5.802286            -5.308373            -7.271396
| 69>   H                      -6.682115            -6.133184            -8.605517
| 70>   H                      -7.524278            -5.712223            -7.081601
| 71> *
| 72>
| 73>                          ****END OF INPUT****
 Total Charge           Charge          ....    0
 Multiplicity           Mult            ....    1
 Number of Electrons    NEL             ....   36
Dispersion correction           -0.001637563
FINAL SINGLE POINT ENERGY      -231.466787852334
Dispersion correction           -0.000267042
FINAL SINGLE POINT ENERGY      -115.730479101143

CARTESIAN COORDINATES (ANGSTROEM)
---------------------------------
  C     -4.592135   -8.778354   -4.672863
  O     -4.996036   -7.685713   -3.782804
  H     -4.696775   -7.821721   -2.928204
  H     -3.534098   -9.010149   -4.638917
  H     -5.112055   -9.688766   -4.343416
  H     -4.938609   -8.647915   -5.698391
  C     -6.599554   -6.042447   -7.483774
  O     -6.237968   -7.365187   -7.023287
  H     -6.486182   -7.464170   -6.141548
  H     -5.802286   -5.308373   -7.271396
  H     -6.682115   -6.133184   -8.605517
  H     -7.524278   -5.712223   -7.081601

 Multiplicity           Mult            ....    1
 Number of Electrons    NEL             ....   18
 Basis Dimension        Dim             ....  172

ORBITAL ENERGIES
----------------

  NO   OCC          E(Eh)            E(eV)
   0   2.0000     -19.226374      -523.1762
   1   2.0000     -10.318009      -280.7673
   2   2.0000      -1.133983       -30.8572
   3   2.0000      -0.800008       -21.7693
   4   2.0000      -0.612655       -16.6712
   5   2.0000      -0.540410       -14.7053
   6   2.0000      -0.519127       -14.1262
   7   2.0000      -0.438093       -11.9211
   8   2.0000      -0.376455       -10.2439
   9   0.0000       0.084114         2.2889
  10   0.0000       0.130308         3.5459
  11   0.0000       0.156230         4.2512
  12   0.0000       0.170729         4.6458
  13   0.0000       0.189917         5.1679

MULLIKEN ATOMIC CHARGES
-----------------------
   0 C :   -0.005676
   1 O :   -0.000144
   2 H :   -0.000115
   3 H :    0.000179
   4 H :    0.000090
   5 H :   -0.007884
   6 C :   -0.166807
   7 O :   -0.462535
   8 H :    0.307125
   9 H :    0.107094
  10 H :    0.120655
  11 H :    0.108017
Sum of atomic charges:   -0.0000000

LOEWDIN ATOMIC CHARGES
----------------------
   0 C :   -0.011795
   1 O :   -0.001713
   2 H :   -0.000101
   3 H :   -0.000105
   4 H :   -0.000141
   5 H :   -0.017228
   6 C :   -0.354490
   7 O :   -0.060858
   8 H :    0.142630
   9 H :    0.098394
  10 H :    0.117102
  11 H :    0.088305

  Mayer bond orders larger than 0.1
B(  6-C ,  7-O ) :   0.9936 B(  6-C ,  9-H ) :   0.9699 B(  6-C , 10-H ) :   0.9783
B(  6-C , 11-H ) :   0.9763 B(  7-O ,  8-H ) :   0.9079

Dispersion correction           -0.000255492
FINAL SINGLE POINT ENERGY      -115.733888782749

DIPOLE MOMENT
-------------
                                X             Y             Z
Electronic contribution:      0.40914      -1.60391       0.54866
Nuclear contribution   :     -0.75407       2.10139      -0.17500
                        -----------------------------------------
Total Dipole Moment    :     -0.34493       0.49747       0.37366
                        -----------------------------------------
Magnitude (a.u.)       :      0.71139
Magnitude (Debye)      :      1.80820

Rotational constants in cm-1:     4.302602     0.803309     0.777092
Rotational constants in MHz : 128988.777827 24082.611632 23296.640853

                             ****ORCA TERMINATED NORMALLY****
TOTAL RUN TIME: 0 days 0 hours 1 minutes 4 seconds 180 msec
