                         Program Version 4.1.2  - RELEASE  -
|  1> #Run DFT-D3 single point of the dimer
|  2> ! wB97X-D3 def2-TZVP TIGHTSCF CHELPG PMODEL PAL8
|  3>
|  4> %base "15-100_DFT_AB"
|  5>
|  6> %scf
|  7> MaxIter 1000
|  8> end
|  9>
| 10> * xyz 0 1
| 11>   C                      -3.521737            -6.032928            -3.997539
| 12>   O                      -3.209134            -4.842496            -3.204906
| 13>   H                      -3.319984            -4.094860            -3.795784
| 14>   H                      -3.627151            -6.940647            -3.414398
| 15>   H                      -4.523750            -5.897630            -4.422226
| 16>   H                      -2.762533            -6.264531            -4.740990
| 17>   C                      -0.145492            -9.053850            -3.804364
| 18>   O                      -0.466797            -10.364534           -4.106128
| 19>   H                      0.295671             -10.843949           -4.484534
| 20>   H                      0.657148             -8.917143            -3.102344
| 21>   H                      0.162127             -8.366978            -4.569221
| 22>   H                      -0.952246            -8.517006            -3.237953
| 23> *
| 24>
| 25> #Run DFT-D3 single point of the molecule with dimer basis set
| 26> $new_job
| 27> %base "15-100_DFT_A"
| 28> ! wB97X-D3 def2-TZVP TIGHTSCF CHELPG PMODEL
| 29>
| 30> %scf
| 31> MaxIter 1000
| 32> end
| 33>
| 34> * xyz 0 1
| 35>   C                      -3.521737            -6.032928            -3.997539
| 36>   O                      -3.209134            -4.842496            -3.204906
| 37>   H                      -3.319984            -4.094860            -3.795784
| 38>   H                      -3.627151            -6.940647            -3.414398
| 39>   H                      -4.523750            -5.897630            -4.422226
| 40>   H                      -2.762533            -6.264531            -4.740990
| 41>   C                    : -0.145492            -9.053850            -3.804364
| 42>   O                    : -0.466797            -10.364534           -4.106128
| 43>   H                    : 0.295671             -10.843949           -4.484534
| 44>   H                    : 0.657148             -8.917143            -3.102344
| 45>   H                    : 0.162127             -8.366978            -4.569221
| 46>   H                    : -0.952246            -8.517006            -3.237953
| 47> *
| 48>
| 49> #Run DFT-D3 single point of the particle with dimer basis set
| 50> $new_job
| 51> %base "15-100_DFT_B"
| 52> ! wB97X-D3 def2-TZVP TIGHTSCF CHELPG PMODEL
| 53>
| 54> %scf
| 55> MaxIter 1000
| 56> end
| 57>
| 58> * xyz 0 1
| 59>   C                    : -3.521737            -6.032928            -3.997539
| 60>   O                    : -3.209134            -4.842496            -3.204906
| 61>   H                    : -3.319984            -4.094860            -3.795784
| 62>   H                    : -3.627151            -6.940647            -3.414398
| 63>   H                    : -4.523750            -5.897630            -4.422226
| 64>   H                    : -2.762533            -6.264531            -4.740990
| 65>   C                      -0.145492            -9.053850            -3.804364
| 66>   O                      -0.466797            -10.364534           -4.106128
| 67>   H                      0.295671             -10.843949           -4.484534
| 68>   H                      0.657148             -8.917143            -3.102344
| 69>   H                      0.162127             -8.366978            -4.569221
| 70>   H                      -0.952246            -8.517006            -3.237953
| 71> *
| 72>
| 73>                          ****END OF INPUT****
 Total Charge           Charge          ....    0
 Multiplicity           Mult            ....    1
 Number of Electrons    NEL             ....   36
Dispersion correction           -0.001092038
FINAL SINGLE POINT ENERGY      -231.462372102453
Dispersion correction           -0.000258880
FINAL SINGLE POINT ENERGY      -115.732605442116

CARTESIAN COORDINATES (ANGSTROEM)
---------------------------------
  C     -3.521737   -6.032928   -3.997539
  O     -3.209134   -4.842496   -3.204906
  H     -3.319984   -4.094860   -3.795784
  H     -3.627151   -6.940647   -3.414398
  H     -4.523750   -5.897630   -4.422226
  H     -2.762533   -6.264531   -4.740990
  C     -0.145492   -9.053850   -3.804364
  O     -0.466797  -10.364534   -4.106128
  H      0.295671  -10.843949   -4.484534
  H      0.657148   -8.917143   -3.102344
  H      0.162127   -8.366978   -4.569221
  H     -0.952246   -8.517006   -3.237953

 Multiplicity           Mult            ....    1
 Number of Electrons    NEL             ....   18
 Basis Dimension        Dim             ....  172

ORBITAL ENERGIES
----------------

  NO   OCC          E(Eh)            E(eV)
   0   2.0000     -19.237902      -523.4899
   1   2.0000     -10.308616      -280.5117
   2   2.0000      -1.143541       -31.1173
   3   2.0000      -0.800590       -21.7852
   4   2.0000      -0.626568       -17.0498
   5   2.0000      -0.537451       -14.6248
   6   2.0000      -0.527125       -14.3438
   7   2.0000      -0.427578       -11.6350
   8   2.0000      -0.374304       -10.1853
   9   0.0000       0.087401         2.3783
  10   0.0000       0.115784         3.1507
  11   0.0000       0.144299         3.9266
  12   0.0000       0.168074         4.5735
  13   0.0000       0.186205         5.0669

MULLIKEN ATOMIC CHARGES
-----------------------
   0 C :    0.000071
   1 O :    0.000006
   2 H :   -0.000000
   3 H :    0.000015
   4 H :   -0.000013
   5 H :   -0.000399
   6 C :   -0.167335
   7 O :   -0.470907
   8 H :    0.322491
   9 H :    0.097278
  10 H :    0.101694
  11 H :    0.117098
Sum of atomic charges:   -0.0000000

LOEWDIN ATOMIC CHARGES
----------------------
   0 C :   -0.001143
   1 O :   -0.000003
   2 H :   -0.000001
   3 H :   -0.000626
   4 H :   -0.000007
   5 H :   -0.000455
   6 C :   -0.424138
   7 O :   -0.052814
   8 H :    0.183868
   9 H :    0.089095
  10 H :    0.089019
  11 H :    0.117205

  Mayer bond orders larger than 0.1
B(  6-C ,  7-O ) :   1.0156 B(  6-C ,  9-H ) :   0.9762 B(  6-C , 10-H ) :   0.9700
B(  6-C , 11-H ) :   0.9737 B(  7-O ,  8-H ) :   0.8882

Dispersion correction           -0.000267823
FINAL SINGLE POINT ENERGY      -115.728863777484

DIPOLE MOMENT
-------------
                                X             Y             Z
Electronic contribution:     -0.58018      -1.90589      -0.53270
Nuclear contribution   :      1.21005       2.09404       0.41846
                        -----------------------------------------
Total Dipole Moment    :      0.62986       0.18815      -0.11424
                        -----------------------------------------
Magnitude (a.u.)       :      0.66722
Magnitude (Debye)      :      1.69593

Rotational constants in cm-1:     4.668697     0.836318     0.801388
Rotational constants in MHz : 139964.022702 25072.190236 24025.011524

                             ****ORCA TERMINATED NORMALLY****
TOTAL RUN TIME: 0 days 0 hours 0 minutes 54 seconds 700 msec
