                         Program Version 4.1.2  - RELEASE  -
|  1> #Run DFT-D3 single point of the dimer
|  2> ! wB97X-D3 def2-TZVP TIGHTSCF CHELPG PMODEL PAL8
|  3>
|  4> %base "8-14_DFT_AB"
|  5>
|  6> %scf
|  7> MaxIter 1000
|  8> end
|  9>
| 10> * xyz 0 1
| 11>   C                      -9.226378            6.819918             10.298666
| 12>   O                      -9.148091            8.189575             10.728169
| 13>   H                      -8.323087            8.375170             11.172389
| 14>   H                      -9.134527            6.692401             9.233474
| 15>   H                      -8.394565            6.254475             10.685698
| 16>   H                      -10.206823           6.394376             10.486377
| 17>   C                      -8.840297            8.814724             6.501456
| 18>   O                      -7.954014            9.171026             5.477478
| 19>   H                      -8.492395            9.392678             4.664628
| 20>   H                      -9.250221            7.827800             6.351113
| 21>   H                      -8.313511            8.686340             7.458050
| 22>   H                      -9.709657            9.457373             6.587159
| 23> *
| 24>
| 25> #Run DFT-D3 single point of the molecule with dimer basis set
| 26> $new_job
| 27> %base "8-14_DFT_A"
| 28> ! wB97X-D3 def2-TZVP TIGHTSCF CHELPG PMODEL
| 29>
| 30> %scf
| 31> MaxIter 1000
| 32> end
| 33>
| 34> * xyz 0 1
| 35>   C                      -9.226378            6.819918             10.298666
| 36>   O                      -9.148091            8.189575             10.728169
| 37>   H                      -8.323087            8.375170             11.172389
| 38>   H                      -9.134527            6.692401             9.233474
| 39>   H                      -8.394565            6.254475             10.685698
| 40>   H                      -10.206823           6.394376             10.486377
| 41>   C                    : -8.840297            8.814724             6.501456
| 42>   O                    : -7.954014            9.171026             5.477478
| 43>   H                    : -8.492395            9.392678             4.664628
| 44>   H                    : -9.250221            7.827800             6.351113
| 45>   H                    : -8.313511            8.686340             7.458050
| 46>   H                    : -9.709657            9.457373             6.587159
| 47> *
| 48>
| 49> #Run DFT-D3 single point of the particle with dimer basis set
| 50> $new_job
| 51> %base "8-14_DFT_B"
| 52> ! wB97X-D3 def2-TZVP TIGHTSCF CHELPG PMODEL
| 53>
| 54> %scf
| 55> MaxIter 1000
| 56> end
| 57>
| 58> * xyz 0 1
| 59>   C                    : -9.226378            6.819918             10.298666
| 60>   O                    : -9.148091            8.189575             10.728169
| 61>   H                    : -8.323087            8.375170             11.172389
| 62>   H                    : -9.134527            6.692401             9.233474
| 63>   H                    : -8.394565            6.254475             10.685698
| 64>   H                    : -10.206823           6.394376             10.486377
| 65>   C                      -8.840297            8.814724             6.501456
| 66>   O                      -7.954014            9.171026             5.477478
| 67>   H                      -8.492395            9.392678             4.664628
| 68>   H                      -9.250221            7.827800             6.351113
| 69>   H                      -8.313511            8.686340             7.458050
| 70>   H                      -9.709657            9.457373             6.587159
| 71> *
| 72>
| 73>                          ****END OF INPUT****
 Total Charge           Charge          ....    0
 Multiplicity           Mult            ....    1
 Number of Electrons    NEL             ....   36
Dispersion correction           -0.001303909
FINAL SINGLE POINT ENERGY      -231.465948947349
Dispersion correction           -0.000261324
FINAL SINGLE POINT ENERGY      -115.731816736935

CARTESIAN COORDINATES (ANGSTROEM)
---------------------------------
  C     -9.226378    6.819918   10.298666
  O     -9.148091    8.189575   10.728169
  H     -8.323087    8.375170   11.172389
  H     -9.134527    6.692401    9.233474
  H     -8.394565    6.254475   10.685698
  H    -10.206823    6.394376   10.486377
  C     -8.840297    8.814724    6.501456
  O     -7.954014    9.171026    5.477478
  H     -8.492395    9.392678    4.664628
  H     -9.250221    7.827800    6.351113
  H     -8.313511    8.686340    7.458050
  H     -9.709657    9.457373    6.587159

 Multiplicity           Mult            ....    1
 Number of Electrons    NEL             ....   18
 Basis Dimension        Dim             ....  172

ORBITAL ENERGIES
----------------

  NO   OCC          E(Eh)            E(eV)
   0   2.0000     -19.234760      -523.4044
   1   2.0000     -10.308948      -280.5207
   2   2.0000      -1.133615       -30.8472
   3   2.0000      -0.794080       -21.6080
   4   2.0000      -0.612569       -16.6688
   5   2.0000      -0.540732       -14.7141
   6   2.0000      -0.526051       -14.3146
   7   2.0000      -0.435380       -11.8473
   8   2.0000      -0.369704       -10.0602
   9   0.0000       0.084285         2.2935
  10   0.0000       0.111060         3.0221
  11   0.0000       0.153164         4.1678
  12   0.0000       0.159748         4.3470
  13   0.0000       0.190436         5.1820

MULLIKEN ATOMIC CHARGES
-----------------------
   0 C :    0.000733
   1 O :   -0.000021
   2 H :   -0.000050
   3 H :   -0.001674
   4 H :    0.000003
   5 H :   -0.000079
   6 C :   -0.155471
   7 O :   -0.474195
   8 H :    0.318130
   9 H :    0.094046
  10 H :    0.118697
  11 H :    0.099881
Sum of atomic charges:   -0.0000000

LOEWDIN ATOMIC CHARGES
----------------------
   0 C :   -0.001208
   1 O :   -0.000200
   2 H :   -0.000075
   3 H :   -0.001413
   4 H :   -0.000010
   5 H :   -0.000009
   6 C :   -0.401848
   7 O :   -0.082858
   8 H :    0.194119
   9 H :    0.090010
  10 H :    0.111392
  11 H :    0.092100

  Mayer bond orders larger than 0.1
B(  6-C ,  7-O ) :   1.0057 B(  6-C ,  9-H ) :   0.9776 B(  6-C , 10-H ) :   0.9737
B(  6-C , 11-H ) :   0.9752 B(  7-O ,  8-H ) :   0.8910

Dispersion correction           -0.000240691
FINAL SINGLE POINT ENERGY      -115.732906291562

DIPOLE MOMENT
-------------
                                X             Y             Z
Electronic contribution:      1.30280       0.56610      -1.24774
Nuclear contribution   :     -1.98576      -0.57869       1.13665
                        -----------------------------------------
Total Dipole Moment    :     -0.68296      -0.01259      -0.11108
                        -----------------------------------------
Magnitude (a.u.)       :      0.69205
Magnitude (Debye)      :      1.75906

Rotational constants in cm-1:     4.347579     0.842885     0.800992
Rotational constants in MHz : 130337.125617 25269.061020 24013.126240

                             ****ORCA TERMINATED NORMALLY****
TOTAL RUN TIME: 0 days 0 hours 0 minutes 41 seconds 915 msec
