                         Program Version 4.1.2  - RELEASE  -
|  1> #Run DFT-D3 single point of the dimer
|  2> ! wB97X-D3 def2-TZVP TIGHTSCF CHELPG PMODEL PAL8
|  3>
|  4> %base "19-149_DFT_AB"
|  5>
|  6> %scf
|  7> MaxIter 1000
|  8> end
|  9>
| 10> * xyz 0 1
| 11>   C                      4.624367             -2.918903            -10.400656
| 12>   O                      4.666448             -4.346803            -10.500811
| 13>   H                      5.472379             -4.610358            -10.966111
| 14>   H                      5.131493             -2.599970            -9.510842
| 15>   H                      5.226740             -2.416390            -11.246797
| 16>   H                      3.548281             -2.575049            -10.400635
| 17>   C                      3.148017             -4.071481            -7.203145
| 18>   O                      4.198127             -4.963453            -7.655729
| 19>   H                      4.425559             -4.809309            -8.546313
| 20>   H                      2.432921             -4.641483            -6.612205
| 21>   H                      3.665549             -3.264366            -6.604897
| 22>   H                      2.568764             -3.566599            -8.053060
| 23> *
| 24>
| 25> #Run DFT-D3 single point of the molecule with dimer basis set
| 26> $new_job
| 27> %base "19-149_DFT_A"
| 28> ! wB97X-D3 def2-TZVP TIGHTSCF CHELPG PMODEL
| 29>
| 30> %scf
| 31> MaxIter 1000
| 32> end
| 33>
| 34> * xyz 0 1
| 35>   C                      4.624367             -2.918903            -10.400656
| 36>   O                      4.666448             -4.346803            -10.500811
| 37>   H                      5.472379             -4.610358            -10.966111
| 38>   H                      5.131493             -2.599970            -9.510842
| 39>   H                      5.226740             -2.416390            -11.246797
| 40>   H                      3.548281             -2.575049            -10.400635
| 41>   C                    : 3.148017             -4.071481            -7.203145
| 42>   O                    : 4.198127             -4.963453            -7.655729
| 43>   H                    : 4.425559             -4.809309            -8.546313
| 44>   H                    : 2.432921             -4.641483            -6.612205
| 45>   H                    : 3.665549             -3.264366            -6.604897
| 46>   H                    : 2.568764             -3.566599            -8.053060
| 47> *
| 48>
| 49> #Run DFT-D3 single point of the particle with dimer basis set
| 50> $new_job
| 51> %base "19-149_DFT_B"
| 52> ! wB97X-D3 def2-TZVP TIGHTSCF CHELPG PMODEL
| 53>
| 54> %scf
| 55> MaxIter 1000
| 56> end
| 57>
| 58> * xyz 0 1
| 59>   C                    : 4.624367             -2.918903            -10.400656
| 60>   O                    : 4.666448             -4.346803            -10.500811
| 61>   H                    : 5.472379             -4.610358            -10.966111
| 62>   H                    : 5.131493             -2.599970            -9.510842
| 63>   H                    : 5.226740             -2.416390            -11.246797
| 64>   H                    : 3.548281             -2.575049            -10.400635
| 65>   C                      3.148017             -4.071481            -7.203145
| 66>   O                      4.198127             -4.963453            -7.655729
| 67>   H                      4.425559             -4.809309            -8.546313
| 68>   H                      2.432921             -4.641483            -6.612205
| 69>   H                      3.665549             -3.264366            -6.604897
| 70>   H                      2.568764             -3.566599            -8.053060
| 71> *
| 72>
| 73>                          ****END OF INPUT****
 Total Charge           Charge          ....    0
 Multiplicity           Mult            ....    1
 Number of Electrons    NEL             ....   36
Dispersion correction           -0.002222300
FINAL SINGLE POINT ENERGY      -231.471986802042
Dispersion correction           -0.000259196
FINAL SINGLE POINT ENERGY      -115.732563926681

CARTESIAN COORDINATES (ANGSTROEM)
---------------------------------
  C      4.624367   -2.918903  -10.400656
  O      4.666448   -4.346803  -10.500811
  H      5.472379   -4.610358  -10.966111
  H      5.131493   -2.599970   -9.510842
  H      5.226740   -2.416390  -11.246797
  H      3.548281   -2.575049  -10.400635
  C      3.148017   -4.071481   -7.203145
  O      4.198127   -4.963453   -7.655729
  H      4.425559   -4.809309   -8.546313
  H      2.432921   -4.641483   -6.612205
  H      3.665549   -3.264366   -6.604897
  H      2.568764   -3.566599   -8.053060

 Multiplicity           Mult            ....    1
 Number of Electrons    NEL             ....   18
 Basis Dimension        Dim             ....  172

ORBITAL ENERGIES
----------------

  NO   OCC          E(Eh)            E(eV)
   0   2.0000     -19.225723      -523.1585
   1   2.0000     -10.326309      -280.9931
   2   2.0000      -1.128722       -30.7141
   3   2.0000      -0.794618       -21.6227
   4   2.0000      -0.605320       -16.4716
   5   2.0000      -0.540479       -14.7072
   6   2.0000      -0.516688       -14.0598
   7   2.0000      -0.432069       -11.7572
   8   2.0000      -0.374156       -10.1813
   9   0.0000       0.070214         1.9106
  10   0.0000       0.135359         3.6833
  11   0.0000       0.146637         3.9902
  12   0.0000       0.169388         4.6093
  13   0.0000       0.176479         4.8023

MULLIKEN ATOMIC CHARGES
-----------------------
   0 C :   -0.004015
   1 O :   -0.002302
   2 H :   -0.000176
   3 H :   -0.001808
   4 H :   -0.000283
   5 H :   -0.000096
   6 C :   -0.171644
   7 O :   -0.481231
   8 H :    0.311134
   9 H :    0.128600
  10 H :    0.115390
  11 H :    0.106433
Sum of atomic charges:    0.0000000

LOEWDIN ATOMIC CHARGES
----------------------
   0 C :   -0.010087
   1 O :   -0.014435
   2 H :   -0.000888
   3 H :   -0.002258
   4 H :   -0.000111
   5 H :   -0.001477
   6 C :   -0.359263
   7 O :   -0.080140
   8 H :    0.151092
   9 H :    0.103023
  10 H :    0.107526
  11 H :    0.107018

  Mayer bond orders larger than 0.1
B(  6-C ,  7-O ) :   0.9698 B(  6-C ,  9-H ) :   0.9730 B(  6-C , 10-H ) :   0.9777
B(  6-C , 11-H ) :   0.9727 B(  7-O ,  8-H ) :   0.9148

Dispersion correction           -0.000276373
FINAL SINGLE POINT ENERGY      -115.731873659118

DIPOLE MOMENT
-------------
                                X             Y             Z
Electronic contribution:      1.24630      -1.20530      -0.42104
Nuclear contribution   :     -1.54947       1.66817       0.02184
                        -----------------------------------------
Total Dipole Moment    :     -0.30317       0.46286      -0.39920
                        -----------------------------------------
Magnitude (a.u.)       :      0.68229
Magnitude (Debye)      :      1.73424

Rotational constants in cm-1:     4.150095     0.790803     0.769531
Rotational constants in MHz : 124416.731717 23707.679323 23069.954072

                             ****ORCA TERMINATED NORMALLY****
TOTAL RUN TIME: 0 days 0 hours 1 minutes 45 seconds 213 msec
