                         Program Version 4.1.2  - RELEASE  -
|  1> #Run DFT-D3 single point of the dimer
|  2> ! wB97X-D3 def2-TZVP TIGHTSCF CHELPG PMODEL PAL8
|  3>
|  4> %base "22-2_DFT_AB"
|  5>
|  6> %scf
|  7> MaxIter 1000
|  8> end
|  9>
| 10> * xyz 0 1
| 11>   C                      -3.366488            1.354718             8.299496
| 12>   O                      -2.747762            2.580068             8.513952
| 13>   H                      -2.097212            2.607204             7.804503
| 14>   H                      -3.091532            0.606645             9.087924
| 15>   H                      -4.464560            1.385830             8.357553
| 16>   H                      -3.098089            0.935276             7.304372
| 17>   C                      -7.213626            3.384994             10.819294
| 18>   O                      -6.871393            4.171338             11.892406
| 19>   H                      -6.898183            3.456101             12.542300
| 20>   H                      -6.335732            2.906768             10.264594
| 21>   H                      -7.908215            2.573688             11.116931
| 22>   H                      -7.828782            3.967057             10.125404
| 23> *
| 24>
| 25> #Run DFT-D3 single point of the molecule with dimer basis set
| 26> $new_job
| 27> %base "22-2_DFT_A"
| 28> ! wB97X-D3 def2-TZVP TIGHTSCF CHELPG PMODEL
| 29>
| 30> %scf
| 31> MaxIter 1000
| 32> end
| 33>
| 34> * xyz 0 1
| 35>   C                      -3.366488            1.354718             8.299496
| 36>   O                      -2.747762            2.580068             8.513952
| 37>   H                      -2.097212            2.607204             7.804503
| 38>   H                      -3.091532            0.606645             9.087924
| 39>   H                      -4.464560            1.385830             8.357553
| 40>   H                      -3.098089            0.935276             7.304372
| 41>   C                    : -7.213626            3.384994             10.819294
| 42>   O                    : -6.871393            4.171338             11.892406
| 43>   H                    : -6.898183            3.456101             12.542300
| 44>   H                    : -6.335732            2.906768             10.264594
| 45>   H                    : -7.908215            2.573688             11.116931
| 46>   H                    : -7.828782            3.967057             10.125404
| 47> *
| 48>
| 49> #Run DFT-D3 single point of the particle with dimer basis set
| 50> $new_job
| 51> %base "22-2_DFT_B"
| 52> ! wB97X-D3 def2-TZVP TIGHTSCF CHELPG PMODEL
| 53>
| 54> %scf
| 55> MaxIter 1000
| 56> end
| 57>
| 58> * xyz 0 1
| 59>   C                    : -3.366488            1.354718             8.299496
| 60>   O                    : -2.747762            2.580068             8.513952
| 61>   H                    : -2.097212            2.607204             7.804503
| 62>   H                    : -3.091532            0.606645             9.087924
| 63>   H                    : -4.464560            1.385830             8.357553
| 64>   H                    : -3.098089            0.935276             7.304372
| 65>   C                      -7.213626            3.384994             10.819294
| 66>   O                      -6.871393            4.171338             11.892406
| 67>   H                      -6.898183            3.456101             12.542300
| 68>   H                      -6.335732            2.906768             10.264594
| 69>   H                      -7.908215            2.573688             11.116931
| 70>   H                      -7.828782            3.967057             10.125404
| 71> *
| 72>
| 73>                          ****END OF INPUT****
 Total Charge           Charge          ....    0
 Multiplicity           Mult            ....    1
 Number of Electrons    NEL             ....   36
Dispersion correction           -0.000830592
FINAL SINGLE POINT ENERGY      -231.459579074755
Dispersion correction           -0.000239875
FINAL SINGLE POINT ENERGY      -115.732541207675

CARTESIAN COORDINATES (ANGSTROEM)
---------------------------------
  C     -3.366488    1.354718    8.299496
  O     -2.747762    2.580068    8.513952
  H     -2.097212    2.607204    7.804503
  H     -3.091532    0.606645    9.087924
  H     -4.464560    1.385830    8.357553
  H     -3.098089    0.935276    7.304372
  C     -7.213626    3.384994   10.819294
  O     -6.871393    4.171338   11.892406
  H     -6.898183    3.456101   12.542300
  H     -6.335732    2.906768   10.264594
  H     -7.908215    2.573688   11.116931
  H     -7.828782    3.967057   10.125404

 Multiplicity           Mult            ....    1
 Number of Electrons    NEL             ....   18
 Basis Dimension        Dim             ....  172

ORBITAL ENERGIES
----------------

  NO   OCC          E(Eh)            E(eV)
   0   2.0000     -19.236990      -523.4651
   1   2.0000     -10.317454      -280.7522
   2   2.0000      -1.160291       -31.5731
   3   2.0000      -0.783232       -21.3128
   4   2.0000      -0.619768       -16.8648
   5   2.0000      -0.547275       -14.8921
   6   2.0000      -0.529365       -14.4047
   7   2.0000      -0.436389       -11.8747
   8   2.0000      -0.375327       -10.2132
   9   0.0000       0.085188         2.3181
  10   0.0000       0.111293         3.0284
  11   0.0000       0.148113         4.0304
  12   0.0000       0.171652         4.6709
  13   0.0000       0.182689         4.9712

MULLIKEN ATOMIC CHARGES
-----------------------
   0 C :    0.000574
   1 O :   -0.000070
   2 H :   -0.000006
   3 H :   -0.000100
   4 H :   -0.000788
   5 H :   -0.000003
   6 C :   -0.182973
   7 O :   -0.440341
   8 H :    0.320147
   9 H :    0.094593
  10 H :    0.098038
  11 H :    0.110929
Sum of atomic charges:   -0.0000000

LOEWDIN ATOMIC CHARGES
----------------------
   0 C :   -0.000655
   1 O :   -0.000017
   2 H :   -0.000002
   3 H :   -0.000018
   4 H :   -0.001121
   5 H :   -0.000004
   6 C :   -0.439540
   7 O :   -0.045264
   8 H :    0.186598
   9 H :    0.100997
  10 H :    0.095938
  11 H :    0.103089

  Mayer bond orders larger than 0.1
B(  6-C ,  7-O ) :   1.0132 B(  6-C ,  9-H ) :   0.9638 B(  6-C , 10-H ) :   0.9882
B(  6-C , 11-H ) :   0.9750 B(  7-O ,  8-H ) :   0.9011

Dispersion correction           -0.000215470
FINAL SINGLE POINT ENERGY      -115.726948092549

DIPOLE MOMENT
-------------
                                X             Y             Z
Electronic contribution:      0.56056       1.29195       1.41754
Nuclear contribution   :     -0.73415      -1.98921      -1.37001
                        -----------------------------------------
Total Dipole Moment    :     -0.17359      -0.69726       0.04754
                        -----------------------------------------
Magnitude (a.u.)       :      0.72011
Magnitude (Debye)      :      1.83037

Rotational constants in cm-1:     4.113653     0.873069     0.846840
Rotational constants in MHz : 123324.222020 26173.936130 25387.615623

                             ****ORCA TERMINATED NORMALLY****
TOTAL RUN TIME: 0 days 0 hours 0 minutes 55 seconds 371 msec
