                         Program Version 4.1.2  - RELEASE  -
|  1> #Run DFT-D3 single point of the dimer
|  2> ! wB97X-D3 def2-TZVP TIGHTSCF CHELPG PMODEL PAL8
|  3>
|  4> %base "10-157_DFT_AB"
|  5>
|  6> %scf
|  7> MaxIter 1000
|  8> end
|  9>
| 10> * xyz 0 1
| 11>   C                      -1.254803            10.259718            8.191492
| 12>   O                      -1.791641            9.454562             9.164263
| 13>   H                      -1.390613            9.717482             10.006201
| 14>   H                      -0.158954            10.203540            8.067924
| 15>   H                      -1.688238            10.030808            7.243099
| 16>   H                      -1.553373            11.312933            8.388703
| 17>   C                      -0.316782            6.480354             7.339445
| 18>   O                      -0.796057            6.418190             8.705326
| 19>   H                      -1.159090            7.322164             8.853414
| 20>   H                      0.790307             6.282609             7.339717
| 21>   H                      -0.731684            5.736807             6.688300
| 22>   H                      -0.368554            7.499129             6.910109
| 23> *
| 24>
| 25> #Run DFT-D3 single point of the molecule with dimer basis set
| 26> $new_job
| 27> %base "10-157_DFT_A"
| 28> ! wB97X-D3 def2-TZVP TIGHTSCF CHELPG PMODEL
| 29>
| 30> %scf
| 31> MaxIter 1000
| 32> end
| 33>
| 34> * xyz 0 1
| 35>   C                      -1.254803            10.259718            8.191492
| 36>   O                      -1.791641            9.454562             9.164263
| 37>   H                      -1.390613            9.717482             10.006201
| 38>   H                      -0.158954            10.203540            8.067924
| 39>   H                      -1.688238            10.030808            7.243099
| 40>   H                      -1.553373            11.312933            8.388703
| 41>   C                    : -0.316782            6.480354             7.339445
| 42>   O                    : -0.796057            6.418190             8.705326
| 43>   H                    : -1.159090            7.322164             8.853414
| 44>   H                    : 0.790307             6.282609             7.339717
| 45>   H                    : -0.731684            5.736807             6.688300
| 46>   H                    : -0.368554            7.499129             6.910109
| 47> *
| 48>
| 49> #Run DFT-D3 single point of the particle with dimer basis set
| 50> $new_job
| 51> %base "10-157_DFT_B"
| 52> ! wB97X-D3 def2-TZVP TIGHTSCF CHELPG PMODEL
| 53>
| 54> %scf
| 55> MaxIter 1000
| 56> end
| 57>
| 58> * xyz 0 1
| 59>   C                    : -1.254803            10.259718            8.191492
| 60>   O                    : -1.791641            9.454562             9.164263
| 61>   H                    : -1.390613            9.717482             10.006201
| 62>   H                    : -0.158954            10.203540            8.067924
| 63>   H                    : -1.688238            10.030808            7.243099
| 64>   H                    : -1.553373            11.312933            8.388703
| 65>   C                      -0.316782            6.480354             7.339445
| 66>   O                      -0.796057            6.418190             8.705326
| 67>   H                      -1.159090            7.322164             8.853414
| 68>   H                      0.790307             6.282609             7.339717
| 69>   H                      -0.731684            5.736807             6.688300
| 70>   H                      -0.368554            7.499129             6.910109
| 71> *
| 72>
| 73>                          ****END OF INPUT****
 Total Charge           Charge          ....    0
 Multiplicity           Mult            ....    1
 Number of Electrons    NEL             ....   36
Dispersion correction           -0.001973908
FINAL SINGLE POINT ENERGY      -231.473585646128
Dispersion correction           -0.000224892
FINAL SINGLE POINT ENERGY      -115.735146440840

CARTESIAN COORDINATES (ANGSTROEM)
---------------------------------
  C     -1.254803   10.259718    8.191492
  O     -1.791641    9.454562    9.164263
  H     -1.390613    9.717482   10.006201
  H     -0.158954   10.203540    8.067924
  H     -1.688238   10.030808    7.243099
  H     -1.553373   11.312933    8.388703
  C     -0.316782    6.480354    7.339445
  O     -0.796057    6.418190    8.705326
  H     -1.159090    7.322164    8.853414
  H      0.790307    6.282609    7.339717
  H     -0.731684    5.736807    6.688300
  H     -0.368554    7.499129    6.910109

 Multiplicity           Mult            ....    1
 Number of Electrons    NEL             ....   18
 Basis Dimension        Dim             ....  172

ORBITAL ENERGIES
----------------

  NO   OCC          E(Eh)            E(eV)
   0   2.0000     -19.236091      -523.4407
   1   2.0000     -10.318265      -280.7743
   2   2.0000      -1.125211       -30.6186
   3   2.0000      -0.792839       -21.5743
   4   2.0000      -0.603041       -16.4096
   5   2.0000      -0.538657       -14.6576
   6   2.0000      -0.518448       -14.1077
   7   2.0000      -0.441428       -12.0119
   8   2.0000      -0.374078       -10.1792
   9   0.0000       0.065075         1.7708
  10   0.0000       0.134291         3.6542
  11   0.0000       0.139027         3.7831
  12   0.0000       0.170517         4.6400
  13   0.0000       0.184835         5.0296

MULLIKEN ATOMIC CHARGES
-----------------------
   0 C :   -0.003428
   1 O :    0.000128
   2 H :   -0.000141
   3 H :    0.000370
   4 H :    0.000094
   5 H :   -0.000052
   6 C :   -0.189160
   7 O :   -0.465410
   8 H :    0.314575
   9 H :    0.108999
  10 H :    0.122307
  11 H :    0.111719
Sum of atomic charges:    0.0000000

LOEWDIN ATOMIC CHARGES
----------------------
   0 C :   -0.005375
   1 O :   -0.008466
   2 H :   -0.001046
   3 H :   -0.000560
   4 H :   -0.000809
   5 H :   -0.000065
   6 C :   -0.369177
   7 O :   -0.105479
   8 H :    0.187687
   9 H :    0.106448
  10 H :    0.095184
  11 H :    0.101660

  Mayer bond orders larger than 0.1
B(  6-C ,  7-O ) :   0.9997 B(  6-C ,  9-H ) :   0.9759 B(  6-C , 10-H ) :   0.9737
B(  6-C , 11-H ) :   0.9769 B(  7-O ,  8-H ) :   0.9083

Dispersion correction           -0.000265145
FINAL SINGLE POINT ENERGY      -115.730892338442

DIPOLE MOMENT
-------------
                                X             Y             Z
Electronic contribution:     -0.75614      -0.27532       1.73486
Nuclear contribution   :      0.72902       0.86953      -2.19371
                        -----------------------------------------
Total Dipole Moment    :     -0.02712       0.59420      -0.45885
                        -----------------------------------------
Magnitude (a.u.)       :      0.75124
Magnitude (Debye)      :      1.90949

Rotational constants in cm-1:     4.214118     0.799283     0.765745
Rotational constants in MHz : 126336.075050 23961.888389 22956.471866

                             ****ORCA TERMINATED NORMALLY****
TOTAL RUN TIME: 0 days 0 hours 1 minutes 6 seconds 157 msec
