                         Program Version 4.1.2  - RELEASE  -
|  1> #Run DFT-D3 single point of the dimer
|  2> ! wB97X-D3 def2-TZVP TIGHTSCF CHELPG PMODEL PAL8
|  3>
|  4> %base "17-133_DFT_AB"
|  5>
|  6> %scf
|  7> MaxIter 1000
|  8> end
|  9>
| 10> * xyz 0 1
| 11>   C                      7.325339             5.251497             0.133177
| 12>   O                      6.504811             4.108082             0.081789
| 13>   H                      5.631289             4.365463             -0.281375
| 14>   H                      8.367817             5.088402             0.117534
| 15>   H                      7.009722             5.937494             -0.695289
| 16>   H                      6.979847             5.774637             1.076056
| 17>   C                      8.235340             8.821451             -2.245751
| 18>   O                      8.494879             7.507418             -1.816378
| 19>   H                      9.430188             7.548700             -1.544468
| 20>   H                      8.709518             9.197691             -3.134328
| 21>   H                      7.129239             8.888882             -2.486787
| 22>   H                      8.454446             9.556951             -1.442571
| 23> *
| 24>
| 25> #Run DFT-D3 single point of the molecule with dimer basis set
| 26> $new_job
| 27> %base "17-133_DFT_A"
| 28> ! wB97X-D3 def2-TZVP TIGHTSCF CHELPG PMODEL
| 29>
| 30> %scf
| 31> MaxIter 1000
| 32> end
| 33>
| 34> * xyz 0 1
| 35>   C                      7.325339             5.251497             0.133177
| 36>   O                      6.504811             4.108082             0.081789
| 37>   H                      5.631289             4.365463             -0.281375
| 38>   H                      8.367817             5.088402             0.117534
| 39>   H                      7.009722             5.937494             -0.695289
| 40>   H                      6.979847             5.774637             1.076056
| 41>   C                    : 8.235340             8.821451             -2.245751
| 42>   O                    : 8.494879             7.507418             -1.816378
| 43>   H                    : 9.430188             7.548700             -1.544468
| 44>   H                    : 8.709518             9.197691             -3.134328
| 45>   H                    : 7.129239             8.888882             -2.486787
| 46>   H                    : 8.454446             9.556951             -1.442571
| 47> *
| 48>
| 49> #Run DFT-D3 single point of the particle with dimer basis set
| 50> $new_job
| 51> %base "17-133_DFT_B"
| 52> ! wB97X-D3 def2-TZVP TIGHTSCF CHELPG PMODEL
| 53>
| 54> %scf
| 55> MaxIter 1000
| 56> end
| 57>
| 58> * xyz 0 1
| 59>   C                    : 7.325339             5.251497             0.133177
| 60>   O                    : 6.504811             4.108082             0.081789
| 61>   H                    : 5.631289             4.365463             -0.281375
| 62>   H                    : 8.367817             5.088402             0.117534
| 63>   H                    : 7.009722             5.937494             -0.695289
| 64>   H                    : 6.979847             5.774637             1.076056
| 65>   C                      8.235340             8.821451             -2.245751
| 66>   O                      8.494879             7.507418             -1.816378
| 67>   H                      9.430188             7.548700             -1.544468
| 68>   H                      8.709518             9.197691             -3.134328
| 69>   H                      7.129239             8.888882             -2.486787
| 70>   H                      8.454446             9.556951             -1.442571
| 71> *
| 72>
| 73>                          ****END OF INPUT****
 Total Charge           Charge          ....    0
 Multiplicity           Mult            ....    1
 Number of Electrons    NEL             ....   36
Dispersion correction           -0.001512326
FINAL SINGLE POINT ENERGY      -231.461933426530
Dispersion correction           -0.000221473
FINAL SINGLE POINT ENERGY      -115.728322681165

CARTESIAN COORDINATES (ANGSTROEM)
---------------------------------
  C      7.325339    5.251497    0.133177
  O      6.504811    4.108082    0.081789
  H      5.631289    4.365463   -0.281375
  H      8.367817    5.088402    0.117534
  H      7.009722    5.937494   -0.695289
  H      6.979847    5.774637    1.076056
  C      8.235340    8.821451   -2.245751
  O      8.494879    7.507418   -1.816378
  H      9.430188    7.548700   -1.544468
  H      8.709518    9.197691   -3.134328
  H      7.129239    8.888882   -2.486787
  H      8.454446    9.556951   -1.442571

 Multiplicity           Mult            ....    1
 Number of Electrons    NEL             ....   18
 Basis Dimension        Dim             ....  172

ORBITAL ENERGIES
----------------

  NO   OCC          E(Eh)            E(eV)
   0   2.0000     -19.238520      -523.5068
   1   2.0000     -10.315951      -280.7113
   2   2.0000      -1.142081       -31.0776
   3   2.0000      -0.790855       -21.5202
   4   2.0000      -0.614181       -16.7127
   5   2.0000      -0.542606       -14.7651
   6   2.0000      -0.521139       -14.1809
   7   2.0000      -0.437543       -11.9061
   8   2.0000      -0.376814       -10.2536
   9   0.0000       0.096796         2.6340
  10   0.0000       0.121923         3.3177
  11   0.0000       0.149364         4.0644
  12   0.0000       0.183408         4.9908
  13   0.0000       0.192140         5.2284

MULLIKEN ATOMIC CHARGES
-----------------------
   0 C :    0.001562
   1 O :   -0.000212
   2 H :   -0.000041
   3 H :   -0.002288
   4 H :   -0.007030
   5 H :   -0.000486
   6 C :   -0.177910
   7 O :   -0.447700
   8 H :    0.313755
   9 H :    0.102790
  10 H :    0.115771
  11 H :    0.101790
Sum of atomic charges:   -0.0000000

LOEWDIN ATOMIC CHARGES
----------------------
   0 C :   -0.013046
   1 O :   -0.000062
   2 H :   -0.000010
   3 H :   -0.001478
   4 H :   -0.012408
   5 H :   -0.000279
   6 C :   -0.407035
   7 O :   -0.049943
   8 H :    0.182285
   9 H :    0.088493
  10 H :    0.116883
  11 H :    0.096601

  Mayer bond orders larger than 0.1
B(  6-C ,  7-O ) :   1.0063 B(  6-C ,  9-H ) :   0.9603 B(  6-C , 10-H ) :   0.9784
B(  6-C , 11-H ) :   0.9787 B(  7-O ,  8-H ) :   0.8976

Dispersion correction           -0.000244419
FINAL SINGLE POINT ENERGY      -115.733068373495

DIPOLE MOMENT
-------------
                                X             Y             Z
Electronic contribution:      0.32765      -1.85262       0.48292
Nuclear contribution   :      0.15660       2.37577      -0.49412
                        -----------------------------------------
Total Dipole Moment    :      0.48425       0.52316      -0.01120
                        -----------------------------------------
Magnitude (a.u.)       :      0.71296
Magnitude (Debye)      :      1.81220

Rotational constants in cm-1:     4.242720     0.836799     0.799121
Rotational constants in MHz : 127193.551641 25086.605073 23957.052032

                             ****ORCA TERMINATED NORMALLY****
TOTAL RUN TIME: 0 days 0 hours 1 minutes 13 seconds 512 msec
