                         Program Version 4.1.2  - RELEASE  -
|  1> #Run DFT-D3 single point of the dimer
|  2> ! wB97X-D3 def2-TZVP TIGHTSCF CHELPG PMODEL PAL8
|  3>
|  4> %base "8-51_DFT_AB"
|  5>
|  6> %scf
|  7> MaxIter 1000
|  8> end
|  9>
| 10> * xyz 0 1
| 11>   C                      10.151555            8.697992             -2.113844
| 12>   O                      8.907114             8.041381             -1.854696
| 13>   H                      8.176294             8.540252             -2.215552
| 14>   H                      10.937525            7.939530             -1.949895
| 15>   H                      10.135819            9.106653             -3.162596
| 16>   H                      10.323929            9.538655             -1.477755
| 17>   C                      6.278651             9.131592             0.310008
| 18>   O                      4.981540             8.722451             -0.021591
| 19>   H                      4.399282             9.081503             0.703388
| 20>   H                      6.369270             9.393353             1.328500
| 21>   H                      7.022365             8.378398             0.114698
| 22>   H                      6.562119             10.081628            -0.112263
| 23> *
| 24>
| 25> #Run DFT-D3 single point of the molecule with dimer basis set
| 26> $new_job
| 27> %base "8-51_DFT_A"
| 28> ! wB97X-D3 def2-TZVP TIGHTSCF CHELPG PMODEL
| 29>
| 30> %scf
| 31> MaxIter 1000
| 32> end
| 33>
| 34> * xyz 0 1
| 35>   C                      10.151555            8.697992             -2.113844
| 36>   O                      8.907114             8.041381             -1.854696
| 37>   H                      8.176294             8.540252             -2.215552
| 38>   H                      10.937525            7.939530             -1.949895
| 39>   H                      10.135819            9.106653             -3.162596
| 40>   H                      10.323929            9.538655             -1.477755
| 41>   C                    : 6.278651             9.131592             0.310008
| 42>   O                    : 4.981540             8.722451             -0.021591
| 43>   H                    : 4.399282             9.081503             0.703388
| 44>   H                    : 6.369270             9.393353             1.328500
| 45>   H                    : 7.022365             8.378398             0.114698
| 46>   H                    : 6.562119             10.081628            -0.112263
| 47> *
| 48>
| 49> #Run DFT-D3 single point of the particle with dimer basis set
| 50> $new_job
| 51> %base "8-51_DFT_B"
| 52> ! wB97X-D3 def2-TZVP TIGHTSCF CHELPG PMODEL
| 53>
| 54> %scf
| 55> MaxIter 1000
| 56> end
| 57>
| 58> * xyz 0 1
| 59>   C                    : 10.151555            8.697992             -2.113844
| 60>   O                    : 8.907114             8.041381             -1.854696
| 61>   H                    : 8.176294             8.540252             -2.215552
| 62>   H                    : 10.937525            7.939530             -1.949895
| 63>   H                    : 10.135819            9.106653             -3.162596
| 64>   H                    : 10.323929            9.538655             -1.477755
| 65>   C                      6.278651             9.131592             0.310008
| 66>   O                      4.981540             8.722451             -0.021591
| 67>   H                      4.399282             9.081503             0.703388
| 68>   H                      6.369270             9.393353             1.328500
| 69>   H                      7.022365             8.378398             0.114698
| 70>   H                      6.562119             10.081628            -0.112263
| 71> *
| 72>
| 73>                          ****END OF INPUT****
 Total Charge           Charge          ....    0
 Multiplicity           Mult            ....    1
 Number of Electrons    NEL             ....   36
Dispersion correction           -0.001429635
FINAL SINGLE POINT ENERGY      -231.466268187297
Dispersion correction           -0.000247146
FINAL SINGLE POINT ENERGY      -115.735198189701

CARTESIAN COORDINATES (ANGSTROEM)
---------------------------------
  C     10.151555    8.697992   -2.113844
  O      8.907114    8.041381   -1.854696
  H      8.176294    8.540252   -2.215552
  H     10.937525    7.939530   -1.949895
  H     10.135819    9.106653   -3.162596
  H     10.323929    9.538655   -1.477755
  C      6.278651    9.131592    0.310008
  O      4.981540    8.722451   -0.021591
  H      4.399282    9.081503    0.703388
  H      6.369270    9.393353    1.328500
  H      7.022365    8.378398    0.114698
  H      6.562119   10.081628   -0.112263

 Multiplicity           Mult            ....    1
 Number of Electrons    NEL             ....   18
 Basis Dimension        Dim             ....  172

ORBITAL ENERGIES
----------------

  NO   OCC          E(Eh)            E(eV)
   0   2.0000     -19.234864      -523.4073
   1   2.0000     -10.302909      -280.3564
   2   2.0000      -1.135904       -30.9095
   3   2.0000      -0.798354       -21.7243
   4   2.0000      -0.617139       -16.7932
   5   2.0000      -0.543065       -14.7775
   6   2.0000      -0.526175       -14.3179
   7   2.0000      -0.436269       -11.8715
   8   2.0000      -0.372350       -10.1322
   9   0.0000       0.087168         2.3720
  10   0.0000       0.109424         2.9776
  11   0.0000       0.151253         4.1158
  12   0.0000       0.175412         4.7732
  13   0.0000       0.186532         5.0758

MULLIKEN ATOMIC CHARGES
-----------------------
   0 C :   -0.000223
   1 O :   -0.000027
   2 H :    0.000516
   3 H :   -0.000003
   4 H :    0.000000
   5 H :    0.000022
   6 C :   -0.170385
   7 O :   -0.465967
   8 H :    0.320030
   9 H :    0.104841
  10 H :    0.119221
  11 H :    0.091976
Sum of atomic charges:   -0.0000000

LOEWDIN ATOMIC CHARGES
----------------------
   0 C :   -0.000440
   1 O :   -0.002587
   2 H :   -0.002436
   3 H :   -0.000007
   4 H :   -0.000006
   5 H :   -0.000049
   6 C :   -0.396821
   7 O :   -0.078991
   8 H :    0.195352
   9 H :    0.089093
  10 H :    0.103617
  11 H :    0.093274

  Mayer bond orders larger than 0.1
B(  6-C ,  7-O ) :   1.0187 B(  6-C ,  9-H ) :   0.9863 B(  6-C , 10-H ) :   0.9737
B(  6-C , 11-H ) :   0.9737 B(  7-O ,  8-H ) :   0.8946

Dispersion correction           -0.000232689
FINAL SINGLE POINT ENERGY      -115.729398986773

DIPOLE MOMENT
-------------
                                X             Y             Z
Electronic contribution:     -1.66280      -0.70832      -0.64561
Nuclear contribution   :      1.79667       1.09845       1.26993
                        -----------------------------------------
Total Dipole Moment    :      0.13387       0.39013       0.62432
                        -----------------------------------------
Magnitude (a.u.)       :      0.74826
Magnitude (Debye)      :      1.90194

Rotational constants in cm-1:     4.461267     0.845298     0.809371
Rotational constants in MHz : 133745.427434 25341.401626 24264.343196

                             ****ORCA TERMINATED NORMALLY****
TOTAL RUN TIME: 0 days 0 hours 0 minutes 44 seconds 395 msec
