                         Program Version 4.1.2  - RELEASE  -
|  1> #Run DFT-D3 single point of the dimer
|  2> ! wB97X-D3 def2-TZVP TIGHTSCF CHELPG PMODEL PAL8
|  3>
|  4> %base "13-129_DFT_AB"
|  5>
|  6> %scf
|  7> MaxIter 1000
|  8> end
|  9>
| 10> * xyz 0 1
| 11>   C                      7.004929             -6.565444            -6.108691
| 12>   O                      7.311226             -7.663960            -6.960760
| 13>   H                      6.495099             -8.068097            -7.257927
| 14>   H                      6.292944             -6.947194            -5.276311
| 15>   H                      7.848356             -6.265472            -5.567084
| 16>   H                      6.616340             -5.781074            -6.738117
| 17>   C                      7.290253             -9.054922            -10.074489
| 18>   O                      7.748925             -9.996498            -10.992107
| 19>   H                      8.733493             -9.932072            -10.898153
| 20>   H                      6.194613             -8.997861            -10.159293
| 21>   H                      7.561863             -9.324519            -9.050190
| 22>   H                      7.677950             -8.070661            -10.304232
| 23> *
| 24>
| 25> #Run DFT-D3 single point of the molecule with dimer basis set
| 26> $new_job
| 27> %base "13-129_DFT_A"
| 28> ! wB97X-D3 def2-TZVP TIGHTSCF CHELPG PMODEL
| 29>
| 30> %scf
| 31> MaxIter 1000
| 32> end
| 33>
| 34> * xyz 0 1
| 35>   C                      7.004929             -6.565444            -6.108691
| 36>   O                      7.311226             -7.663960            -6.960760
| 37>   H                      6.495099             -8.068097            -7.257927
| 38>   H                      6.292944             -6.947194            -5.276311
| 39>   H                      7.848356             -6.265472            -5.567084
| 40>   H                      6.616340             -5.781074            -6.738117
| 41>   C                    : 7.290253             -9.054922            -10.074489
| 42>   O                    : 7.748925             -9.996498            -10.992107
| 43>   H                    : 8.733493             -9.932072            -10.898153
| 44>   H                    : 6.194613             -8.997861            -10.159293
| 45>   H                    : 7.561863             -9.324519            -9.050190
| 46>   H                    : 7.677950             -8.070661            -10.304232
| 47> *
| 48>
| 49> #Run DFT-D3 single point of the particle with dimer basis set
| 50> $new_job
| 51> %base "13-129_DFT_B"
| 52> ! wB97X-D3 def2-TZVP TIGHTSCF CHELPG PMODEL
| 53>
| 54> %scf
| 55> MaxIter 1000
| 56> end
| 57>
| 58> * xyz 0 1
| 59>   C                    : 7.004929             -6.565444            -6.108691
| 60>   O                    : 7.311226             -7.663960            -6.960760
| 61>   H                    : 6.495099             -8.068097            -7.257927
| 62>   H                    : 6.292944             -6.947194            -5.276311
| 63>   H                    : 7.848356             -6.265472            -5.567084
| 64>   H                    : 6.616340             -5.781074            -6.738117
| 65>   C                      7.290253             -9.054922            -10.074489
| 66>   O                      7.748925             -9.996498            -10.992107
| 67>   H                      8.733493             -9.932072            -10.898153
| 68>   H                      6.194613             -8.997861            -10.159293
| 69>   H                      7.561863             -9.324519            -9.050190
| 70>   H                      7.677950             -8.070661            -10.304232
| 71> *
| 72>
| 73>                          ****END OF INPUT****
 Total Charge           Charge          ....    0
 Multiplicity           Mult            ....    1
 Number of Electrons    NEL             ....   36
Dispersion correction           -0.001395074
FINAL SINGLE POINT ENERGY      -231.467149113959
Dispersion correction           -0.000231200
FINAL SINGLE POINT ENERGY      -115.730844125583

CARTESIAN COORDINATES (ANGSTROEM)
---------------------------------
  C      7.004929   -6.565444   -6.108691
  O      7.311226   -7.663960   -6.960760
  H      6.495099   -8.068097   -7.257927
  H      6.292944   -6.947194   -5.276311
  H      7.848356   -6.265472   -5.567084
  H      6.616340   -5.781074   -6.738117
  C      7.290253   -9.054922  -10.074489
  O      7.748925   -9.996498  -10.992107
  H      8.733493   -9.932072  -10.898153
  H      6.194613   -8.997861  -10.159293
  H      7.561863   -9.324519   -9.050190
  H      7.677950   -8.070661  -10.304232

 Multiplicity           Mult            ....    1
 Number of Electrons    NEL             ....   18
 Basis Dimension        Dim             ....  172

ORBITAL ENERGIES
----------------

  NO   OCC          E(Eh)            E(eV)
   0   2.0000     -19.233066      -523.3583
   1   2.0000     -10.310102      -280.5522
   2   2.0000      -1.140877       -31.0448
   3   2.0000      -0.788907       -21.4673
   4   2.0000      -0.610918       -16.6239
   5   2.0000      -0.547705       -14.9038
   6   2.0000      -0.526125       -14.3166
   7   2.0000      -0.436048       -11.8655
   8   2.0000      -0.372266       -10.1299
   9   0.0000       0.084047         2.2870
  10   0.0000       0.111799         3.0422
  11   0.0000       0.144370         3.9285
  12   0.0000       0.184673         5.0252
  13   0.0000       0.190711         5.1895

MULLIKEN ATOMIC CHARGES
-----------------------
   0 C :   -0.000362
   1 O :   -0.000470
   2 H :   -0.001069
   3 H :    0.000007
   4 H :    0.000033
   5 H :    0.000014
   6 C :   -0.159107
   7 O :   -0.462901
   8 H :    0.314100
   9 H :    0.116572
  10 H :    0.096364
  11 H :    0.096819
Sum of atomic charges:   -0.0000000

LOEWDIN ATOMIC CHARGES
----------------------
   0 C :   -0.000201
   1 O :   -0.003856
   2 H :   -0.004001
   3 H :   -0.000003
   4 H :   -0.000005
   5 H :   -0.000012
   6 C :   -0.406750
   7 O :   -0.072819
   8 H :    0.190834
   9 H :    0.110843
  10 H :    0.094930
  11 H :    0.091041

  Mayer bond orders larger than 0.1
B(  6-C ,  7-O ) :   1.0019 B(  6-C ,  9-H ) :   0.9709 B(  6-C , 10-H ) :   0.9795
B(  6-C , 11-H ) :   0.9790 B(  7-O ,  8-H ) :   0.8988

Dispersion correction           -0.000212622
FINAL SINGLE POINT ENERGY      -115.735038156322

DIPOLE MOMENT
-------------
                                X             Y             Z
Electronic contribution:      0.45335      -1.27881      -1.23194
Nuclear contribution   :     -0.03074       1.67092       1.61925
                        -----------------------------------------
Total Dipole Moment    :      0.42261       0.39211       0.38731
                        -----------------------------------------
Magnitude (a.u.)       :      0.69452
Magnitude (Debye)      :      1.76533

Rotational constants in cm-1:     4.175308     0.862201     0.826317
Rotational constants in MHz : 125172.574935 25848.140653 24772.372317

                             ****ORCA TERMINATED NORMALLY****
TOTAL RUN TIME: 0 days 0 hours 1 minutes 9 seconds 645 msec
