                         Program Version 4.1.2  - RELEASE  -
|  1> #Run DFT-D3 single point of the dimer
|  2> ! wB97X-D3 def2-TZVP TIGHTSCF CHELPG PMODEL PAL8
|  3>
|  4> %base "22-210_DFT_AB"
|  5>
|  6> %scf
|  7> MaxIter 1000
|  8> end
|  9>
| 10> * xyz 0 1
| 11>   C                      3.665648             -7.821168            -5.400636
| 12>   O                      2.313230             -7.911947            -5.669289
| 13>   H                      1.928492             -8.336179            -4.940872
| 14>   H                      4.116049             -8.827274            -5.247889
| 15>   H                      4.117865             -7.403982            -6.311332
| 16>   H                      3.967369             -7.184332            -4.616387
| 17>   C                      0.830589             -8.804926            -2.774516
| 18>   O                      1.390398             -9.721487            -3.701900
| 19>   H                      1.712056             -10.463570           -3.258604
| 20>   H                      -0.082068            -9.226664            -2.275013
| 21>   H                      1.609103             -8.455367            -1.961482
| 22>   H                      0.439885             -7.917556            -3.312164
| 23> *
| 24>
| 25> #Run DFT-D3 single point of the molecule with dimer basis set
| 26> $new_job
| 27> %base "22-210_DFT_A"
| 28> ! wB97X-D3 def2-TZVP TIGHTSCF CHELPG PMODEL
| 29>
| 30> %scf
| 31> MaxIter 1000
| 32> end
| 33>
| 34> * xyz 0 1
| 35>   C                      3.665648             -7.821168            -5.400636
| 36>   O                      2.313230             -7.911947            -5.669289
| 37>   H                      1.928492             -8.336179            -4.940872
| 38>   H                      4.116049             -8.827274            -5.247889
| 39>   H                      4.117865             -7.403982            -6.311332
| 40>   H                      3.967369             -7.184332            -4.616387
| 41>   C                    : 0.830589             -8.804926            -2.774516
| 42>   O                    : 1.390398             -9.721487            -3.701900
| 43>   H                    : 1.712056             -10.463570           -3.258604
| 44>   H                    : -0.082068            -9.226664            -2.275013
| 45>   H                    : 1.609103             -8.455367            -1.961482
| 46>   H                    : 0.439885             -7.917556            -3.312164
| 47> *
| 48>
| 49> #Run DFT-D3 single point of the particle with dimer basis set
| 50> $new_job
| 51> %base "22-210_DFT_B"
| 52> ! wB97X-D3 def2-TZVP TIGHTSCF CHELPG PMODEL
| 53>
| 54> %scf
| 55> MaxIter 1000
| 56> end
| 57>
| 58> * xyz 0 1
| 59>   C                    : 3.665648             -7.821168            -5.400636
| 60>   O                    : 2.313230             -7.911947            -5.669289
| 61>   H                    : 1.928492             -8.336179            -4.940872
| 62>   H                    : 4.116049             -8.827274            -5.247889
| 63>   H                    : 4.117865             -7.403982            -6.311332
| 64>   H                    : 3.967369             -7.184332            -4.616387
| 65>   C                      0.830589             -8.804926            -2.774516
| 66>   O                      1.390398             -9.721487            -3.701900
| 67>   H                      1.712056             -10.463570           -3.258604
| 68>   H                      -0.082068            -9.226664            -2.275013
| 69>   H                      1.609103             -8.455367            -1.961482
| 70>   H                      0.439885             -7.917556            -3.312164
| 71> *
| 72>
| 73>                          ****END OF INPUT****
 Total Charge           Charge          ....    0
 Multiplicity           Mult            ....    1
 Number of Electrons    NEL             ....   36
Dispersion correction           -0.002002425
FINAL SINGLE POINT ENERGY      -231.470727924316
Dispersion correction           -0.000223802
FINAL SINGLE POINT ENERGY      -115.733856598980

CARTESIAN COORDINATES (ANGSTROEM)
---------------------------------
  C      3.665648   -7.821168   -5.400636
  O      2.313230   -7.911947   -5.669289
  H      1.928492   -8.336179   -4.940872
  H      4.116049   -8.827274   -5.247889
  H      4.117865   -7.403982   -6.311332
  H      3.967369   -7.184332   -4.616387
  C      0.830589   -8.804926   -2.774516
  O      1.390398   -9.721487   -3.701900
  H      1.712056  -10.463570   -3.258604
  H     -0.082068   -9.226664   -2.275013
  H      1.609103   -8.455367   -1.961482
  H      0.439885   -7.917556   -3.312164

 Multiplicity           Mult            ....    1
 Number of Electrons    NEL             ....   18
 Basis Dimension        Dim             ....  172

ORBITAL ENERGIES
----------------

  NO   OCC          E(Eh)            E(eV)
   0   2.0000     -19.229910      -523.2725
   1   2.0000     -10.328245      -281.0458
   2   2.0000      -1.143378       -31.1129
   3   2.0000      -0.792842       -21.5743
   4   2.0000      -0.611393       -16.6369
   5   2.0000      -0.535931       -14.5834
   6   2.0000      -0.526842       -14.3361
   7   2.0000      -0.430956       -11.7269
   8   2.0000      -0.375626       -10.2213
   9   0.0000       0.097091         2.6420
  10   0.0000       0.129874         3.5341
  11   0.0000       0.147941         4.0257
  12   0.0000       0.179050         4.8722
  13   0.0000       0.194818         5.3013

MULLIKEN ATOMIC CHARGES
-----------------------
   0 C :   -0.001012
   1 O :   -0.001160
   2 H :    0.005489
   3 H :   -0.003425
   4 H :   -0.000335
   5 H :   -0.000485
   6 C :   -0.174342
   7 O :   -0.463045
   8 H :    0.305860
   9 H :    0.107150
  10 H :    0.100205
  11 H :    0.125100
Sum of atomic charges:    0.0000000

LOEWDIN ATOMIC CHARGES
----------------------
   0 C :   -0.006160
   1 O :   -0.005733
   2 H :   -0.034970
   3 H :   -0.001767
   4 H :   -0.000101
   5 H :   -0.000159
   6 C :   -0.387158
   7 O :   -0.026726
   8 H :    0.142342
   9 H :    0.099223
  10 H :    0.107418
  11 H :    0.113790

  Mayer bond orders larger than 0.1
B(  6-C ,  7-O ) :   0.9933 B(  6-C ,  9-H ) :   0.9683 B(  6-C , 10-H ) :   0.9688
B(  6-C , 11-H ) :   0.9766 B(  7-O ,  8-H ) :   0.9056

Dispersion correction           -0.000269847
FINAL SINGLE POINT ENERGY      -115.731651441960

DIPOLE MOMENT
-------------
                                X             Y             Z
Electronic contribution:      0.70786      -1.14315      -1.33954
Nuclear contribution   :     -0.75251       1.01930       1.96920
                        -----------------------------------------
Total Dipole Moment    :     -0.04464      -0.12385       0.62966
                        -----------------------------------------
Magnitude (a.u.)       :      0.64327
Magnitude (Debye)      :      1.63506

Rotational constants in cm-1:     4.132106     0.811828     0.789793
Rotational constants in MHz : 123877.421414 24337.987418 23677.405486

                             ****ORCA TERMINATED NORMALLY****
TOTAL RUN TIME: 0 days 0 hours 1 minutes 7 seconds 98 msec
