                         Program Version 4.1.2  - RELEASE  -
|  1> #Run DFT-D3 single point of the dimer
|  2> ! wB97X-D3 def2-TZVP TIGHTSCF CHELPG PMODEL PAL8
|  3>
|  4> %base "12-153_DFT_AB"
|  5>
|  6> %scf
|  7> MaxIter 1000
|  8> end
|  9>
| 10> * xyz 0 1
| 11>   C                      -7.007349            -1.144649            3.500469
| 12>   O                      -8.062539            -2.026212            3.825962
| 13>   H                      -8.047566            -2.332672            4.734233
| 14>   H                      -7.376395            -0.294412            2.890347
| 15>   H                      -6.574996            -0.687482            4.454638
| 16>   H                      -6.225119            -1.631320            2.828627
| 17>   C                      -8.782069            -0.807775            7.570743
| 18>   O                      -8.483144            -2.095420            6.950535
| 19>   H                      -9.023656            -2.821554            7.231701
| 20>   H                      -8.608050            -0.917514            8.626769
| 21>   H                      -8.249451            0.079255             7.182491
| 22>   H                      -9.872292            -0.605238            7.324622
| 23> *
| 24>
| 25> #Run DFT-D3 single point of the molecule with dimer basis set
| 26> $new_job
| 27> %base "12-153_DFT_A"
| 28> ! wB97X-D3 def2-TZVP TIGHTSCF CHELPG PMODEL
| 29>
| 30> %scf
| 31> MaxIter 1000
| 32> end
| 33>
| 34> * xyz 0 1
| 35>   C                      -7.007349            -1.144649            3.500469
| 36>   O                      -8.062539            -2.026212            3.825962
| 37>   H                      -8.047566            -2.332672            4.734233
| 38>   H                      -7.376395            -0.294412            2.890347
| 39>   H                      -6.574996            -0.687482            4.454638
| 40>   H                      -6.225119            -1.631320            2.828627
| 41>   C                    : -8.782069            -0.807775            7.570743
| 42>   O                    : -8.483144            -2.095420            6.950535
| 43>   H                    : -9.023656            -2.821554            7.231701
| 44>   H                    : -8.608050            -0.917514            8.626769
| 45>   H                    : -8.249451            0.079255             7.182491
| 46>   H                    : -9.872292            -0.605238            7.324622
| 47> *
| 48>
| 49> #Run DFT-D3 single point of the particle with dimer basis set
| 50> $new_job
| 51> %base "12-153_DFT_B"
| 52> ! wB97X-D3 def2-TZVP TIGHTSCF CHELPG PMODEL
| 53>
| 54> %scf
| 55> MaxIter 1000
| 56> end
| 57>
| 58> * xyz 0 1
| 59>   C                    : -7.007349            -1.144649            3.500469
| 60>   O                    : -8.062539            -2.026212            3.825962
| 61>   H                    : -8.047566            -2.332672            4.734233
| 62>   H                    : -7.376395            -0.294412            2.890347
| 63>   H                    : -6.574996            -0.687482            4.454638
| 64>   H                    : -6.225119            -1.631320            2.828627
| 65>   C                      -8.782069            -0.807775            7.570743
| 66>   O                      -8.483144            -2.095420            6.950535
| 67>   H                      -9.023656            -2.821554            7.231701
| 68>   H                      -8.608050            -0.917514            8.626769
| 69>   H                      -8.249451            0.079255             7.182491
| 70>   H                      -9.872292            -0.605238            7.324622
| 71> *
| 72>
| 73>                          ****END OF INPUT****
 Total Charge           Charge          ....    0
 Multiplicity           Mult            ....    1
 Number of Electrons    NEL             ....   36
Dispersion correction           -0.001707836
FINAL SINGLE POINT ENERGY      -231.466588756033
Dispersion correction           -0.000273794
FINAL SINGLE POINT ENERGY      -115.731691185436

CARTESIAN COORDINATES (ANGSTROEM)
---------------------------------
  C     -7.007349   -1.144649    3.500469
  O     -8.062539   -2.026212    3.825962
  H     -8.047566   -2.332672    4.734233
  H     -7.376395   -0.294412    2.890347
  H     -6.574996   -0.687482    4.454638
  H     -6.225119   -1.631320    2.828627
  C     -8.782069   -0.807775    7.570743
  O     -8.483144   -2.095420    6.950535
  H     -9.023656   -2.821554    7.231701
  H     -8.608050   -0.917514    8.626769
  H     -8.249451    0.079255    7.182491
  H     -9.872292   -0.605238    7.324622

 Multiplicity           Mult            ....    1
 Number of Electrons    NEL             ....   18
 Basis Dimension        Dim             ....  172

ORBITAL ENERGIES
----------------

  NO   OCC          E(Eh)            E(eV)
   0   2.0000     -19.222644      -523.0747
   1   2.0000     -10.323541      -280.9178
   2   2.0000      -1.119138       -30.4533
   3   2.0000      -0.798543       -21.7294
   4   2.0000      -0.599390       -16.3102
   5   2.0000      -0.544771       -14.8240
   6   2.0000      -0.527432       -14.3522
   7   2.0000      -0.418012       -11.3747
   8   2.0000      -0.371792       -10.1170
   9   0.0000       0.098379         2.6770
  10   0.0000       0.122309         3.3282
  11   0.0000       0.146213         3.9787
  12   0.0000       0.189798         5.1647
  13   0.0000       0.197996         5.3878

MULLIKEN ATOMIC CHARGES
-----------------------
   0 C :    0.001077
   1 O :   -0.001350
   2 H :   -0.008814
   3 H :    0.000000
   4 H :   -0.001057
   5 H :   -0.000061
   6 C :   -0.159773
   7 O :   -0.499318
   8 H :    0.317922
   9 H :    0.116565
  10 H :    0.130192
  11 H :    0.104615
Sum of atomic charges:   -0.0000000

LOEWDIN ATOMIC CHARGES
----------------------
   0 C :   -0.001113
   1 O :   -0.002997
   2 H :   -0.024522
   3 H :   -0.000009
   4 H :   -0.000413
   5 H :   -0.000011
   6 C :   -0.347307
   7 O :   -0.091283
   8 H :    0.155736
   9 H :    0.094546
  10 H :    0.112038
  11 H :    0.105336

  Mayer bond orders larger than 0.1
B(  6-C ,  7-O ) :   0.9663 B(  6-C ,  9-H ) :   0.9742 B(  6-C , 10-H ) :   0.9670
B(  6-C , 11-H ) :   0.9838 B(  7-O ,  8-H ) :   0.8931

Dispersion correction           -0.000264647
FINAL SINGLE POINT ENERGY      -115.727296256622

DIPOLE MOMENT
-------------
                                X             Y             Z
Electronic contribution:      0.58836      -1.44478      -0.75202
Nuclear contribution   :     -1.07033       1.55574       1.22525
                        -----------------------------------------
Total Dipole Moment    :     -0.48198       0.11096       0.47324
                        -----------------------------------------
Magnitude (a.u.)       :      0.68452
Magnitude (Debye)      :      1.73991

Rotational constants in cm-1:     4.333868     0.776175     0.760164
Rotational constants in MHz : 129926.089080 23269.155318 22789.157120

                             ****ORCA TERMINATED NORMALLY****
TOTAL RUN TIME: 0 days 0 hours 1 minutes 14 seconds 143 msec
