                         Program Version 4.1.2  - RELEASE  -
|  1> #Run DFT-D3 single point of the dimer
|  2> ! wB97X-D3 def2-TZVP TIGHTSCF CHELPG PMODEL PAL8
|  3>
|  4> %base "19-167_DFT_AB"
|  5>
|  6> %scf
|  7> MaxIter 1000
|  8> end
|  9>
| 10> * xyz 0 1
| 11>   C                      5.146326             -5.103840            1.842920
| 12>   O                      5.654684             -5.871163            0.799366
| 13>   H                      5.178208             -6.754287            0.859761
| 14>   H                      5.839088             -5.067599            2.729695
| 15>   H                      4.986382             -4.087363            1.493525
| 16>   H                      4.174827             -5.519229            2.109580
| 17>   C                      3.916509             -3.508539            -1.803295
| 18>   O                      4.339217             -4.813427            -1.423874
| 19>   H                      5.103131             -4.768572            -0.766740
| 20>   H                      4.574510             -3.094460            -2.572110
| 21>   H                      2.850939             -3.502246            -2.171347
| 22>   H                      3.965013             -2.881718            -0.988602
| 23> *
| 24>
| 25> #Run DFT-D3 single point of the molecule with dimer basis set
| 26> $new_job
| 27> %base "19-167_DFT_A"
| 28> ! wB97X-D3 def2-TZVP TIGHTSCF CHELPG PMODEL
| 29>
| 30> %scf
| 31> MaxIter 1000
| 32> end
| 33>
| 34> * xyz 0 1
| 35>   C                      5.146326             -5.103840            1.842920
| 36>   O                      5.654684             -5.871163            0.799366
| 37>   H                      5.178208             -6.754287            0.859761
| 38>   H                      5.839088             -5.067599            2.729695
| 39>   H                      4.986382             -4.087363            1.493525
| 40>   H                      4.174827             -5.519229            2.109580
| 41>   C                    : 3.916509             -3.508539            -1.803295
| 42>   O                    : 4.339217             -4.813427            -1.423874
| 43>   H                    : 5.103131             -4.768572            -0.766740
| 44>   H                    : 4.574510             -3.094460            -2.572110
| 45>   H                    : 2.850939             -3.502246            -2.171347
| 46>   H                    : 3.965013             -2.881718            -0.988602
| 47> *
| 48>
| 49> #Run DFT-D3 single point of the particle with dimer basis set
| 50> $new_job
| 51> %base "19-167_DFT_B"
| 52> ! wB97X-D3 def2-TZVP TIGHTSCF CHELPG PMODEL
| 53>
| 54> %scf
| 55> MaxIter 1000
| 56> end
| 57>
| 58> * xyz 0 1
| 59>   C                    : 5.146326             -5.103840            1.842920
| 60>   O                    : 5.654684             -5.871163            0.799366
| 61>   H                    : 5.178208             -6.754287            0.859761
| 62>   H                    : 5.839088             -5.067599            2.729695
| 63>   H                    : 4.986382             -4.087363            1.493525
| 64>   H                    : 4.174827             -5.519229            2.109580
| 65>   C                      3.916509             -3.508539            -1.803295
| 66>   O                      4.339217             -4.813427            -1.423874
| 67>   H                      5.103131             -4.768572            -0.766740
| 68>   H                      4.574510             -3.094460            -2.572110
| 69>   H                      2.850939             -3.502246            -2.171347
| 70>   H                      3.965013             -2.881718            -0.988602
| 71> *
| 72>
| 73>                          ****END OF INPUT****
 Total Charge           Charge          ....    0
 Multiplicity           Mult            ....    1
 Number of Electrons    NEL             ....   36
Dispersion correction           -0.001857097
FINAL SINGLE POINT ENERGY      -231.468350038374
Dispersion correction           -0.000232125
FINAL SINGLE POINT ENERGY      -115.732124557178

CARTESIAN COORDINATES (ANGSTROEM)
---------------------------------
  C      5.146326   -5.103840    1.842920
  O      5.654684   -5.871163    0.799366
  H      5.178208   -6.754287    0.859761
  H      5.839088   -5.067599    2.729695
  H      4.986382   -4.087363    1.493525
  H      4.174827   -5.519229    2.109580
  C      3.916509   -3.508539   -1.803295
  O      4.339217   -4.813427   -1.423874
  H      5.103131   -4.768572   -0.766740
  H      4.574510   -3.094460   -2.572110
  H      2.850939   -3.502246   -2.171347
  H      3.965013   -2.881718   -0.988602

 Multiplicity           Mult            ....    1
 Number of Electrons    NEL             ....   18
 Basis Dimension        Dim             ....  172

ORBITAL ENERGIES
----------------

  NO   OCC          E(Eh)            E(eV)
   0   2.0000     -19.232571      -523.3449
   1   2.0000     -10.309635      -280.5394
   2   2.0000      -1.122739       -30.5513
   3   2.0000      -0.795472       -21.6459
   4   2.0000      -0.607305       -16.5256
   5   2.0000      -0.542006       -14.7487
   6   2.0000      -0.525486       -14.2992
   7   2.0000      -0.429172       -11.6784
   8   2.0000      -0.372162       -10.1270
   9   0.0000       0.074388         2.0242
  10   0.0000       0.135196         3.6789
  11   0.0000       0.146838         3.9957
  12   0.0000       0.172840         4.7032
  13   0.0000       0.191213         5.2032

MULLIKEN ATOMIC CHARGES
-----------------------
   0 C :   -0.009619
   1 O :    0.000573
   2 H :   -0.000231
   3 H :   -0.000484
   4 H :   -0.002089
   5 H :    0.001244
   6 C :   -0.165822
   7 O :   -0.474683
   8 H :    0.315933
   9 H :    0.105345
  10 H :    0.117840
  11 H :    0.111993
Sum of atomic charges:    0.0000000

LOEWDIN ATOMIC CHARGES
----------------------
   0 C :   -0.011558
   1 O :   -0.017314
   2 H :   -0.001842
   3 H :   -0.000224
   4 H :   -0.002753
   5 H :   -0.000528
   6 C :   -0.373638
   7 O :   -0.090414
   8 H :    0.205961
   9 H :    0.095838
  10 H :    0.116088
  11 H :    0.080384

  Mayer bond orders larger than 0.1
B(  6-C ,  7-O ) :   0.9971 B(  6-C ,  9-H ) :   0.9811 B(  6-C , 10-H ) :   0.9695
B(  6-C , 11-H ) :   0.9802 B(  7-O ,  8-H ) :   0.8917

Dispersion correction           -0.000245335
FINAL SINGLE POINT ENERGY      -115.730318215453

DIPOLE MOMENT
-------------
                                X             Y             Z
Electronic contribution:      0.40399      -1.67446       0.39288
Nuclear contribution   :     -0.11062       2.26095      -0.12259
                        -----------------------------------------
Total Dipole Moment    :      0.29338       0.58649       0.27028
                        -----------------------------------------
Magnitude (a.u.)       :      0.70929
Magnitude (Debye)      :      1.80288

Rotational constants in cm-1:     4.322870     0.819408     0.787707
Rotational constants in MHz : 129596.376276 24565.244026 23614.861438

                             ****ORCA TERMINATED NORMALLY****
TOTAL RUN TIME: 0 days 0 hours 0 minutes 52 seconds 269 msec
