                         Program Version 4.1.2  - RELEASE  -
|  1> #Run DFT-D3 single point of the dimer
|  2> ! wB97X-D3 def2-TZVP TIGHTSCF CHELPG PMODEL PAL8
|  3>
|  4> %base "3-9_DFT_AB"
|  5>
|  6> %scf
|  7> MaxIter 1000
|  8> end
|  9>
| 10> * xyz 0 1
| 11>   C                      0.141561             6.247437             4.342902
| 12>   O                      -0.671210            6.055133             5.470995
| 13>   H                      -0.143852            5.652897             6.120910
| 14>   H                      0.997028             6.871239             4.544806
| 15>   H                      0.411989             5.326716             3.898990
| 16>   H                      -0.387381            6.739469             3.540981
| 17>   C                      -0.410735            8.447668             9.297336
| 18>   O                      -0.823398            7.204550             8.655159
| 19>   H                      -1.765678            7.071004             8.637662
| 20>   H                      -0.507894            8.454317             10.372922
| 21>   H                      0.723080             8.551987             9.081141
| 22>   H                      -0.867690            9.371869             8.996088
| 23> *
| 24>
| 25> #Run DFT-D3 single point of the molecule with dimer basis set
| 26> $new_job
| 27> %base "3-9_DFT_A"
| 28> ! wB97X-D3 def2-TZVP TIGHTSCF CHELPG PMODEL
| 29>
| 30> %scf
| 31> MaxIter 1000
| 32> end
| 33>
| 34> * xyz 0 1
| 35>   C                      0.141561             6.247437             4.342902
| 36>   O                      -0.671210            6.055133             5.470995
| 37>   H                      -0.143852            5.652897             6.120910
| 38>   H                      0.997028             6.871239             4.544806
| 39>   H                      0.411989             5.326716             3.898990
| 40>   H                      -0.387381            6.739469             3.540981
| 41>   C                    : -0.410735            8.447668             9.297336
| 42>   O                    : -0.823398            7.204550             8.655159
| 43>   H                    : -1.765678            7.071004             8.637662
| 44>   H                    : -0.507894            8.454317             10.372922
| 45>   H                    : 0.723080             8.551987             9.081141
| 46>   H                    : -0.867690            9.371869             8.996088
| 47> *
| 48>
| 49> #Run DFT-D3 single point of the particle with dimer basis set
| 50> $new_job
| 51> %base "3-9_DFT_B"
| 52> ! wB97X-D3 def2-TZVP TIGHTSCF CHELPG PMODEL
| 53>
| 54> %scf
| 55> MaxIter 1000
| 56> end
| 57>
| 58> * xyz 0 1
| 59>   C                    : 0.141561             6.247437             4.342902
| 60>   O                    : -0.671210            6.055133             5.470995
| 61>   H                    : -0.143852            5.652897             6.120910
| 62>   H                    : 0.997028             6.871239             4.544806
| 63>   H                    : 0.411989             5.326716             3.898990
| 64>   H                    : -0.387381            6.739469             3.540981
| 65>   C                      -0.410735            8.447668             9.297336
| 66>   O                      -0.823398            7.204550             8.655159
| 67>   H                      -1.765678            7.071004             8.637662
| 68>   H                      -0.507894            8.454317             10.372922
| 69>   H                      0.723080             8.551987             9.081141
| 70>   H                      -0.867690            9.371869             8.996088
| 71> *
| 72>
| 73>                          ****END OF INPUT****
 Total Charge           Charge          ....    0
 Multiplicity           Mult            ....    1
 Number of Electrons    NEL             ....   36
Dispersion correction           -0.001183580
FINAL SINGLE POINT ENERGY      -231.464939806949
Dispersion correction           -0.000225441
FINAL SINGLE POINT ENERGY      -115.733842079843

CARTESIAN COORDINATES (ANGSTROEM)
---------------------------------
  C      0.141561    6.247437    4.342902
  O     -0.671210    6.055133    5.470995
  H     -0.143852    5.652897    6.120910
  H      0.997028    6.871239    4.544806
  H      0.411989    5.326716    3.898990
  H     -0.387381    6.739469    3.540981
  C     -0.410735    8.447668    9.297336
  O     -0.823398    7.204550    8.655159
  H     -1.765678    7.071004    8.637662
  H     -0.507894    8.454317   10.372922
  H      0.723080    8.551987    9.081141
  H     -0.867690    9.371869    8.996088

 Multiplicity           Mult            ....    1
 Number of Electrons    NEL             ....   18
 Basis Dimension        Dim             ....  172

ORBITAL ENERGIES
----------------

  NO   OCC          E(Eh)            E(eV)
   0   2.0000     -19.232340      -523.3386
   1   2.0000     -10.321306      -280.8570
   2   2.0000      -1.123030       -30.5592
   3   2.0000      -0.800843       -21.7920
   4   2.0000      -0.613480       -16.6937
   5   2.0000      -0.532064       -14.4782
   6   2.0000      -0.512188       -13.9374
   7   2.0000      -0.432915       -11.7802
   8   2.0000      -0.378438       -10.2978
   9   0.0000       0.095390         2.5957
  10   0.0000       0.120014         3.2657
  11   0.0000       0.144617         3.9352
  12   0.0000       0.184529         5.0213
  13   0.0000       0.193016         5.2522

MULLIKEN ATOMIC CHARGES
-----------------------
   0 C :   -0.000593
   1 O :   -0.000369
   2 H :   -0.003028
   3 H :   -0.000044
   4 H :   -0.000031
   5 H :    0.000041
   6 C :   -0.168805
   7 O :   -0.483495
   8 H :    0.313527
   9 H :    0.111088
  10 H :    0.122309
  11 H :    0.109400
Sum of atomic charges:    0.0000000

LOEWDIN ATOMIC CHARGES
----------------------
   0 C :   -0.000404
   1 O :   -0.002531
   2 H :   -0.004118
   3 H :   -0.000033
   4 H :   -0.000010
   5 H :   -0.000003
   6 C :   -0.360287
   7 O :   -0.096122
   8 H :    0.157286
   9 H :    0.091929
  10 H :    0.124304
  11 H :    0.089990

  Mayer bond orders larger than 0.1
B(  6-C ,  7-O ) :   0.9951 B(  6-C ,  9-H ) :   0.9698 B(  6-C , 10-H ) :   0.9770
B(  6-C , 11-H ) :   0.9662 B(  7-O ,  8-H ) :   0.8977

Dispersion correction           -0.000302927
FINAL SINGLE POINT ENERGY      -115.729545342074

DIPOLE MOMENT
-------------
                                X             Y             Z
Electronic contribution:     -0.58814      -1.57969      -0.83861
Nuclear contribution   :      0.13475       2.04021       1.11532
                        -----------------------------------------
Total Dipole Moment    :     -0.45339       0.46052       0.27671
                        -----------------------------------------
Magnitude (a.u.)       :      0.70300
Magnitude (Debye)      :      1.78688

Rotational constants in cm-1:     4.439898     0.774969     0.744215
Rotational constants in MHz : 133104.806032 23232.982113 22311.012443

                             ****ORCA TERMINATED NORMALLY****
TOTAL RUN TIME: 0 days 0 hours 6 minutes 23 seconds 108 msec
