                         Program Version 4.1.2  - RELEASE  -
|  1> #Run DFT-D3 single point of the dimer
|  2> ! wB97X-D3 def2-TZVP TIGHTSCF CHELPG PMODEL PAL8
|  3>
|  4> %base "19-23_DFT_AB"
|  5>
|  6> %scf
|  7> MaxIter 1000
|  8> end
|  9>
| 10> * xyz 0 1
| 11>   C                      9.121018             -8.002332            -6.658130
| 12>   O                      10.161908            -7.980103            -7.581041
| 13>   H                      10.228390            -8.853579            -7.970329
| 14>   H                      8.705024             -7.045005            -6.526222
| 15>   H                      8.234115             -8.471532            -7.034247
| 16>   H                      9.419755             -8.306082            -5.708888
| 17>   C                      7.675457             -6.336189            -10.603416
| 18>   O                      7.603533             -5.665192            -11.832627
| 19>   H                      7.495016             -6.340691            -12.531110
| 20>   H                      7.650247             -5.677263            -9.801544
| 21>   H                      6.791720             -7.005691            -10.409281
| 22>   H                      8.584671             -6.856974            -10.471076
| 23> *
| 24>
| 25> #Run DFT-D3 single point of the molecule with dimer basis set
| 26> $new_job
| 27> %base "19-23_DFT_A"
| 28> ! wB97X-D3 def2-TZVP TIGHTSCF CHELPG PMODEL
| 29>
| 30> %scf
| 31> MaxIter 1000
| 32> end
| 33>
| 34> * xyz 0 1
| 35>   C                      9.121018             -8.002332            -6.658130
| 36>   O                      10.161908            -7.980103            -7.581041
| 37>   H                      10.228390            -8.853579            -7.970329
| 38>   H                      8.705024             -7.045005            -6.526222
| 39>   H                      8.234115             -8.471532            -7.034247
| 40>   H                      9.419755             -8.306082            -5.708888
| 41>   C                    : 7.675457             -6.336189            -10.603416
| 42>   O                    : 7.603533             -5.665192            -11.832627
| 43>   H                    : 7.495016             -6.340691            -12.531110
| 44>   H                    : 7.650247             -5.677263            -9.801544
| 45>   H                    : 6.791720             -7.005691            -10.409281
| 46>   H                    : 8.584671             -6.856974            -10.471076
| 47> *
| 48>
| 49> #Run DFT-D3 single point of the particle with dimer basis set
| 50> $new_job
| 51> %base "19-23_DFT_B"
| 52> ! wB97X-D3 def2-TZVP TIGHTSCF CHELPG PMODEL
| 53>
| 54> %scf
| 55> MaxIter 1000
| 56> end
| 57>
| 58> * xyz 0 1
| 59>   C                    : 9.121018             -8.002332            -6.658130
| 60>   O                    : 10.161908            -7.980103            -7.581041
| 61>   H                    : 10.228390            -8.853579            -7.970329
| 62>   H                    : 8.705024             -7.045005            -6.526222
| 63>   H                    : 8.234115             -8.471532            -7.034247
| 64>   H                    : 9.419755             -8.306082            -5.708888
| 65>   C                      7.675457             -6.336189            -10.603416
| 66>   O                      7.603533             -5.665192            -11.832627
| 67>   H                      7.495016             -6.340691            -12.531110
| 68>   H                      7.650247             -5.677263            -9.801544
| 69>   H                      6.791720             -7.005691            -10.409281
| 70>   H                      8.584671             -6.856974            -10.471076
| 71> *
| 72>
| 73>                          ****END OF INPUT****
 Total Charge           Charge          ....    0
 Multiplicity           Mult            ....    1
 Number of Electrons    NEL             ....   36
Dispersion correction           -0.001153584
FINAL SINGLE POINT ENERGY      -231.462068596282
Dispersion correction           -0.000227595
FINAL SINGLE POINT ENERGY      -115.729205951111

CARTESIAN COORDINATES (ANGSTROEM)
---------------------------------
  C      9.121018   -8.002332   -6.658130
  O     10.161908   -7.980103   -7.581041
  H     10.228390   -8.853579   -7.970329
  H      8.705024   -7.045005   -6.526222
  H      8.234115   -8.471532   -7.034247
  H      9.419755   -8.306082   -5.708888
  C      7.675457   -6.336189  -10.603416
  O      7.603533   -5.665192  -11.832627
  H      7.495016   -6.340691  -12.531110
  H      7.650247   -5.677263   -9.801544
  H      6.791720   -7.005691  -10.409281
  H      8.584671   -6.856974  -10.471076

 Multiplicity           Mult            ....    1
 Number of Electrons    NEL             ....   18
 Basis Dimension        Dim             ....  172

ORBITAL ENERGIES
----------------

  NO   OCC          E(Eh)            E(eV)
   0   2.0000     -19.232714      -523.3487
   1   2.0000     -10.304475      -280.3990
   2   2.0000      -1.136669       -30.9303
   3   2.0000      -0.801300       -21.8045
   4   2.0000      -0.609037       -16.5727
   5   2.0000      -0.546974       -14.8839
   6   2.0000      -0.533202       -14.5092
   7   2.0000      -0.430237       -11.7073
   8   2.0000      -0.375330       -10.2132
   9   0.0000       0.078977         2.1491
  10   0.0000       0.115943         3.1550
  11   0.0000       0.151766         4.1298
  12   0.0000       0.156942         4.2706
  13   0.0000       0.187017         5.0890

MULLIKEN ATOMIC CHARGES
-----------------------
   0 C :    0.000091
   1 O :    0.000027
   2 H :   -0.000099
   3 H :   -0.000134
   4 H :   -0.000099
   5 H :    0.000003
   6 C :   -0.161482
   7 O :   -0.474256
   8 H :    0.318177
   9 H :    0.116940
  10 H :    0.095813
  11 H :    0.105017
Sum of atomic charges:   -0.0000000

LOEWDIN ATOMIC CHARGES
----------------------
   0 C :   -0.000322
   1 O :   -0.000281
   2 H :   -0.000190
   3 H :   -0.000071
   4 H :   -0.000070
   5 H :   -0.000008
   6 C :   -0.392722
   7 O :   -0.073370
   8 H :    0.181780
   9 H :    0.095699
  10 H :    0.101742
  11 H :    0.087814

  Mayer bond orders larger than 0.1
B(  6-C ,  7-O ) :   1.0081 B(  6-C ,  9-H ) :   0.9742 B(  6-C , 10-H ) :   0.9791
B(  6-C , 11-H ) :   0.9770 B(  7-O ,  8-H ) :   0.8962

Dispersion correction           -0.000239456
FINAL SINGLE POINT ENERGY      -115.732043732480

DIPOLE MOMENT
-------------
                                X             Y             Z
Electronic contribution:     -0.01400       1.03195      -1.57460
Nuclear contribution   :     -0.01344      -1.69155       1.63897
                        -----------------------------------------
Total Dipole Moment    :     -0.02744      -0.65961       0.06438
                        -----------------------------------------
Magnitude (a.u.)       :      0.66331
Magnitude (Debye)      :      1.68599

Rotational constants in cm-1:     4.480445     0.835131     0.812547
Rotational constants in MHz : 134320.370961 25036.608603 24359.544812

                             ****ORCA TERMINATED NORMALLY****
TOTAL RUN TIME: 0 days 0 hours 0 minutes 48 seconds 736 msec
