                         Program Version 4.1.2  - RELEASE  -
|  1> #Run DFT-D3 single point of the dimer
|  2> ! wB97X-D3 def2-TZVP TIGHTSCF CHELPG PMODEL PAL8
|  3>
|  4> %base "12-200_DFT_AB"
|  5>
|  6> %scf
|  7> MaxIter 1000
|  8> end
|  9>
| 10> * xyz 0 1
| 11>   C                      1.651800             10.215706            -8.233508
| 12>   O                      1.791856             10.275568            -6.868398
| 13>   H                      0.984907             10.711210            -6.547303
| 14>   H                      0.706257             10.062585            -8.627706
| 15>   H                      2.119570             11.031810            -8.745449
| 16>   H                      2.253994             9.375002             -8.615722
| 17>   C                      4.971844             8.310376             -7.024136
| 18>   O                      4.012540             8.558436             -6.046264
| 19>   H                      3.330189             9.085641             -6.525561
| 20>   H                      5.563598             9.240118             -7.265811
| 21>   H                      5.697368             7.572420             -6.663549
| 22>   H                      4.517557             7.945873             -7.973777
| 23> *
| 24>
| 25> #Run DFT-D3 single point of the molecule with dimer basis set
| 26> $new_job
| 27> %base "12-200_DFT_A"
| 28> ! wB97X-D3 def2-TZVP TIGHTSCF CHELPG PMODEL
| 29>
| 30> %scf
| 31> MaxIter 1000
| 32> end
| 33>
| 34> * xyz 0 1
| 35>   C                      1.651800             10.215706            -8.233508
| 36>   O                      1.791856             10.275568            -6.868398
| 37>   H                      0.984907             10.711210            -6.547303
| 38>   H                      0.706257             10.062585            -8.627706
| 39>   H                      2.119570             11.031810            -8.745449
| 40>   H                      2.253994             9.375002             -8.615722
| 41>   C                    : 4.971844             8.310376             -7.024136
| 42>   O                    : 4.012540             8.558436             -6.046264
| 43>   H                    : 3.330189             9.085641             -6.525561
| 44>   H                    : 5.563598             9.240118             -7.265811
| 45>   H                    : 5.697368             7.572420             -6.663549
| 46>   H                    : 4.517557             7.945873             -7.973777
| 47> *
| 48>
| 49> #Run DFT-D3 single point of the particle with dimer basis set
| 50> $new_job
| 51> %base "12-200_DFT_B"
| 52> ! wB97X-D3 def2-TZVP TIGHTSCF CHELPG PMODEL
| 53>
| 54> %scf
| 55> MaxIter 1000
| 56> end
| 57>
| 58> * xyz 0 1
| 59>   C                    : 1.651800             10.215706            -8.233508
| 60>   O                    : 1.791856             10.275568            -6.868398
| 61>   H                    : 0.984907             10.711210            -6.547303
| 62>   H                    : 0.706257             10.062585            -8.627706
| 63>   H                    : 2.119570             11.031810            -8.745449
| 64>   H                    : 2.253994             9.375002             -8.615722
| 65>   C                      4.971844             8.310376             -7.024136
| 66>   O                      4.012540             8.558436             -6.046264
| 67>   H                      3.330189             9.085641             -6.525561
| 68>   H                      5.563598             9.240118             -7.265811
| 69>   H                      5.697368             7.572420             -6.663549
| 70>   H                      4.517557             7.945873             -7.973777
| 71> *
| 72>
| 73>                          ****END OF INPUT****
 Total Charge           Charge          ....    0
 Multiplicity           Mult            ....    1
 Number of Electrons    NEL             ....   36
Dispersion correction           -0.001863998
FINAL SINGLE POINT ENERGY      -231.470549131960
Dispersion correction           -0.000228963
FINAL SINGLE POINT ENERGY      -115.730100798703

CARTESIAN COORDINATES (ANGSTROEM)
---------------------------------
  C      1.651800   10.215706   -8.233508
  O      1.791856   10.275568   -6.868398
  H      0.984907   10.711210   -6.547303
  H      0.706257   10.062585   -8.627706
  H      2.119570   11.031810   -8.745449
  H      2.253994    9.375002   -8.615722
  C      4.971844    8.310376   -7.024136
  O      4.012540    8.558436   -6.046264
  H      3.330189    9.085641   -6.525561
  H      5.563598    9.240118   -7.265811
  H      5.697368    7.572420   -6.663549
  H      4.517557    7.945873   -7.973777

 Multiplicity           Mult            ....    1
 Number of Electrons    NEL             ....   18
 Basis Dimension        Dim             ....  172

ORBITAL ENERGIES
----------------

  NO   OCC          E(Eh)            E(eV)
   0   2.0000     -19.235847      -523.4340
   1   2.0000     -10.316852      -280.7358
   2   2.0000      -1.143021       -31.1032
   3   2.0000      -0.786064       -21.3899
   4   2.0000      -0.611605       -16.6426
   5   2.0000      -0.539417       -14.6783
   6   2.0000      -0.530059       -14.4236
   7   2.0000      -0.437159       -11.8957
   8   2.0000      -0.371237       -10.1019
   9   0.0000       0.066932         1.8213
  10   0.0000       0.134012         3.6466
  11   0.0000       0.147647         4.0177
  12   0.0000       0.169741         4.6189
  13   0.0000       0.183677         4.9981

MULLIKEN ATOMIC CHARGES
-----------------------
   0 C :   -0.002488
   1 O :   -0.000717
   2 H :   -0.000091
   3 H :   -0.000096
   4 H :    0.000159
   5 H :   -0.000334
   6 C :   -0.174295
   7 O :   -0.454372
   8 H :    0.314445
   9 H :    0.096461
  10 H :    0.122932
  11 H :    0.098396
Sum of atomic charges:    0.0000000

LOEWDIN ATOMIC CHARGES
----------------------
   0 C :   -0.007041
   1 O :   -0.017677
   2 H :   -0.000696
   3 H :   -0.000121
   4 H :   -0.000127
   5 H :   -0.002329
   6 C :   -0.414715
   7 O :   -0.059548
   8 H :    0.200363
   9 H :    0.097924
  10 H :    0.107729
  11 H :    0.096239

  Mayer bond orders larger than 0.1
B(  6-C ,  7-O ) :   0.9999 B(  6-C ,  9-H ) :   0.9730 B(  6-C , 10-H ) :   0.9730
B(  6-C , 11-H ) :   0.9762 B(  7-O ,  8-H ) :   0.9045

Dispersion correction           -0.000229082
FINAL SINGLE POINT ENERGY      -115.734879349096

DIPOLE MOMENT
-------------
                                X             Y             Z
Electronic contribution:     -1.21745       0.18297       1.45503
Nuclear contribution   :      1.15218       0.03091      -2.09732
                        -----------------------------------------
Total Dipole Moment    :     -0.06527       0.21388      -0.64230
                        -----------------------------------------
Magnitude (a.u.)       :      0.68011
Magnitude (Debye)      :      1.72870

Rotational constants in cm-1:     4.105512     0.853016     0.818458
Rotational constants in MHz : 123080.158759 25572.766437 24536.738595

                             ****ORCA TERMINATED NORMALLY****
TOTAL RUN TIME: 0 days 0 hours 1 minutes 15 seconds 26 msec
