                         Program Version 4.1.2  - RELEASE  -
|  1> #Run DFT-D3 single point of the dimer
|  2> ! wB97X-D3 def2-TZVP TIGHTSCF CHELPG PMODEL PAL8
|  3>
|  4> %base "5-144_DFT_AB"
|  5>
|  6> %scf
|  7> MaxIter 1000
|  8> end
|  9>
| 10> * xyz 0 1
| 11>   C                      0.030276             8.955928             9.883747
| 12>   O                      1.032094             8.316383             9.107599
| 13>   H                      0.648748             7.451545             8.822991
| 14>   H                      0.078628             8.686118             10.913440
| 15>   H                      0.075014             10.061676            9.899508
| 16>   H                      -1.002896            8.768820             9.483900
| 17>   C                      -0.005197            9.732599             4.320077
| 18>   O                      -1.111136            9.843212             5.205328
| 19>   H                      -1.911417            9.934216             4.663222
| 20>   H                      -0.160157            8.853848             3.759485
| 21>   H                      -0.001370            10.560316            3.644642
| 22>   H                      0.975926             9.730115             4.840877
| 23> *
| 24>
| 25> #Run DFT-D3 single point of the molecule with dimer basis set
| 26> $new_job
| 27> %base "5-144_DFT_A"
| 28> ! wB97X-D3 def2-TZVP TIGHTSCF CHELPG PMODEL
| 29>
| 30> %scf
| 31> MaxIter 1000
| 32> end
| 33>
| 34> * xyz 0 1
| 35>   C                      0.030276             8.955928             9.883747
| 36>   O                      1.032094             8.316383             9.107599
| 37>   H                      0.648748             7.451545             8.822991
| 38>   H                      0.078628             8.686118             10.913440
| 39>   H                      0.075014             10.061676            9.899508
| 40>   H                      -1.002896            8.768820             9.483900
| 41>   C                    : -0.005197            9.732599             4.320077
| 42>   O                    : -1.111136            9.843212             5.205328
| 43>   H                    : -1.911417            9.934216             4.663222
| 44>   H                    : -0.160157            8.853848             3.759485
| 45>   H                    : -0.001370            10.560316            3.644642
| 46>   H                    : 0.975926             9.730115             4.840877
| 47> *
| 48>
| 49> #Run DFT-D3 single point of the particle with dimer basis set
| 50> $new_job
| 51> %base "5-144_DFT_B"
| 52> ! wB97X-D3 def2-TZVP TIGHTSCF CHELPG PMODEL
| 53>
| 54> %scf
| 55> MaxIter 1000
| 56> end
| 57>
| 58> * xyz 0 1
| 59>   C                    : 0.030276             8.955928             9.883747
| 60>   O                    : 1.032094             8.316383             9.107599
| 61>   H                    : 0.648748             7.451545             8.822991
| 62>   H                    : 0.078628             8.686118             10.913440
| 63>   H                    : 0.075014             10.061676            9.899508
| 64>   H                    : -1.002896            8.768820             9.483900
| 65>   C                      -0.005197            9.732599             4.320077
| 66>   O                      -1.111136            9.843212             5.205328
| 67>   H                      -1.911417            9.934216             4.663222
| 68>   H                      -0.160157            8.853848             3.759485
| 69>   H                      -0.001370            10.560316            3.644642
| 70>   H                      0.975926             9.730115             4.840877
| 71> *
| 72>
| 73>                          ****END OF INPUT****
 Total Charge           Charge          ....    0
 Multiplicity           Mult            ....    1
 Number of Electrons    NEL             ....   36
Dispersion correction           -0.000729985
FINAL SINGLE POINT ENERGY      -231.465379559318
Dispersion correction           -0.000256077
FINAL SINGLE POINT ENERGY      -115.732157152718

CARTESIAN COORDINATES (ANGSTROEM)
---------------------------------
  C      0.030276    8.955928    9.883747
  O      1.032094    8.316383    9.107599
  H      0.648748    7.451545    8.822991
  H      0.078628    8.686118   10.913440
  H      0.075014   10.061676    9.899508
  H     -1.002896    8.768820    9.483900
  C     -0.005197    9.732599    4.320077
  O     -1.111136    9.843212    5.205328
  H     -1.911417    9.934216    4.663222
  H     -0.160157    8.853848    3.759485
  H     -0.001370   10.560316    3.644642
  H      0.975926    9.730115    4.840877

 Multiplicity           Mult            ....    1
 Number of Electrons    NEL             ....   18
 Basis Dimension        Dim             ....  172

ORBITAL ENERGIES
----------------

  NO   OCC          E(Eh)            E(eV)
   0   2.0000     -19.226739      -523.1862
   1   2.0000     -10.307843      -280.4907
   2   2.0000      -1.130682       -30.7674
   3   2.0000      -0.796720       -21.6798
   4   2.0000      -0.607383       -16.5277
   5   2.0000      -0.549121       -14.9424
   6   2.0000      -0.526988       -14.3401
   7   2.0000      -0.432275       -11.7628
   8   2.0000      -0.370745       -10.0885
   9   0.0000       0.094637         2.5752
  10   0.0000       0.115196         3.1347
  11   0.0000       0.155151         4.2219
  12   0.0000       0.172142         4.6842
  13   0.0000       0.197225         5.3668

MULLIKEN ATOMIC CHARGES
-----------------------
   0 C :   -0.000278
   1 O :    0.000022
   2 H :   -0.000042
   3 H :   -0.000030
   4 H :    0.000028
   5 H :   -0.000243
   6 C :   -0.159319
   7 O :   -0.482094
   8 H :    0.313805
   9 H :    0.107135
  10 H :    0.101459
  11 H :    0.119557
Sum of atomic charges:    0.0000000

LOEWDIN ATOMIC CHARGES
----------------------
   0 C :   -0.000180
   1 O :   -0.000010
   2 H :   -0.000027
   3 H :   -0.000008
   4 H :   -0.000009
   5 H :   -0.000114
   6 C :   -0.371923
   7 O :   -0.093033
   8 H :    0.174580
   9 H :    0.088015
  10 H :    0.089069
  11 H :    0.113641

  Mayer bond orders larger than 0.1
B(  6-C ,  7-O ) :   0.9852 B(  6-C ,  9-H ) :   0.9858 B(  6-C , 10-H ) :   0.9816
B(  6-C , 11-H ) :   0.9693 B(  7-O ,  8-H ) :   0.8978

Dispersion correction           -0.000216706
FINAL SINGLE POINT ENERGY      -115.732809359087

DIPOLE MOMENT
-------------
                                X             Y             Z
Electronic contribution:     -1.22959       0.10216       1.23813
Nuclear contribution   :      1.18195      -0.08505      -1.95719
                        -----------------------------------------
Total Dipole Moment    :     -0.04763       0.01711      -0.71906
                        -----------------------------------------
Magnitude (a.u.)       :      0.72084
Magnitude (Debye)      :      1.83222

Rotational constants in cm-1:     4.351346     0.834532     0.799153
Rotational constants in MHz : 130450.062799 25018.653877 23957.996719

                             ****ORCA TERMINATED NORMALLY****
TOTAL RUN TIME: 0 days 0 hours 0 minutes 58 seconds 351 msec
