                         Program Version 4.1.2  - RELEASE  -
|  1> #Run DFT-D3 single point of the dimer
|  2> ! wB97X-D3 def2-TZVP TIGHTSCF CHELPG PMODEL PAL8
|  3>
|  4> %base "3-135_DFT_AB"
|  5>
|  6> %scf
|  7> MaxIter 1000
|  8> end
|  9>
| 10> * xyz 0 1
| 11>   C                      -7.916342            -6.777899            -3.497241
| 12>   O                      -8.592063            -7.645050            -2.610539
| 13>   H                      -8.289805            -7.563570            -1.732779
| 14>   H                      -6.857783            -7.080269            -3.642114
| 15>   H                      -8.305381            -6.748343            -4.490312
| 16>   H                      -8.036397            -5.738256            -3.130291
| 17>   C                      -10.413466           -10.723663           -3.856437
| 18>   O                      -10.827826           -10.717090           -5.250353
| 19>   H                      -10.582442           -11.441737           -5.836432
| 20>   H                      -9.620947            -10.008269           -3.726633
| 21>   H                      -11.212043           -10.359949           -3.189746
| 22>   H                      -10.039913           -11.709414           -3.515665
| 23> *
| 24>
| 25> #Run DFT-D3 single point of the molecule with dimer basis set
| 26> $new_job
| 27> %base "3-135_DFT_A"
| 28> ! wB97X-D3 def2-TZVP TIGHTSCF CHELPG PMODEL
| 29>
| 30> %scf
| 31> MaxIter 1000
| 32> end
| 33>
| 34> * xyz 0 1
| 35>   C                      -7.916342            -6.777899            -3.497241
| 36>   O                      -8.592063            -7.645050            -2.610539
| 37>   H                      -8.289805            -7.563570            -1.732779
| 38>   H                      -6.857783            -7.080269            -3.642114
| 39>   H                      -8.305381            -6.748343            -4.490312
| 40>   H                      -8.036397            -5.738256            -3.130291
| 41>   C                    : -10.413466           -10.723663           -3.856437
| 42>   O                    : -10.827826           -10.717090           -5.250353
| 43>   H                    : -10.582442           -11.441737           -5.836432
| 44>   H                    : -9.620947            -10.008269           -3.726633
| 45>   H                    : -11.212043           -10.359949           -3.189746
| 46>   H                    : -10.039913           -11.709414           -3.515665
| 47> *
| 48>
| 49> #Run DFT-D3 single point of the particle with dimer basis set
| 50> $new_job
| 51> %base "3-135_DFT_B"
| 52> ! wB97X-D3 def2-TZVP TIGHTSCF CHELPG PMODEL
| 53>
| 54> %scf
| 55> MaxIter 1000
| 56> end
| 57>
| 58> * xyz 0 1
| 59>   C                    : -7.916342            -6.777899            -3.497241
| 60>   O                    : -8.592063            -7.645050            -2.610539
| 61>   H                    : -8.289805            -7.563570            -1.732779
| 62>   H                    : -6.857783            -7.080269            -3.642114
| 63>   H                    : -8.305381            -6.748343            -4.490312
| 64>   H                    : -8.036397            -5.738256            -3.130291
| 65>   C                      -10.413466           -10.723663           -3.856437
| 66>   O                      -10.827826           -10.717090           -5.250353
| 67>   H                      -10.582442           -11.441737           -5.836432
| 68>   H                      -9.620947            -10.008269           -3.726633
| 69>   H                      -11.212043           -10.359949           -3.189746
| 70>   H                      -10.039913           -11.709414           -3.515665
| 71> *
| 72>
| 73>                          ****END OF INPUT****
 Total Charge           Charge          ....    0
 Multiplicity           Mult            ....    1
 Number of Electrons    NEL             ....   36
Dispersion correction           -0.001275446
FINAL SINGLE POINT ENERGY      -231.463656505318
Dispersion correction           -0.000249556
FINAL SINGLE POINT ENERGY      -115.732528717822

CARTESIAN COORDINATES (ANGSTROEM)
---------------------------------
  C     -7.916342   -6.777899   -3.497241
  O     -8.592063   -7.645050   -2.610539
  H     -8.289805   -7.563570   -1.732779
  H     -6.857783   -7.080269   -3.642114
  H     -8.305381   -6.748343   -4.490312
  H     -8.036397   -5.738256   -3.130291
  C    -10.413466  -10.723663   -3.856437
  O    -10.827826  -10.717090   -5.250353
  H    -10.582442  -11.441737   -5.836432
  H     -9.620947  -10.008269   -3.726633
  H    -11.212043  -10.359949   -3.189746
  H    -10.039913  -11.709414   -3.515665

 Multiplicity           Mult            ....    1
 Number of Electrons    NEL             ....   18
 Basis Dimension        Dim             ....  172

ORBITAL ENERGIES
----------------

  NO   OCC          E(Eh)            E(eV)
   0   2.0000     -19.223775      -523.1055
   1   2.0000     -10.319484      -280.8074
   2   2.0000      -1.114528       -30.3278
   3   2.0000      -0.801838       -21.8191
   4   2.0000      -0.605102       -16.4657
   5   2.0000      -0.531366       -14.4592
   6   2.0000      -0.528541       -14.3823
   7   2.0000      -0.421294       -11.4640
   8   2.0000      -0.370497       -10.0817
   9   0.0000       0.084832         2.3084
  10   0.0000       0.116848         3.1796
  11   0.0000       0.145486         3.9589
  12   0.0000       0.170802         4.6478
  13   0.0000       0.186077         5.0634

MULLIKEN ATOMIC CHARGES
-----------------------
   0 C :    0.000374
   1 O :   -0.000041
   2 H :   -0.000100
   3 H :   -0.000111
   4 H :    0.000092
   5 H :    0.000019
   6 C :   -0.149533
   7 O :   -0.515247
   8 H :    0.323360
   9 H :    0.114084
  10 H :    0.120982
  11 H :    0.106121
Sum of atomic charges:    0.0000000

LOEWDIN ATOMIC CHARGES
----------------------
   0 C :   -0.000833
   1 O :   -0.002468
   2 H :   -0.000245
   3 H :   -0.000033
   4 H :   -0.000064
   5 H :   -0.000016
   6 C :   -0.350016
   7 O :   -0.115183
   8 H :    0.165131
   9 H :    0.095723
  10 H :    0.108460
  11 H :    0.099545

  Mayer bond orders larger than 0.1
B(  6-C ,  7-O ) :   0.9877 B(  6-C ,  9-H ) :   0.9751 B(  6-C , 10-H ) :   0.9715
B(  6-C , 11-H ) :   0.9775 B(  7-O ,  8-H ) :   0.8886

Dispersion correction           -0.000291889
FINAL SINGLE POINT ENERGY      -115.729662144896

DIPOLE MOMENT
-------------
                                X             Y             Z
Electronic contribution:     -0.57627       0.03455      -1.67799
Nuclear contribution   :      0.93607      -0.52432       1.91082
                        -----------------------------------------
Total Dipole Moment    :      0.35980      -0.48977       0.23283
                        -----------------------------------------
Magnitude (a.u.)       :      0.65080
Magnitude (Debye)      :      1.65419

Rotational constants in cm-1:     4.483001     0.778922     0.750245
Rotational constants in MHz : 134397.000092 23351.493401 22491.787088

                             ****ORCA TERMINATED NORMALLY****
TOTAL RUN TIME: 0 days 0 hours 6 minutes 0 seconds 546 msec
