                         Program Version 4.1.2  - RELEASE  -
|  1> #Run DFT-D3 single point of the dimer
|  2> ! wB97X-D3 def2-TZVP TIGHTSCF CHELPG PMODEL PAL8
|  3>
|  4> %base "21-167_DFT_AB"
|  5>
|  6> %scf
|  7> MaxIter 1000
|  8> end
|  9>
| 10> * xyz 0 1
| 11>   C                      -0.476332            5.228080             -3.863871
| 12>   O                      0.558869             4.308490             -3.545075
| 13>   H                      0.259840             3.888630             -2.740243
| 14>   H                      -0.393640            5.740900             -4.847753
| 15>   H                      -1.548750            4.885884             -3.895985
| 16>   H                      -0.448631            6.086702             -3.136892
| 17>   C                      3.033606             5.650073             -5.770058
| 18>   O                      2.795399             4.344122             -5.250891
| 19>   H                      1.932104             4.467012             -4.856824
| 20>   H                      2.852258             6.364832             -4.980401
| 21>   H                      4.038197             5.794201             -6.047904
| 22>   H                      2.378777             5.976326             -6.520583
| 23> *
| 24>
| 25> #Run DFT-D3 single point of the molecule with dimer basis set
| 26> $new_job
| 27> %base "21-167_DFT_A"
| 28> ! wB97X-D3 def2-TZVP TIGHTSCF CHELPG PMODEL
| 29>
| 30> %scf
| 31> MaxIter 1000
| 32> end
| 33>
| 34> * xyz 0 1
| 35>   C                      -0.476332            5.228080             -3.863871
| 36>   O                      0.558869             4.308490             -3.545075
| 37>   H                      0.259840             3.888630             -2.740243
| 38>   H                      -0.393640            5.740900             -4.847753
| 39>   H                      -1.548750            4.885884             -3.895985
| 40>   H                      -0.448631            6.086702             -3.136892
| 41>   C                    : 3.033606             5.650073             -5.770058
| 42>   O                    : 2.795399             4.344122             -5.250891
| 43>   H                    : 1.932104             4.467012             -4.856824
| 44>   H                    : 2.852258             6.364832             -4.980401
| 45>   H                    : 4.038197             5.794201             -6.047904
| 46>   H                    : 2.378777             5.976326             -6.520583
| 47> *
| 48>
| 49> #Run DFT-D3 single point of the particle with dimer basis set
| 50> $new_job
| 51> %base "21-167_DFT_B"
| 52> ! wB97X-D3 def2-TZVP TIGHTSCF CHELPG PMODEL
| 53>
| 54> %scf
| 55> MaxIter 1000
| 56> end
| 57>
| 58> * xyz 0 1
| 59>   C                    : -0.476332            5.228080             -3.863871
| 60>   O                    : 0.558869             4.308490             -3.545075
| 61>   H                    : 0.259840             3.888630             -2.740243
| 62>   H                    : -0.393640            5.740900             -4.847753
| 63>   H                    : -1.548750            4.885884             -3.895985
| 64>   H                    : -0.448631            6.086702             -3.136892
| 65>   C                      3.033606             5.650073             -5.770058
| 66>   O                      2.795399             4.344122             -5.250891
| 67>   H                      1.932104             4.467012             -4.856824
| 68>   H                      2.852258             6.364832             -4.980401
| 69>   H                      4.038197             5.794201             -6.047904
| 70>   H                      2.378777             5.976326             -6.520583
| 71> *
| 72>
| 73>                          ****END OF INPUT****
 Total Charge           Charge          ....    0
 Multiplicity           Mult            ....    1
 Number of Electrons    NEL             ....   36
Dispersion correction           -0.001919400
FINAL SINGLE POINT ENERGY      -231.465788504273
Dispersion correction           -0.000272320
FINAL SINGLE POINT ENERGY      -115.730282440249

CARTESIAN COORDINATES (ANGSTROEM)
---------------------------------
  C     -0.476332    5.228080   -3.863871
  O      0.558869    4.308490   -3.545075
  H      0.259840    3.888630   -2.740243
  H     -0.393640    5.740900   -4.847753
  H     -1.548750    4.885884   -3.895985
  H     -0.448631    6.086702   -3.136892
  C      3.033606    5.650073   -5.770058
  O      2.795399    4.344122   -5.250891
  H      1.932104    4.467012   -4.856824
  H      2.852258    6.364832   -4.980401
  H      4.038197    5.794201   -6.047904
  H      2.378777    5.976326   -6.520583

 Multiplicity           Mult            ....    1
 Number of Electrons    NEL             ....   18
 Basis Dimension        Dim             ....  172

ORBITAL ENERGIES
----------------

  NO   OCC          E(Eh)            E(eV)
   0   2.0000     -19.232825      -523.3518
   1   2.0000     -10.303007      -280.3591
   2   2.0000      -1.138763       -30.9873
   3   2.0000      -0.803275       -21.8582
   4   2.0000      -0.613577       -16.6963
   5   2.0000      -0.542064       -14.7503
   6   2.0000      -0.530255       -14.4290
   7   2.0000      -0.447646       -12.1811
   8   2.0000      -0.374495       -10.1905
   9   0.0000       0.066517         1.8100
  10   0.0000       0.136131         3.7043
  11   0.0000       0.145591         3.9617
  12   0.0000       0.169648         4.6164
  13   0.0000       0.184653         5.0247

MULLIKEN ATOMIC CHARGES
-----------------------
   0 C :   -0.002216
   1 O :   -0.003264
   2 H :   -0.000323
   3 H :    0.000265
   4 H :   -0.000020
   5 H :   -0.000020
   6 C :   -0.179510
   7 O :   -0.460974
   8 H :    0.311618
   9 H :    0.101369
  10 H :    0.125343
  11 H :    0.107729
Sum of atomic charges:   -0.0000000

LOEWDIN ATOMIC CHARGES
----------------------
   0 C :   -0.005878
   1 O :   -0.021709
   2 H :   -0.000936
   3 H :   -0.000829
   4 H :   -0.000078
   5 H :   -0.000119
   6 C :   -0.368411
   7 O :   -0.065869
   8 H :    0.180652
   9 H :    0.096032
  10 H :    0.100432
  11 H :    0.086712

  Mayer bond orders larger than 0.1
B(  6-C ,  7-O ) :   0.9908 B(  6-C ,  9-H ) :   0.9864 B(  6-C , 10-H ) :   0.9759
B(  6-C , 11-H ) :   0.9729 B(  7-O ,  8-H ) :   0.9130

Dispersion correction           -0.000212335
FINAL SINGLE POINT ENERGY      -115.730294111143

DIPOLE MOMENT
-------------
                                X             Y             Z
Electronic contribution:     -0.10752      -1.82440       0.45647
Nuclear contribution   :     -0.32023       2.43909      -0.41608
                        -----------------------------------------
Total Dipole Moment    :     -0.42775       0.61470       0.04039
                        -----------------------------------------
Magnitude (a.u.)       :      0.74997
Magnitude (Debye)      :      1.90626

Rotational constants in cm-1:     4.517609     0.834461     0.797589
Rotational constants in MHz : 135434.513004 25016.520401 23911.118812

                             ****ORCA TERMINATED NORMALLY****
TOTAL RUN TIME: 0 days 0 hours 1 minutes 7 seconds 572 msec
