                         Program Version 4.1.2  - RELEASE  -
|  1> #Run DFT-D3 single point of the dimer
|  2> ! wB97X-D3 def2-TZVP TIGHTSCF CHELPG PMODEL PAL8
|  3>
|  4> %base "19-69_DFT_AB"
|  5>
|  6> %scf
|  7> MaxIter 1000
|  8> end
|  9>
| 10> * xyz 0 1
| 11>   C                      -0.575067            -10.156360           7.923037
| 12>   O                      0.034573             -8.867391            8.103202
| 13>   H                      0.063083             -8.534555            7.191090
| 14>   H                      -0.260916            -10.777409           8.756213
| 15>   H                      -1.647497            -10.080484           7.981376
| 16>   H                      -0.388357            -10.646817           7.019382
| 17>   C                      -4.824653            -10.147423           5.995258
| 18>   O                      -3.540694            -9.794573            6.520729
| 19>   H                      -3.402781            -8.849417            6.277806
| 20>   H                      -5.412021            -9.291457            5.854448
| 21>   H                      -4.591156            -10.588656           5.073679
| 22>   H                      -5.447185            -10.807198           6.600243
| 23> *
| 24>
| 25> #Run DFT-D3 single point of the molecule with dimer basis set
| 26> $new_job
| 27> %base "19-69_DFT_A"
| 28> ! wB97X-D3 def2-TZVP TIGHTSCF CHELPG PMODEL
| 29>
| 30> %scf
| 31> MaxIter 1000
| 32> end
| 33>
| 34> * xyz 0 1
| 35>   C                      -0.575067            -10.156360           7.923037
| 36>   O                      0.034573             -8.867391            8.103202
| 37>   H                      0.063083             -8.534555            7.191090
| 38>   H                      -0.260916            -10.777409           8.756213
| 39>   H                      -1.647497            -10.080484           7.981376
| 40>   H                      -0.388357            -10.646817           7.019382
| 41>   C                    : -4.824653            -10.147423           5.995258
| 42>   O                    : -3.540694            -9.794573            6.520729
| 43>   H                    : -3.402781            -8.849417            6.277806
| 44>   H                    : -5.412021            -9.291457            5.854448
| 45>   H                    : -4.591156            -10.588656           5.073679
| 46>   H                    : -5.447185            -10.807198           6.600243
| 47> *
| 48>
| 49> #Run DFT-D3 single point of the particle with dimer basis set
| 50> $new_job
| 51> %base "19-69_DFT_B"
| 52> ! wB97X-D3 def2-TZVP TIGHTSCF CHELPG PMODEL
| 53>
| 54> %scf
| 55> MaxIter 1000
| 56> end
| 57>
| 58> * xyz 0 1
| 59>   C                    : -0.575067            -10.156360           7.923037
| 60>   O                    : 0.034573             -8.867391            8.103202
| 61>   H                    : 0.063083             -8.534555            7.191090
| 62>   H                    : -0.260916            -10.777409           8.756213
| 63>   H                    : -1.647497            -10.080484           7.981376
| 64>   H                    : -0.388357            -10.646817           7.019382
| 65>   C                      -4.824653            -10.147423           5.995258
| 66>   O                      -3.540694            -9.794573            6.520729
| 67>   H                      -3.402781            -8.849417            6.277806
| 68>   H                      -5.412021            -9.291457            5.854448
| 69>   H                      -4.591156            -10.588656           5.073679
| 70>   H                      -5.447185            -10.807198           6.600243
| 71> *
| 72>
| 73>                          ****END OF INPUT****
 Total Charge           Charge          ....    0
 Multiplicity           Mult            ....    1
 Number of Electrons    NEL             ....   36
Dispersion correction           -0.001442802
FINAL SINGLE POINT ENERGY      -231.461694461712
Dispersion correction           -0.000234221
FINAL SINGLE POINT ENERGY      -115.732231787559

CARTESIAN COORDINATES (ANGSTROEM)
---------------------------------
  C     -0.575067  -10.156360    7.923037
  O      0.034573   -8.867391    8.103202
  H      0.063083   -8.534555    7.191090
  H     -0.260916  -10.777409    8.756213
  H     -1.647497  -10.080484    7.981376
  H     -0.388357  -10.646817    7.019382
  C     -4.824653  -10.147423    5.995258
  O     -3.540694   -9.794573    6.520729
  H     -3.402781   -8.849417    6.277806
  H     -5.412021   -9.291457    5.854448
  H     -4.591156  -10.588656    5.073679
  H     -5.447185  -10.807198    6.600243

 Multiplicity           Mult            ....    1
 Number of Electrons    NEL             ....   18
 Basis Dimension        Dim             ....  172

ORBITAL ENERGIES
----------------

  NO   OCC          E(Eh)            E(eV)
   0   2.0000     -19.229891      -523.2719
   1   2.0000     -10.303676      -280.3773
   2   2.0000      -1.126768       -30.6609
   3   2.0000      -0.800247       -21.7758
   4   2.0000      -0.606563       -16.5054
   5   2.0000      -0.550393       -14.9770
   6   2.0000      -0.526311       -14.3217
   7   2.0000      -0.434172       -11.8144
   8   2.0000      -0.372340       -10.1319
   9   0.0000       0.093749         2.5510
  10   0.0000       0.123841         3.3699
  11   0.0000       0.156766         4.2658
  12   0.0000       0.175825         4.7844
  13   0.0000       0.197832         5.3833

MULLIKEN ATOMIC CHARGES
-----------------------
   0 C :    0.007444
   1 O :   -0.000125
   2 H :   -0.000268
   3 H :   -0.000544
   4 H :   -0.014969
   5 H :   -0.002578
   6 C :   -0.164748
   7 O :   -0.470652
   8 H :    0.317148
   9 H :    0.106247
  10 H :    0.110299
  11 H :    0.112746
Sum of atomic charges:   -0.0000000

LOEWDIN ATOMIC CHARGES
----------------------
   0 C :   -0.008948
   1 O :   -0.000035
   2 H :   -0.000093
   3 H :   -0.000060
   4 H :   -0.014873
   5 H :   -0.001181
   6 C :   -0.360131
   7 O :   -0.085268
   8 H :    0.185650
   9 H :    0.088500
  10 H :    0.091948
  11 H :    0.104493

  Mayer bond orders larger than 0.1
B(  6-C ,  7-O ) :   0.9911 B(  6-C ,  9-H ) :   0.9833 B(  6-C , 10-H ) :   0.9865
B(  6-C , 11-H ) :   0.9714 B(  7-O ,  8-H ) :   0.8955

Dispersion correction           -0.000224396
FINAL SINGLE POINT ENERGY      -115.728219562611

DIPOLE MOMENT
-------------
                                X             Y             Z
Electronic contribution:      1.55924       0.26638       0.74191
Nuclear contribution   :     -2.03121       0.20452      -1.12405
                        -----------------------------------------
Total Dipole Moment    :     -0.47198       0.47090      -0.38213
                        -----------------------------------------
Magnitude (a.u.)       :      0.76846
Magnitude (Debye)      :      1.95328

Rotational constants in cm-1:     4.452113     0.822404     0.795052
Rotational constants in MHz : 133470.990674 24655.056657 23835.060229

                             ****ORCA TERMINATED NORMALLY****
TOTAL RUN TIME: 0 days 0 hours 2 minutes 22 seconds 962 msec
