                         Program Version 4.1.2  - RELEASE  -
|  1> #Run DFT-D3 single point of the dimer
|  2> ! wB97X-D3 def2-TZVP TIGHTSCF CHELPG PMODEL PAL8
|  3>
|  4> %base "22-83_DFT_AB"
|  5>
|  6> %scf
|  7> MaxIter 1000
|  8> end
|  9>
| 10> * xyz 0 1
| 11>   C                      2.808889             0.844054             -8.414163
| 12>   O                      2.751306             -0.322919            -7.643315
| 13>   H                      2.321928             -0.062151            -6.767259
| 14>   H                      3.391022             0.885911             -9.374107
| 15>   H                      1.750066             0.987597             -8.760820
| 16>   H                      3.044555             1.683032             -7.747926
| 17>   C                      4.528630             2.039462             -5.128029
| 18>   O                      4.867166             0.760606             -4.647254
| 19>   H                      4.537975             0.701861             -3.774986
| 20>   H                      3.432986             2.102369             -5.175460
| 21>   H                      4.983056             2.835476             -4.470874
| 22>   H                      5.000534             2.221187             -6.109668
| 23> *
| 24>
| 25> #Run DFT-D3 single point of the molecule with dimer basis set
| 26> $new_job
| 27> %base "22-83_DFT_A"
| 28> ! wB97X-D3 def2-TZVP TIGHTSCF CHELPG PMODEL
| 29>
| 30> %scf
| 31> MaxIter 1000
| 32> end
| 33>
| 34> * xyz 0 1
| 35>   C                      2.808889             0.844054             -8.414163
| 36>   O                      2.751306             -0.322919            -7.643315
| 37>   H                      2.321928             -0.062151            -6.767259
| 38>   H                      3.391022             0.885911             -9.374107
| 39>   H                      1.750066             0.987597             -8.760820
| 40>   H                      3.044555             1.683032             -7.747926
| 41>   C                    : 4.528630             2.039462             -5.128029
| 42>   O                    : 4.867166             0.760606             -4.647254
| 43>   H                    : 4.537975             0.701861             -3.774986
| 44>   H                    : 3.432986             2.102369             -5.175460
| 45>   H                    : 4.983056             2.835476             -4.470874
| 46>   H                    : 5.000534             2.221187             -6.109668
| 47> *
| 48>
| 49> #Run DFT-D3 single point of the particle with dimer basis set
| 50> $new_job
| 51> %base "22-83_DFT_B"
| 52> ! wB97X-D3 def2-TZVP TIGHTSCF CHELPG PMODEL
| 53>
| 54> %scf
| 55> MaxIter 1000
| 56> end
| 57>
| 58> * xyz 0 1
| 59>   C                    : 2.808889             0.844054             -8.414163
| 60>   O                    : 2.751306             -0.322919            -7.643315
| 61>   H                    : 2.321928             -0.062151            -6.767259
| 62>   H                    : 3.391022             0.885911             -9.374107
| 63>   H                    : 1.750066             0.987597             -8.760820
| 64>   H                    : 3.044555             1.683032             -7.747926
| 65>   C                      4.528630             2.039462             -5.128029
| 66>   O                      4.867166             0.760606             -4.647254
| 67>   H                      4.537975             0.701861             -3.774986
| 68>   H                      3.432986             2.102369             -5.175460
| 69>   H                      4.983056             2.835476             -4.470874
| 70>   H                      5.000534             2.221187             -6.109668
| 71> *
| 72>
| 73>                          ****END OF INPUT****
 Total Charge           Charge          ....    0
 Multiplicity           Mult            ....    1
 Number of Electrons    NEL             ....   36
Dispersion correction           -0.001799188
FINAL SINGLE POINT ENERGY      -231.458604879221
Dispersion correction           -0.000226306
FINAL SINGLE POINT ENERGY      -115.724064116524

CARTESIAN COORDINATES (ANGSTROEM)
---------------------------------
  C      2.808889    0.844054   -8.414163
  O      2.751306   -0.322919   -7.643315
  H      2.321928   -0.062151   -6.767259
  H      3.391022    0.885911   -9.374107
  H      1.750066    0.987597   -8.760820
  H      3.044555    1.683032   -7.747926
  C      4.528630    2.039462   -5.128029
  O      4.867166    0.760606   -4.647254
  H      4.537975    0.701861   -3.774986
  H      3.432986    2.102369   -5.175460
  H      4.983056    2.835476   -4.470874
  H      5.000534    2.221187   -6.109668

 Multiplicity           Mult            ....    1
 Number of Electrons    NEL             ....   18
 Basis Dimension        Dim             ....  172

ORBITAL ENERGIES
----------------

  NO   OCC          E(Eh)            E(eV)
   0   2.0000     -19.226618      -523.1829
   1   2.0000     -10.317674      -280.7582
   2   2.0000      -1.143993       -31.1296
   3   2.0000      -0.792603       -21.5678
   4   2.0000      -0.609782       -16.5930
   5   2.0000      -0.549990       -14.9660
   6   2.0000      -0.525903       -14.3105
   7   2.0000      -0.430481       -11.7140
   8   2.0000      -0.373568       -10.1653
   9   0.0000       0.090441         2.4610
  10   0.0000       0.122028         3.3205
  11   0.0000       0.157076         4.2743
  12   0.0000       0.169199         4.6041
  13   0.0000       0.190972         5.1966

MULLIKEN ATOMIC CHARGES
-----------------------
   0 C :    0.001843
   1 O :   -0.000008
   2 H :   -0.000561
   3 H :   -0.000172
   4 H :   -0.000122
   5 H :   -0.003461
   6 C :   -0.163407
   7 O :   -0.467909
   8 H :    0.310021
   9 H :    0.103936
  10 H :    0.100826
  11 H :    0.119014
Sum of atomic charges:    0.0000000

LOEWDIN ATOMIC CHARGES
----------------------
   0 C :   -0.002327
   1 O :   -0.000403
   2 H :   -0.001332
   3 H :   -0.000030
   4 H :   -0.000007
   5 H :   -0.004246
   6 C :   -0.390538
   7 O :   -0.062204
   8 H :    0.152451
   9 H :    0.096973
  10 H :    0.099983
  11 H :    0.111680

  Mayer bond orders larger than 0.1
B(  6-C ,  7-O ) :   0.9910 B(  6-C ,  9-H ) :   0.9801 B(  6-C , 10-H ) :   0.9719
B(  6-C , 11-H ) :   0.9711 B(  7-O ,  8-H ) :   0.9053

Dispersion correction           -0.000226650
FINAL SINGLE POINT ENERGY      -115.734469731675

DIPOLE MOMENT
-------------
                                X             Y             Z
Electronic contribution:      0.43594      -1.68373       0.45593
Nuclear contribution   :     -0.76295       2.14342      -0.09312
                        -----------------------------------------
Total Dipole Moment    :     -0.32702       0.45968       0.36281
                        -----------------------------------------
Magnitude (a.u.)       :      0.67073
Magnitude (Debye)      :      1.70487

Rotational constants in cm-1:     4.176723     0.838295     0.815357
Rotational constants in MHz : 125215.001192 25131.453096 24443.795572

                             ****ORCA TERMINATED NORMALLY****
TOTAL RUN TIME: 0 days 0 hours 0 minutes 59 seconds 151 msec
