                         Program Version 4.1.2  - RELEASE  -
|  1> #Run DFT-D3 single point of the dimer
|  2> ! wB97X-D3 def2-TZVP TIGHTSCF CHELPG PMODEL PAL8
|  3>
|  4> %base "13-64_DFT_AB"
|  5>
|  6> %scf
|  7> MaxIter 1000
|  8> end
|  9>
| 10> * xyz 0 1
| 11>   C                      6.579677             -4.656054            2.098122
| 12>   O                      6.418017             -5.253259            3.379541
| 13>   H                      5.507121             -5.599913            3.333520
| 14>   H                      5.924402             -3.782596            1.864666
| 15>   H                      7.523478             -4.087973            1.999012
| 16>   H                      6.439044             -5.427651            1.315982
| 17>   C                      6.434356             -0.699909            0.170540
| 18>   O                      5.365112             -0.900718            -0.728874
| 19>   H                      5.747872             -1.539752            -1.360051
| 20>   H                      7.251423             -0.122090            -0.272129
| 21>   H                      6.045687             -0.224587            1.058624
| 22>   H                      6.784626             -1.682548            0.522621
| 23> *
| 24>
| 25> #Run DFT-D3 single point of the molecule with dimer basis set
| 26> $new_job
| 27> %base "13-64_DFT_A"
| 28> ! wB97X-D3 def2-TZVP TIGHTSCF CHELPG PMODEL
| 29>
| 30> %scf
| 31> MaxIter 1000
| 32> end
| 33>
| 34> * xyz 0 1
| 35>   C                      6.579677             -4.656054            2.098122
| 36>   O                      6.418017             -5.253259            3.379541
| 37>   H                      5.507121             -5.599913            3.333520
| 38>   H                      5.924402             -3.782596            1.864666
| 39>   H                      7.523478             -4.087973            1.999012
| 40>   H                      6.439044             -5.427651            1.315982
| 41>   C                    : 6.434356             -0.699909            0.170540
| 42>   O                    : 5.365112             -0.900718            -0.728874
| 43>   H                    : 5.747872             -1.539752            -1.360051
| 44>   H                    : 7.251423             -0.122090            -0.272129
| 45>   H                    : 6.045687             -0.224587            1.058624
| 46>   H                    : 6.784626             -1.682548            0.522621
| 47> *
| 48>
| 49> #Run DFT-D3 single point of the particle with dimer basis set
| 50> $new_job
| 51> %base "13-64_DFT_B"
| 52> ! wB97X-D3 def2-TZVP TIGHTSCF CHELPG PMODEL
| 53>
| 54> %scf
| 55> MaxIter 1000
| 56> end
| 57>
| 58> * xyz 0 1
| 59>   C                    : 6.579677             -4.656054            2.098122
| 60>   O                    : 6.418017             -5.253259            3.379541
| 61>   H                    : 5.507121             -5.599913            3.333520
| 62>   H                    : 5.924402             -3.782596            1.864666
| 63>   H                    : 7.523478             -4.087973            1.999012
| 64>   H                    : 6.439044             -5.427651            1.315982
| 65>   C                      6.434356             -0.699909            0.170540
| 66>   O                      5.365112             -0.900718            -0.728874
| 67>   H                      5.747872             -1.539752            -1.360051
| 68>   H                      7.251423             -0.122090            -0.272129
| 69>   H                      6.045687             -0.224587            1.058624
| 70>   H                      6.784626             -1.682548            0.522621
| 71> *
| 72>
| 73>                          ****END OF INPUT****
 Total Charge           Charge          ....    0
 Multiplicity           Mult            ....    1
 Number of Electrons    NEL             ....   36
Dispersion correction           -0.001186616
FINAL SINGLE POINT ENERGY      -231.465298360499
Dispersion correction           -0.000250269
FINAL SINGLE POINT ENERGY      -115.729859438443

CARTESIAN COORDINATES (ANGSTROEM)
---------------------------------
  C      6.579677   -4.656054    2.098122
  O      6.418017   -5.253259    3.379541
  H      5.507121   -5.599913    3.333520
  H      5.924402   -3.782596    1.864666
  H      7.523478   -4.087973    1.999012
  H      6.439044   -5.427651    1.315982
  C      6.434356   -0.699909    0.170540
  O      5.365112   -0.900718   -0.728874
  H      5.747872   -1.539752   -1.360051
  H      7.251423   -0.122090   -0.272129
  H      6.045687   -0.224587    1.058624
  H      6.784626   -1.682548    0.522621

 Multiplicity           Mult            ....    1
 Number of Electrons    NEL             ....   18
 Basis Dimension        Dim             ....  172

ORBITAL ENERGIES
----------------

  NO   OCC          E(Eh)            E(eV)
   0   2.0000     -19.231568      -523.3176
   1   2.0000     -10.311504      -280.5903
   2   2.0000      -1.137465       -30.9520
   3   2.0000      -0.791060       -21.5258
   4   2.0000      -0.606624       -16.5071
   5   2.0000      -0.548883       -14.9359
   6   2.0000      -0.524485       -14.2720
   7   2.0000      -0.436433       -11.8760
   8   2.0000      -0.374133       -10.1807
   9   0.0000       0.083050         2.2599
  10   0.0000       0.116832         3.1792
  11   0.0000       0.150371         4.0918
  12   0.0000       0.171006         4.6533
  13   0.0000       0.196894         5.3578

MULLIKEN ATOMIC CHARGES
-----------------------
   0 C :   -0.001654
   1 O :    0.000078
   2 H :    0.000016
   3 H :    0.003040
   4 H :   -0.000435
   5 H :   -0.000025
   6 C :   -0.165561
   7 O :   -0.465886
   8 H :    0.314157
   9 H :    0.107509
  10 H :    0.116232
  11 H :    0.092529
Sum of atomic charges:    0.0000000

LOEWDIN ATOMIC CHARGES
----------------------
   0 C :   -0.002082
   1 O :   -0.000010
   2 H :   -0.000002
   3 H :   -0.001375
   4 H :   -0.001129
   5 H :   -0.000020
   6 C :   -0.390274
   7 O :   -0.083094
   8 H :    0.181078
   9 H :    0.094746
  10 H :    0.105491
  11 H :    0.096670

  Mayer bond orders larger than 0.1
B(  6-C ,  7-O ) :   0.9993 B(  6-C ,  9-H ) :   0.9727 B(  6-C , 10-H ) :   0.9749
B(  6-C , 11-H ) :   0.9852 B(  7-O ,  8-H ) :   0.9013

Dispersion correction           -0.000217383
FINAL SINGLE POINT ENERGY      -115.734872481627

DIPOLE MOMENT
-------------
                                X             Y             Z
Electronic contribution:     -1.43852      -0.06397      -1.10067
Nuclear contribution   :      2.07117      -0.25581       1.07775
                        -----------------------------------------
Total Dipole Moment    :      0.63265      -0.31978      -0.02291
                        -----------------------------------------
Magnitude (a.u.)       :      0.70924
Magnitude (Debye)      :      1.80275

Rotational constants in cm-1:     4.180320     0.842694     0.815318
Rotational constants in MHz : 125322.845311 25263.328122 24442.608645

                             ****ORCA TERMINATED NORMALLY****
TOTAL RUN TIME: 0 days 0 hours 1 minutes 9 seconds 354 msec
