                         Program Version 4.1.2  - RELEASE  -
|  1> #Run DFT-D3 single point of the dimer
|  2> ! wB97X-D3 def2-TZVP TIGHTSCF CHELPG PMODEL PAL8
|  3>
|  4> %base "12-154_DFT_AB"
|  5>
|  6> %scf
|  7> MaxIter 1000
|  8> end
|  9>
| 10> * xyz 0 1
| 11>   C                      9.090868             -8.007931            2.692918
| 12>   O                      10.013934            -7.928365            3.785060
| 13>   H                      10.517528            -8.704845            3.871032
| 14>   H                      8.709052             -9.040337            2.602073
| 15>   H                      8.245533             -7.282349            2.795206
| 16>   H                      9.553609             -7.806577            1.696125
| 17>   C                      8.676150             -7.174265            7.352139
| 18>   O                      8.440414             -7.731373            6.041367
| 19>   H                      8.937567             -7.170279            5.386156
| 20>   H                      8.050830             -7.551880            8.113145
| 21>   H                      9.728147             -7.328499            7.670504
| 22>   H                      8.544092             -6.071504            7.426219
| 23> *
| 24>
| 25> #Run DFT-D3 single point of the molecule with dimer basis set
| 26> $new_job
| 27> %base "12-154_DFT_A"
| 28> ! wB97X-D3 def2-TZVP TIGHTSCF CHELPG PMODEL
| 29>
| 30> %scf
| 31> MaxIter 1000
| 32> end
| 33>
| 34> * xyz 0 1
| 35>   C                      9.090868             -8.007931            2.692918
| 36>   O                      10.013934            -7.928365            3.785060
| 37>   H                      10.517528            -8.704845            3.871032
| 38>   H                      8.709052             -9.040337            2.602073
| 39>   H                      8.245533             -7.282349            2.795206
| 40>   H                      9.553609             -7.806577            1.696125
| 41>   C                    : 8.676150             -7.174265            7.352139
| 42>   O                    : 8.440414             -7.731373            6.041367
| 43>   H                    : 8.937567             -7.170279            5.386156
| 44>   H                    : 8.050830             -7.551880            8.113145
| 45>   H                    : 9.728147             -7.328499            7.670504
| 46>   H                    : 8.544092             -6.071504            7.426219
| 47> *
| 48>
| 49> #Run DFT-D3 single point of the particle with dimer basis set
| 50> $new_job
| 51> %base "12-154_DFT_B"
| 52> ! wB97X-D3 def2-TZVP TIGHTSCF CHELPG PMODEL
| 53>
| 54> %scf
| 55> MaxIter 1000
| 56> end
| 57>
| 58> * xyz 0 1
| 59>   C                    : 9.090868             -8.007931            2.692918
| 60>   O                    : 10.013934            -7.928365            3.785060
| 61>   H                    : 10.517528            -8.704845            3.871032
| 62>   H                    : 8.709052             -9.040337            2.602073
| 63>   H                    : 8.245533             -7.282349            2.795206
| 64>   H                    : 9.553609             -7.806577            1.696125
| 65>   C                      8.676150             -7.174265            7.352139
| 66>   O                      8.440414             -7.731373            6.041367
| 67>   H                      8.937567             -7.170279            5.386156
| 68>   H                      8.050830             -7.551880            8.113145
| 69>   H                      9.728147             -7.328499            7.670504
| 70>   H                      8.544092             -6.071504            7.426219
| 71> *
| 72>
| 73>                          ****END OF INPUT****
 Total Charge           Charge          ....    0
 Multiplicity           Mult            ....    1
 Number of Electrons    NEL             ....   36
Dispersion correction           -0.001678317
FINAL SINGLE POINT ENERGY      -231.469606476522
Dispersion correction           -0.000266794
FINAL SINGLE POINT ENERGY      -115.733408695881

CARTESIAN COORDINATES (ANGSTROEM)
---------------------------------
  C      9.090868   -8.007931    2.692918
  O     10.013934   -7.928365    3.785060
  H     10.517528   -8.704845    3.871032
  H      8.709052   -9.040337    2.602073
  H      8.245533   -7.282349    2.795206
  H      9.553609   -7.806577    1.696125
  C      8.676150   -7.174265    7.352139
  O      8.440414   -7.731373    6.041367
  H      8.937567   -7.170279    5.386156
  H      8.050830   -7.551880    8.113145
  H      9.728147   -7.328499    7.670504
  H      8.544092   -6.071504    7.426219

 Multiplicity           Mult            ....    1
 Number of Electrons    NEL             ....   18
 Basis Dimension        Dim             ....  172

ORBITAL ENERGIES
----------------

  NO   OCC          E(Eh)            E(eV)
   0   2.0000     -19.238029      -523.4934
   1   2.0000     -10.315945      -280.7111
   2   2.0000      -1.122931       -30.5565
   3   2.0000      -0.797690       -21.7063
   4   2.0000      -0.603544       -16.4233
   5   2.0000      -0.536387       -14.5958
   6   2.0000      -0.524560       -14.2740
   7   2.0000      -0.438203       -11.9241
   8   2.0000      -0.374372       -10.1872
   9   0.0000       0.079019         2.1502
  10   0.0000       0.126839         3.4515
  11   0.0000       0.150928         4.1070
  12   0.0000       0.167141         4.5481
  13   0.0000       0.198601         5.4042

MULLIKEN ATOMIC CHARGES
-----------------------
   0 C :   -0.000613
   1 O :   -0.003583
   2 H :   -0.001623
   3 H :   -0.000141
   4 H :   -0.001408
   5 H :    0.000063
   6 C :   -0.187303
   7 O :   -0.466947
   8 H :    0.319958
   9 H :    0.129966
  10 H :    0.104471
  11 H :    0.107158
Sum of atomic charges:    0.0000000

LOEWDIN ATOMIC CHARGES
----------------------
   0 C :   -0.006222
   1 O :   -0.017925
   2 H :   -0.002451
   3 H :   -0.000207
   4 H :   -0.001234
   5 H :   -0.000060
   6 C :   -0.371251
   7 O :   -0.095620
   8 H :    0.198664
   9 H :    0.099006
  10 H :    0.098404
  11 H :    0.098898

  Mayer bond orders larger than 0.1
B(  6-C ,  7-O ) :   1.0048 B(  6-C ,  9-H ) :   0.9722 B(  6-C , 10-H ) :   0.9749
B(  6-C , 11-H ) :   0.9759 B(  7-O ,  8-H ) :   0.8920

Dispersion correction           -0.000269000
FINAL SINGLE POINT ENERGY      -115.731918847165

DIPOLE MOMENT
-------------
                                X             Y             Z
Electronic contribution:     -0.51479      -0.93596      -1.62399
Nuclear contribution   :      0.89573       1.51099       1.78039
                        -----------------------------------------
Total Dipole Moment    :      0.38094       0.57503       0.15640
                        -----------------------------------------
Magnitude (a.u.)       :      0.70727
Magnitude (Debye)      :      1.79773

Rotational constants in cm-1:     4.364046     0.791646     0.763899
Rotational constants in MHz : 130830.793445 23732.960934 22901.121736

                             ****ORCA TERMINATED NORMALLY****
TOTAL RUN TIME: 0 days 0 hours 1 minutes 15 seconds 882 msec
