                         Program Version 4.1.2  - RELEASE  -
|  1> #Run DFT-D3 single point of the dimer
|  2> ! wB97X-D3 def2-TZVP TIGHTSCF CHELPG PMODEL PAL8
|  3>
|  4> %base "16-26_DFT_AB"
|  5>
|  6> %scf
|  7> MaxIter 1000
|  8> end
|  9>
| 10> * xyz 0 1
| 11>   C                      4.271779             4.712240             5.343485
| 12>   O                      4.861457             5.690898             4.454410
| 13>   H                      4.587557             5.662843             3.570705
| 14>   H                      4.713760             3.664029             5.121006
| 15>   H                      4.705710             4.923602             6.335144
| 16>   H                      3.190266             4.808637             5.377588
| 17>   C                      4.960189             9.091071             5.360388
| 18>   O                      4.939474             8.061610             6.344232
| 19>   H                      5.070944             7.170444             5.971742
| 20>   H                      4.612262             10.023291            5.798421
| 21>   H                      5.996503             9.257502             5.105758
| 22>   H                      4.346868             8.867888             4.503508
| 23> *
| 24>
| 25> #Run DFT-D3 single point of the molecule with dimer basis set
| 26> $new_job
| 27> %base "16-26_DFT_A"
| 28> ! wB97X-D3 def2-TZVP TIGHTSCF CHELPG PMODEL
| 29>
| 30> %scf
| 31> MaxIter 1000
| 32> end
| 33>
| 34> * xyz 0 1
| 35>   C                      4.271779             4.712240             5.343485
| 36>   O                      4.861457             5.690898             4.454410
| 37>   H                      4.587557             5.662843             3.570705
| 38>   H                      4.713760             3.664029             5.121006
| 39>   H                      4.705710             4.923602             6.335144
| 40>   H                      3.190266             4.808637             5.377588
| 41>   C                    : 4.960189             9.091071             5.360388
| 42>   O                    : 4.939474             8.061610             6.344232
| 43>   H                    : 5.070944             7.170444             5.971742
| 44>   H                    : 4.612262             10.023291            5.798421
| 45>   H                    : 5.996503             9.257502             5.105758
| 46>   H                    : 4.346868             8.867888             4.503508
| 47> *
| 48>
| 49> #Run DFT-D3 single point of the particle with dimer basis set
| 50> $new_job
| 51> %base "16-26_DFT_B"
| 52> ! wB97X-D3 def2-TZVP TIGHTSCF CHELPG PMODEL
| 53>
| 54> %scf
| 55> MaxIter 1000
| 56> end
| 57>
| 58> * xyz 0 1
| 59>   C                    : 4.271779             4.712240             5.343485
| 60>   O                    : 4.861457             5.690898             4.454410
| 61>   H                    : 4.587557             5.662843             3.570705
| 62>   H                    : 4.713760             3.664029             5.121006
| 63>   H                    : 4.705710             4.923602             6.335144
| 64>   H                    : 3.190266             4.808637             5.377588
| 65>   C                      4.960189             9.091071             5.360388
| 66>   O                      4.939474             8.061610             6.344232
| 67>   H                      5.070944             7.170444             5.971742
| 68>   H                      4.612262             10.023291            5.798421
| 69>   H                      5.996503             9.257502             5.105758
| 70>   H                      4.346868             8.867888             4.503508
| 71> *
| 72>
| 73>                          ****END OF INPUT****
 Total Charge           Charge          ....    0
 Multiplicity           Mult            ....    1
 Number of Electrons    NEL             ....   36
Dispersion correction           -0.001891354
FINAL SINGLE POINT ENERGY      -231.471228587654
Dispersion correction           -0.000280228
FINAL SINGLE POINT ENERGY      -115.729544785875

CARTESIAN COORDINATES (ANGSTROEM)
---------------------------------
  C      4.271779    4.712240    5.343485
  O      4.861457    5.690898    4.454410
  H      4.587557    5.662843    3.570705
  H      4.713760    3.664029    5.121006
  H      4.705710    4.923602    6.335144
  H      3.190266    4.808637    5.377588
  C      4.960189    9.091071    5.360388
  O      4.939474    8.061610    6.344232
  H      5.070944    7.170444    5.971742
  H      4.612262   10.023291    5.798421
  H      5.996503    9.257502    5.105758
  H      4.346868    8.867888    4.503508

 Multiplicity           Mult            ....    1
 Number of Electrons    NEL             ....   18
 Basis Dimension        Dim             ....  172

ORBITAL ENERGIES
----------------

  NO   OCC          E(Eh)            E(eV)
   0   2.0000     -19.227106      -523.1961
   1   2.0000     -10.309445      -280.5343
   2   2.0000      -1.125557       -30.6280
   3   2.0000      -0.798906       -21.7393
   4   2.0000      -0.605557       -16.4781
   5   2.0000      -0.546387       -14.8679
   6   2.0000      -0.527755       -14.3609
   7   2.0000      -0.426289       -11.5999
   8   2.0000      -0.371874       -10.1192
   9   0.0000       0.070182         1.9097
  10   0.0000       0.134239         3.6528
  11   0.0000       0.150406         4.0928
  12   0.0000       0.168076         4.5736
  13   0.0000       0.190821         5.1925

MULLIKEN ATOMIC CHARGES
-----------------------
   0 C :   -0.007146
   1 O :   -0.002421
   2 H :   -0.000123
   3 H :    0.000010
   4 H :    0.000689
   5 H :    0.001056
   6 C :   -0.148149
   7 O :   -0.486965
   8 H :    0.317954
   9 H :    0.117167
  10 H :    0.103023
  11 H :    0.104904
Sum of atomic charges:    0.0000000

LOEWDIN ATOMIC CHARGES
----------------------
   0 C :   -0.008257
   1 O :   -0.011905
   2 H :   -0.000658
   3 H :   -0.000135
   4 H :   -0.002012
   5 H :   -0.000289
   6 C :   -0.367778
   7 O :   -0.085234
   8 H :    0.180726
   9 H :    0.107919
  10 H :    0.094863
  11 H :    0.092761

  Mayer bond orders larger than 0.1
B(  6-C ,  7-O ) :   0.9872 B(  6-C ,  9-H ) :   0.9726 B(  6-C , 10-H ) :   0.9875
B(  6-C , 11-H ) :   0.9732 B(  7-O ,  8-H ) :   0.8980

Dispersion correction           -0.000246704
FINAL SINGLE POINT ENERGY      -115.735104148566

DIPOLE MOMENT
-------------
                                X             Y             Z
Electronic contribution:     -0.10274      -1.18377       1.23906
Nuclear contribution   :      0.19097       1.06469      -1.88714
                        -----------------------------------------
Total Dipole Moment    :      0.08823      -0.11908      -0.64808
                        -----------------------------------------
Magnitude (a.u.)       :      0.66481
Magnitude (Debye)      :      1.68981

Rotational constants in cm-1:     4.384125     0.818656     0.793769
Rotational constants in MHz : 131432.773941 24542.699968 23796.588022

                             ****ORCA TERMINATED NORMALLY****
TOTAL RUN TIME: 0 days 0 hours 1 minutes 5 seconds 340 msec
