                         Program Version 4.1.2  - RELEASE  -
|  1> #Run DFT-D3 single point of the dimer
|  2> ! wB97X-D3 def2-TZVP TIGHTSCF CHELPG PMODEL PAL8
|  3>
|  4> %base "21-84_DFT_AB"
|  5>
|  6> %scf
|  7> MaxIter 1000
|  8> end
|  9>
| 10> * xyz 0 1
| 11>   C                      5.544735             -10.686815           11.416384
| 12>   O                      6.569693             -9.635221            11.320580
| 13>   H                      6.852224             -9.461157            10.453404
| 14>   H                      4.580030             -10.332522           11.784910
| 15>   H                      5.292785             -11.100604           10.397652
| 16>   H                      5.884410             -11.404736           12.195480
| 17>   C                      7.931349             -7.167942            9.595970
| 18>   O                      8.516820             -8.489134            9.672123
| 19>   H                      9.144624             -8.493311            8.934946
| 20>   H                      7.177801             -7.050487            10.381757
| 21>   H                      8.634207             -6.383843            9.770184
| 22>   H                      7.510292             -6.951469            8.568823
| 23> *
| 24>
| 25> #Run DFT-D3 single point of the molecule with dimer basis set
| 26> $new_job
| 27> %base "21-84_DFT_A"
| 28> ! wB97X-D3 def2-TZVP TIGHTSCF CHELPG PMODEL
| 29>
| 30> %scf
| 31> MaxIter 1000
| 32> end
| 33>
| 34> * xyz 0 1
| 35>   C                      5.544735             -10.686815           11.416384
| 36>   O                      6.569693             -9.635221            11.320580
| 37>   H                      6.852224             -9.461157            10.453404
| 38>   H                      4.580030             -10.332522           11.784910
| 39>   H                      5.292785             -11.100604           10.397652
| 40>   H                      5.884410             -11.404736           12.195480
| 41>   C                    : 7.931349             -7.167942            9.595970
| 42>   O                    : 8.516820             -8.489134            9.672123
| 43>   H                    : 9.144624             -8.493311            8.934946
| 44>   H                    : 7.177801             -7.050487            10.381757
| 45>   H                    : 8.634207             -6.383843            9.770184
| 46>   H                    : 7.510292             -6.951469            8.568823
| 47> *
| 48>
| 49> #Run DFT-D3 single point of the particle with dimer basis set
| 50> $new_job
| 51> %base "21-84_DFT_B"
| 52> ! wB97X-D3 def2-TZVP TIGHTSCF CHELPG PMODEL
| 53>
| 54> %scf
| 55> MaxIter 1000
| 56> end
| 57>
| 58> * xyz 0 1
| 59>   C                    : 5.544735             -10.686815           11.416384
| 60>   O                    : 6.569693             -9.635221            11.320580
| 61>   H                    : 6.852224             -9.461157            10.453404
| 62>   H                    : 4.580030             -10.332522           11.784910
| 63>   H                    : 5.292785             -11.100604           10.397652
| 64>   H                    : 5.884410             -11.404736           12.195480
| 65>   C                      7.931349             -7.167942            9.595970
| 66>   O                      8.516820             -8.489134            9.672123
| 67>   H                      9.144624             -8.493311            8.934946
| 68>   H                      7.177801             -7.050487            10.381757
| 69>   H                      8.634207             -6.383843            9.770184
| 70>   H                      7.510292             -6.951469            8.568823
| 71> *
| 72>
| 73>                          ****END OF INPUT****
 Total Charge           Charge          ....    0
 Multiplicity           Mult            ....    1
 Number of Electrons    NEL             ....   36
Dispersion correction           -0.001618511
FINAL SINGLE POINT ENERGY      -231.466590436099
Dispersion correction           -0.000289160
FINAL SINGLE POINT ENERGY      -115.728534457735

CARTESIAN COORDINATES (ANGSTROEM)
---------------------------------
  C      5.544735  -10.686815   11.416384
  O      6.569693   -9.635221   11.320580
  H      6.852224   -9.461157   10.453404
  H      4.580030  -10.332522   11.784910
  H      5.292785  -11.100604   10.397652
  H      5.884410  -11.404736   12.195480
  C      7.931349   -7.167942    9.595970
  O      8.516820   -8.489134    9.672123
  H      9.144624   -8.493311    8.934946
  H      7.177801   -7.050487   10.381757
  H      8.634207   -6.383843    9.770184
  H      7.510292   -6.951469    8.568823

 Multiplicity           Mult            ....    1
 Number of Electrons    NEL             ....   18
 Basis Dimension        Dim             ....  172

ORBITAL ENERGIES
----------------

  NO   OCC          E(Eh)            E(eV)
   0   2.0000     -19.234794      -523.4054
   1   2.0000     -10.317726      -280.7596
   2   2.0000      -1.129048       -30.7230
   3   2.0000      -0.795135       -21.6367
   4   2.0000      -0.606021       -16.4907
   5   2.0000      -0.535267       -14.5654
   6   2.0000      -0.521381       -14.1875
   7   2.0000      -0.445136       -12.1128
   8   2.0000      -0.375281       -10.2119
   9   0.0000       0.097352         2.6491
  10   0.0000       0.118109         3.2139
  11   0.0000       0.150814         4.1039
  12   0.0000       0.183765         5.0005
  13   0.0000       0.201697         5.4885

MULLIKEN ATOMIC CHARGES
-----------------------
   0 C :    0.000180
   1 O :    0.000835
   2 H :   -0.006832
   3 H :   -0.000052
   4 H :   -0.000160
   5 H :    0.000011
   6 C :   -0.179665
   7 O :   -0.462750
   8 H :    0.309870
   9 H :    0.123040
  10 H :    0.112273
  11 H :    0.103249
Sum of atomic charges:    0.0000000

LOEWDIN ATOMIC CHARGES
----------------------
   0 C :   -0.000368
   1 O :   -0.006760
   2 H :   -0.027061
   3 H :   -0.000008
   4 H :   -0.000037
   5 H :   -0.000004
   6 C :   -0.363880
   7 O :   -0.075812
   8 H :    0.172202
   9 H :    0.110439
  10 H :    0.089093
  11 H :    0.102194

  Mayer bond orders larger than 0.1
B(  6-C ,  7-O ) :   0.9882 B(  6-C ,  9-H ) :   0.9780 B(  6-C , 10-H ) :   0.9683
B(  6-C , 11-H ) :   0.9756 B(  7-O ,  8-H ) :   0.9018

Dispersion correction           -0.000247389
FINAL SINGLE POINT ENERGY      -115.733940177866

DIPOLE MOMENT
-------------
                                X             Y             Z
Electronic contribution:      0.65655      -1.74716       0.27372
Nuclear contribution   :     -0.48491       2.29589      -0.73898
                        -----------------------------------------
Total Dipole Moment    :      0.17164       0.54873      -0.46526
                        -----------------------------------------
Magnitude (a.u.)       :      0.73961
Magnitude (Debye)      :      1.87994

Rotational constants in cm-1:     4.238676     0.805102     0.768641
Rotational constants in MHz : 127072.295992 24136.359966 23043.272493

                             ****ORCA TERMINATED NORMALLY****
TOTAL RUN TIME: 0 days 0 hours 1 minutes 5 seconds 580 msec
