                         Program Version 4.1.2  - RELEASE  -
|  1> #Run DFT-D3 single point of the dimer
|  2> ! wB97X-D3 def2-TZVP TIGHTSCF CHELPG PMODEL PAL8
|  3>
|  4> %base "9-54_DFT_AB"
|  5>
|  6> %scf
|  7> MaxIter 1000
|  8> end
|  9>
| 10> * xyz 0 1
| 11>   C                      11.104101            1.379980             -2.789674
| 12>   O                      10.501086            1.573904             -4.084412
| 13>   H                      10.985737            2.266012             -4.552232
| 14>   H                      12.067943            1.871421             -2.666359
| 15>   H                      10.426387            1.644756             -2.008202
| 16>   H                      11.529797            0.348971             -2.652523
| 17>   C                      8.125646             0.140868             0.205538
| 18>   O                      9.020085             0.985751             0.913121
| 19>   H                      8.829592             1.132982             1.835882
| 20>   H                      7.075105             0.521568             0.141395
| 21>   H                      8.639908             -0.057721            -0.755773
| 22>   H                      8.148752             -0.882839            0.640323
| 23> *
| 24>
| 25> #Run DFT-D3 single point of the molecule with dimer basis set
| 26> $new_job
| 27> %base "9-54_DFT_A"
| 28> ! wB97X-D3 def2-TZVP TIGHTSCF CHELPG PMODEL
| 29>
| 30> %scf
| 31> MaxIter 1000
| 32> end
| 33>
| 34> * xyz 0 1
| 35>   C                      11.104101            1.379980             -2.789674
| 36>   O                      10.501086            1.573904             -4.084412
| 37>   H                      10.985737            2.266012             -4.552232
| 38>   H                      12.067943            1.871421             -2.666359
| 39>   H                      10.426387            1.644756             -2.008202
| 40>   H                      11.529797            0.348971             -2.652523
| 41>   C                    : 8.125646             0.140868             0.205538
| 42>   O                    : 9.020085             0.985751             0.913121
| 43>   H                    : 8.829592             1.132982             1.835882
| 44>   H                    : 7.075105             0.521568             0.141395
| 45>   H                    : 8.639908             -0.057721            -0.755773
| 46>   H                    : 8.148752             -0.882839            0.640323
| 47> *
| 48>
| 49> #Run DFT-D3 single point of the particle with dimer basis set
| 50> $new_job
| 51> %base "9-54_DFT_B"
| 52> ! wB97X-D3 def2-TZVP TIGHTSCF CHELPG PMODEL
| 53>
| 54> %scf
| 55> MaxIter 1000
| 56> end
| 57>
| 58> * xyz 0 1
| 59>   C                    : 11.104101            1.379980             -2.789674
| 60>   O                    : 10.501086            1.573904             -4.084412
| 61>   H                    : 10.985737            2.266012             -4.552232
| 62>   H                    : 12.067943            1.871421             -2.666359
| 63>   H                    : 10.426387            1.644756             -2.008202
| 64>   H                    : 11.529797            0.348971             -2.652523
| 65>   C                      8.125646             0.140868             0.205538
| 66>   O                      9.020085             0.985751             0.913121
| 67>   H                      8.829592             1.132982             1.835882
| 68>   H                      7.075105             0.521568             0.141395
| 69>   H                      8.639908             -0.057721            -0.755773
| 70>   H                      8.148752             -0.882839            0.640323
| 71> *
| 72>
| 73>                          ****END OF INPUT****
 Total Charge           Charge          ....    0
 Multiplicity           Mult            ....    1
 Number of Electrons    NEL             ....   36
Dispersion correction           -0.001269048
FINAL SINGLE POINT ENERGY      -231.462501887238
Dispersion correction           -0.000272351
FINAL SINGLE POINT ENERGY      -115.729165257812

CARTESIAN COORDINATES (ANGSTROEM)
---------------------------------
  C     11.104101    1.379980   -2.789674
  O     10.501086    1.573904   -4.084412
  H     10.985737    2.266012   -4.552232
  H     12.067943    1.871421   -2.666359
  H     10.426387    1.644756   -2.008202
  H     11.529797    0.348971   -2.652523
  C      8.125646    0.140868    0.205538
  O      9.020085    0.985751    0.913121
  H      8.829592    1.132982    1.835882
  H      7.075105    0.521568    0.141395
  H      8.639908   -0.057721   -0.755773
  H      8.148752   -0.882839    0.640323

 Multiplicity           Mult            ....    1
 Number of Electrons    NEL             ....   18
 Basis Dimension        Dim             ....  172

ORBITAL ENERGIES
----------------

  NO   OCC          E(Eh)            E(eV)
   0   2.0000     -19.226007      -523.1662
   1   2.0000     -10.319811      -280.8163
   2   2.0000      -1.129963       -30.7478
   3   2.0000      -0.796035       -21.6612
   4   2.0000      -0.609330       -16.5807
   5   2.0000      -0.545352       -14.8398
   6   2.0000      -0.517451       -14.0805
   7   2.0000      -0.421370       -11.4661
   8   2.0000      -0.373165       -10.1543
   9   0.0000       0.092784         2.5248
  10   0.0000       0.119839         3.2610
  11   0.0000       0.151316         4.1175
  12   0.0000       0.170359         4.6357
  13   0.0000       0.190721         5.1898

MULLIKEN ATOMIC CHARGES
-----------------------
   0 C :   -0.001087
   1 O :    0.000049
   2 H :    0.000007
   3 H :    0.000017
   4 H :    0.000368
   5 H :   -0.000089
   6 C :   -0.158391
   7 O :   -0.487993
   8 H :    0.314211
   9 H :    0.106626
  10 H :    0.123446
  11 H :    0.102836
Sum of atomic charges:   -0.0000000

LOEWDIN ATOMIC CHARGES
----------------------
   0 C :   -0.001406
   1 O :   -0.000010
   2 H :   -0.000002
   3 H :   -0.000009
   4 H :   -0.001364
   5 H :   -0.000104
   6 C :   -0.387137
   7 O :   -0.081588
   8 H :    0.158935
   9 H :    0.099767
  10 H :    0.115400
  11 H :    0.097517

  Mayer bond orders larger than 0.1
B(  6-C ,  7-O ) :   0.9965 B(  6-C ,  9-H ) :   0.9664 B(  6-C , 10-H ) :   0.9728
B(  6-C , 11-H ) :   0.9771 B(  7-O ,  8-H ) :   0.8946

Dispersion correction           -0.000272531
FINAL SINGLE POINT ENERGY      -115.731822979266

DIPOLE MOMENT
-------------
                                X             Y             Z
Electronic contribution:      1.04059       1.18412       0.78815
Nuclear contribution   :     -1.51299      -1.45349      -0.46844
                        -----------------------------------------
Total Dipole Moment    :     -0.47240      -0.26937       0.31971
                        -----------------------------------------
Magnitude (a.u.)       :      0.63083
Magnitude (Debye)      :      1.60343

Rotational constants in cm-1:     4.248049     0.815137     0.791047
Rotational constants in MHz : 127353.318852 24437.204416 23714.997071

                             ****ORCA TERMINATED NORMALLY****
TOTAL RUN TIME: 0 days 0 hours 0 minutes 45 seconds 164 msec
