                         Program Version 4.1.2  - RELEASE  -
|  1> #Run DFT-D3 single point of the dimer
|  2> ! wB97X-D3 def2-TZVP TIGHTSCF CHELPG PMODEL PAL8
|  3>
|  4> %base "9-89_DFT_AB"
|  5>
|  6> %scf
|  7> MaxIter 1000
|  8> end
|  9>
| 10> * xyz 0 1
| 11>   C                      -2.747217            -1.439285            7.215734
| 12>   O                      -3.661565            -2.257749            7.941439
| 13>   H                      -4.087411            -2.914877            7.304557
| 14>   H                      -1.744539            -1.863552            7.165893
| 15>   H                      -3.187766            -1.140830            6.244377
| 16>   H                      -2.642980            -0.476722            7.720025
| 17>   C                      -6.479219            -1.361711            9.804237
| 18>   O                      -7.633055            -0.737605            10.280932
| 19>   H                      -7.871351            -1.024000            11.174917
| 20>   H                      -5.711295            -1.646732            10.593939
| 21>   H                      -6.731494            -2.359005            9.360139
| 22>   H                      -5.839508            -0.816338            9.086842
| 23> *
| 24>
| 25> #Run DFT-D3 single point of the molecule with dimer basis set
| 26> $new_job
| 27> %base "9-89_DFT_A"
| 28> ! wB97X-D3 def2-TZVP TIGHTSCF CHELPG PMODEL
| 29>
| 30> %scf
| 31> MaxIter 1000
| 32> end
| 33>
| 34> * xyz 0 1
| 35>   C                      -2.747217            -1.439285            7.215734
| 36>   O                      -3.661565            -2.257749            7.941439
| 37>   H                      -4.087411            -2.914877            7.304557
| 38>   H                      -1.744539            -1.863552            7.165893
| 39>   H                      -3.187766            -1.140830            6.244377
| 40>   H                      -2.642980            -0.476722            7.720025
| 41>   C                    : -6.479219            -1.361711            9.804237
| 42>   O                    : -7.633055            -0.737605            10.280932
| 43>   H                    : -7.871351            -1.024000            11.174917
| 44>   H                    : -5.711295            -1.646732            10.593939
| 45>   H                    : -6.731494            -2.359005            9.360139
| 46>   H                    : -5.839508            -0.816338            9.086842
| 47> *
| 48>
| 49> #Run DFT-D3 single point of the particle with dimer basis set
| 50> $new_job
| 51> %base "9-89_DFT_B"
| 52> ! wB97X-D3 def2-TZVP TIGHTSCF CHELPG PMODEL
| 53>
| 54> %scf
| 55> MaxIter 1000
| 56> end
| 57>
| 58> * xyz 0 1
| 59>   C                    : -2.747217            -1.439285            7.215734
| 60>   O                    : -3.661565            -2.257749            7.941439
| 61>   H                    : -4.087411            -2.914877            7.304557
| 62>   H                    : -1.744539            -1.863552            7.165893
| 63>   H                    : -3.187766            -1.140830            6.244377
| 64>   H                    : -2.642980            -0.476722            7.720025
| 65>   C                      -6.479219            -1.361711            9.804237
| 66>   O                      -7.633055            -0.737605            10.280932
| 67>   H                      -7.871351            -1.024000            11.174917
| 68>   H                      -5.711295            -1.646732            10.593939
| 69>   H                      -6.731494            -2.359005            9.360139
| 70>   H                      -5.839508            -0.816338            9.086842
| 71> *
| 72>
| 73>                          ****END OF INPUT****
 Total Charge           Charge          ....    0
 Multiplicity           Mult            ....    1
 Number of Electrons    NEL             ....   36
Dispersion correction           -0.001507155
FINAL SINGLE POINT ENERGY      -231.464517716287
Dispersion correction           -0.000258130
FINAL SINGLE POINT ENERGY      -115.732643782715

CARTESIAN COORDINATES (ANGSTROEM)
---------------------------------
  C     -2.747217   -1.439285    7.215734
  O     -3.661565   -2.257749    7.941439
  H     -4.087411   -2.914877    7.304557
  H     -1.744539   -1.863552    7.165893
  H     -3.187766   -1.140830    6.244377
  H     -2.642980   -0.476722    7.720025
  C     -6.479219   -1.361711    9.804237
  O     -7.633055   -0.737605   10.280932
  H     -7.871351   -1.024000   11.174917
  H     -5.711295   -1.646732   10.593939
  H     -6.731494   -2.359005    9.360139
  H     -5.839508   -0.816338    9.086842

 Multiplicity           Mult            ....    1
 Number of Electrons    NEL             ....   18
 Basis Dimension        Dim             ....  172

ORBITAL ENERGIES
----------------

  NO   OCC          E(Eh)            E(eV)
   0   2.0000     -19.234687      -523.4025
   1   2.0000     -10.321439      -280.8606
   2   2.0000      -1.139915       -31.0187
   3   2.0000      -0.793072       -21.5806
   4   2.0000      -0.618518       -16.8307
   5   2.0000      -0.540072       -14.6961
   6   2.0000      -0.523993       -14.2586
   7   2.0000      -0.423655       -11.5282
   8   2.0000      -0.372220       -10.1286
   9   0.0000       0.080495         2.1904
  10   0.0000       0.113771         3.0959
  11   0.0000       0.142158         3.8683
  12   0.0000       0.167196         4.5496
  13   0.0000       0.187582         5.1044

MULLIKEN ATOMIC CHARGES
-----------------------
   0 C :    0.000220
   1 O :    0.000063
   2 H :   -0.000128
   3 H :   -0.000009
   4 H :   -0.000062
   5 H :   -0.000211
   6 C :   -0.171574
   7 O :   -0.475691
   8 H :    0.326264
   9 H :    0.097826
  10 H :    0.099586
  11 H :    0.123715
Sum of atomic charges:    0.0000000

LOEWDIN ATOMIC CHARGES
----------------------
   0 C :   -0.000748
   1 O :   -0.001485
   2 H :   -0.000368
   3 H :   -0.000012
   4 H :   -0.000030
   5 H :   -0.000160
   6 C :   -0.416646
   7 O :   -0.066044
   8 H :    0.178516
   9 H :    0.100687
  10 H :    0.097996
  11 H :    0.108294

  Mayer bond orders larger than 0.1
B(  6-C ,  7-O ) :   1.0087 B(  6-C ,  9-H ) :   0.9763 B(  6-C , 10-H ) :   0.9765
B(  6-C , 11-H ) :   0.9673 B(  7-O ,  8-H ) :   0.8876

Dispersion correction           -0.000274497
FINAL SINGLE POINT ENERGY      -115.729678033429

DIPOLE MOMENT
-------------
                                X             Y             Z
Electronic contribution:     -1.65838       1.07714       0.48743
Nuclear contribution   :      1.95941      -1.49205      -0.07094
                        -----------------------------------------
Total Dipole Moment    :      0.30104      -0.41491       0.41649
                        -----------------------------------------
Magnitude (a.u.)       :      0.66048
Magnitude (Debye)      :      1.67881

Rotational constants in cm-1:     4.378053     0.819048     0.794371
Rotational constants in MHz : 131250.715300 24554.454076 23814.634161

                             ****ORCA TERMINATED NORMALLY****
TOTAL RUN TIME: 0 days 0 hours 0 minutes 42 seconds 281 msec
