                         Program Version 4.1.2  - RELEASE  -
|  1> #Run DFT-D3 single point of the dimer
|  2> ! wB97X-D3 def2-TZVP TIGHTSCF CHELPG PMODEL PAL8
|  3>
|  4> %base "17-101_DFT_AB"
|  5>
|  6> %scf
|  7> MaxIter 1000
|  8> end
|  9>
| 10> * xyz 0 1
| 11>   C                      -3.510231            -1.086601            -3.537600
| 12>   O                      -4.343705            -1.752611            -4.437602
| 13>   H                      -5.224240            -1.403687            -4.477860
| 14>   H                      -4.049414            -0.835512            -2.615135
| 15>   H                      -2.571821            -1.682410            -3.278911
| 16>   H                      -3.190376            -0.068218            -3.952758
| 17>   C                      -2.415535            -0.971302            -7.674667
| 18>   O                      -3.117178            -0.081729            -6.746123
| 19>   H                      -3.902999            0.348662             -7.180337
| 20>   H                      -1.751958            -0.437656            -8.368405
| 21>   H                      -1.859473            -1.788429            -7.245069
| 22>   H                      -3.184254            -1.533560            -8.318336
| 23> *
| 24>
| 25> #Run DFT-D3 single point of the molecule with dimer basis set
| 26> $new_job
| 27> %base "17-101_DFT_A"
| 28> ! wB97X-D3 def2-TZVP TIGHTSCF CHELPG PMODEL
| 29>
| 30> %scf
| 31> MaxIter 1000
| 32> end
| 33>
| 34> * xyz 0 1
| 35>   C                      -3.510231            -1.086601            -3.537600
| 36>   O                      -4.343705            -1.752611            -4.437602
| 37>   H                      -5.224240            -1.403687            -4.477860
| 38>   H                      -4.049414            -0.835512            -2.615135
| 39>   H                      -2.571821            -1.682410            -3.278911
| 40>   H                      -3.190376            -0.068218            -3.952758
| 41>   C                    : -2.415535            -0.971302            -7.674667
| 42>   O                    : -3.117178            -0.081729            -6.746123
| 43>   H                    : -3.902999            0.348662             -7.180337
| 44>   H                    : -1.751958            -0.437656            -8.368405
| 45>   H                    : -1.859473            -1.788429            -7.245069
| 46>   H                    : -3.184254            -1.533560            -8.318336
| 47> *
| 48>
| 49> #Run DFT-D3 single point of the particle with dimer basis set
| 50> $new_job
| 51> %base "17-101_DFT_B"
| 52> ! wB97X-D3 def2-TZVP TIGHTSCF CHELPG PMODEL
| 53>
| 54> %scf
| 55> MaxIter 1000
| 56> end
| 57>
| 58> * xyz 0 1
| 59>   C                    : -3.510231            -1.086601            -3.537600
| 60>   O                    : -4.343705            -1.752611            -4.437602
| 61>   H                    : -5.224240            -1.403687            -4.477860
| 62>   H                    : -4.049414            -0.835512            -2.615135
| 63>   H                    : -2.571821            -1.682410            -3.278911
| 64>   H                    : -3.190376            -0.068218            -3.952758
| 65>   C                      -2.415535            -0.971302            -7.674667
| 66>   O                      -3.117178            -0.081729            -6.746123
| 67>   H                      -3.902999            0.348662             -7.180337
| 68>   H                      -1.751958            -0.437656            -8.368405
| 69>   H                      -1.859473            -1.788429            -7.245069
| 70>   H                      -3.184254            -1.533560            -8.318336
| 71> *
| 72>
| 73>                          ****END OF INPUT****
 Total Charge           Charge          ....    0
 Multiplicity           Mult            ....    1
 Number of Electrons    NEL             ....   36
Dispersion correction           -0.001848059
FINAL SINGLE POINT ENERGY      -231.459088304141
Dispersion correction           -0.000257141
FINAL SINGLE POINT ENERGY      -115.732397430456

CARTESIAN COORDINATES (ANGSTROEM)
---------------------------------
  C     -3.510231   -1.086601   -3.537600
  O     -4.343705   -1.752611   -4.437602
  H     -5.224240   -1.403687   -4.477860
  H     -4.049414   -0.835512   -2.615135
  H     -2.571821   -1.682410   -3.278911
  H     -3.190376   -0.068218   -3.952758
  C     -2.415535   -0.971302   -7.674667
  O     -3.117178   -0.081729   -6.746123
  H     -3.902999    0.348662   -7.180337
  H     -1.751958   -0.437656   -8.368405
  H     -1.859473   -1.788429   -7.245069
  H     -3.184254   -1.533560   -8.318336

 Multiplicity           Mult            ....    1
 Number of Electrons    NEL             ....   18
 Basis Dimension        Dim             ....  172

ORBITAL ENERGIES
----------------

  NO   OCC          E(Eh)            E(eV)
   0   2.0000     -19.235509      -523.4248
   1   2.0000     -10.323998      -280.9303
   2   2.0000      -1.114170       -30.3181
   3   2.0000      -0.795836       -21.6558
   4   2.0000      -0.597429       -16.2569
   5   2.0000      -0.536487       -14.5986
   6   2.0000      -0.523283       -14.2393
   7   2.0000      -0.425574       -11.5804
   8   2.0000      -0.376368       -10.2415
   9   0.0000       0.092835         2.5262
  10   0.0000       0.122180         3.3247
  11   0.0000       0.141976         3.8634
  12   0.0000       0.175996         4.7891
  13   0.0000       0.192600         5.2409

MULLIKEN ATOMIC CHARGES
-----------------------
   0 C :    0.002556
   1 O :   -0.000269
   2 H :   -0.002061
   3 H :   -0.000158
   4 H :   -0.000380
   5 H :   -0.006266
   6 C :   -0.177265
   7 O :   -0.484422
   8 H :    0.322465
   9 H :    0.112968
  10 H :    0.132625
  11 H :    0.100207
Sum of atomic charges:    0.0000000

LOEWDIN ATOMIC CHARGES
----------------------
   0 C :   -0.008096
   1 O :   -0.005048
   2 H :   -0.001716
   3 H :   -0.000074
   4 H :   -0.000156
   5 H :   -0.006146
   6 C :   -0.359551
   7 O :   -0.113111
   8 H :    0.187329
   9 H :    0.096914
  10 H :    0.103783
  11 H :    0.105872

  Mayer bond orders larger than 0.1
B(  6-C ,  7-O ) :   0.9941 B(  6-C ,  9-H ) :   0.9684 B(  6-C , 10-H ) :   0.9698
B(  6-C , 11-H ) :   0.9820 B(  7-O ,  8-H ) :   0.8882

Dispersion correction           -0.000291856
FINAL SINGLE POINT ENERGY      -115.727841503330

DIPOLE MOMENT
-------------
                                X             Y             Z
Electronic contribution:     -0.65216       1.14770       1.39540
Nuclear contribution   :      0.45992      -1.27157      -2.07192
                        -----------------------------------------
Total Dipole Moment    :     -0.19224      -0.12387      -0.67652
                        -----------------------------------------
Magnitude (a.u.)       :      0.71412
Magnitude (Debye)      :      1.81516

Rotational constants in cm-1:     4.297678     0.764592     0.743372
Rotational constants in MHz : 128841.157221 22921.892769 22285.717066

                             ****ORCA TERMINATED NORMALLY****
TOTAL RUN TIME: 0 days 0 hours 1 minutes 2 seconds 981 msec
