                         Program Version 4.1.2  - RELEASE  -
|  1> #Run DFT-D3 single point of the dimer
|  2> ! wB97X-D3 def2-TZVP TIGHTSCF CHELPG PMODEL PAL8
|  3>
|  4> %base "16-203_DFT_AB"
|  5>
|  6> %scf
|  7> MaxIter 1000
|  8> end
|  9>
| 10> * xyz 0 1
| 11>   C                      4.184219             10.013231            -5.709976
| 12>   O                      5.393323             10.361793            -6.452198
| 13>   H                      5.418056             9.764200             -7.163521
| 14>   H                      4.182232             10.412448            -4.723368
| 15>   H                      3.264418             10.268188            -6.217298
| 16>   H                      4.131771             8.969842             -5.465421
| 17>   C                      5.789505             7.961665             -9.247714
| 18>   O                      7.108209             8.208722             -8.872955
| 19>   H                      7.268116             7.869350             -7.977780
| 20>   H                      5.566810             8.532333             -10.145002
| 21>   H                      5.536729             6.889135             -9.430221
| 22>   H                      5.139110             8.274249             -8.466518
| 23> *
| 24>
| 25> #Run DFT-D3 single point of the molecule with dimer basis set
| 26> $new_job
| 27> %base "16-203_DFT_A"
| 28> ! wB97X-D3 def2-TZVP TIGHTSCF CHELPG PMODEL
| 29>
| 30> %scf
| 31> MaxIter 1000
| 32> end
| 33>
| 34> * xyz 0 1
| 35>   C                      4.184219             10.013231            -5.709976
| 36>   O                      5.393323             10.361793            -6.452198
| 37>   H                      5.418056             9.764200             -7.163521
| 38>   H                      4.182232             10.412448            -4.723368
| 39>   H                      3.264418             10.268188            -6.217298
| 40>   H                      4.131771             8.969842             -5.465421
| 41>   C                    : 5.789505             7.961665             -9.247714
| 42>   O                    : 7.108209             8.208722             -8.872955
| 43>   H                    : 7.268116             7.869350             -7.977780
| 44>   H                    : 5.566810             8.532333             -10.145002
| 45>   H                    : 5.536729             6.889135             -9.430221
| 46>   H                    : 5.139110             8.274249             -8.466518
| 47> *
| 48>
| 49> #Run DFT-D3 single point of the particle with dimer basis set
| 50> $new_job
| 51> %base "16-203_DFT_B"
| 52> ! wB97X-D3 def2-TZVP TIGHTSCF CHELPG PMODEL
| 53>
| 54> %scf
| 55> MaxIter 1000
| 56> end
| 57>
| 58> * xyz 0 1
| 59>   C                    : 4.184219             10.013231            -5.709976
| 60>   O                    : 5.393323             10.361793            -6.452198
| 61>   H                    : 5.418056             9.764200             -7.163521
| 62>   H                    : 4.182232             10.412448            -4.723368
| 63>   H                    : 3.264418             10.268188            -6.217298
| 64>   H                    : 4.131771             8.969842             -5.465421
| 65>   C                      5.789505             7.961665             -9.247714
| 66>   O                      7.108209             8.208722             -8.872955
| 67>   H                      7.268116             7.869350             -7.977780
| 68>   H                      5.566810             8.532333             -10.145002
| 69>   H                      5.536729             6.889135             -9.430221
| 70>   H                      5.139110             8.274249             -8.466518
| 71> *
| 72>
| 73>                          ****END OF INPUT****
 Total Charge           Charge          ....    0
 Multiplicity           Mult            ....    1
 Number of Electrons    NEL             ....   36
Dispersion correction           -0.001758472
FINAL SINGLE POINT ENERGY      -231.466996420405
Dispersion correction           -0.000256184
FINAL SINGLE POINT ENERGY      -115.731080156631

CARTESIAN COORDINATES (ANGSTROEM)
---------------------------------
  C      4.184219   10.013231   -5.709976
  O      5.393323   10.361793   -6.452198
  H      5.418056    9.764200   -7.163521
  H      4.182232   10.412448   -4.723368
  H      3.264418   10.268188   -6.217298
  H      4.131771    8.969842   -5.465421
  C      5.789505    7.961665   -9.247714
  O      7.108209    8.208722   -8.872955
  H      7.268116    7.869350   -7.977780
  H      5.566810    8.532333  -10.145002
  H      5.536729    6.889135   -9.430221
  H      5.139110    8.274249   -8.466518

 Multiplicity           Mult            ....    1
 Number of Electrons    NEL             ....   18
 Basis Dimension        Dim             ....  172

ORBITAL ENERGIES
----------------

  NO   OCC          E(Eh)            E(eV)
   0   2.0000     -19.231160      -523.3065
   1   2.0000     -10.308950      -280.5208
   2   2.0000      -1.140188       -31.0261
   3   2.0000      -0.795669       -21.6512
   4   2.0000      -0.617148       -16.7935
   5   2.0000      -0.540250       -14.7009
   6   2.0000      -0.531639       -14.4666
   7   2.0000      -0.432954       -11.7813
   8   2.0000      -0.371390       -10.1060
   9   0.0000       0.080706         2.1961
  10   0.0000       0.122232         3.3261
  11   0.0000       0.156023         4.2456
  12   0.0000       0.179115         4.8740
  13   0.0000       0.188944         5.1414

MULLIKEN ATOMIC CHARGES
-----------------------
   0 C :   -0.000935
   1 O :   -0.000585
   2 H :    0.001361
   3 H :    0.000004
   4 H :   -0.000079
   5 H :    0.000084
   6 C :   -0.151497
   7 O :   -0.476299
   8 H :    0.316362
   9 H :    0.118020
  10 H :    0.098566
  11 H :    0.094997
Sum of atomic charges:    0.0000000

LOEWDIN ATOMIC CHARGES
----------------------
   0 C :   -0.001681
   1 O :   -0.001092
   2 H :   -0.009851
   3 H :   -0.000020
   4 H :   -0.000088
   5 H :   -0.000214
   6 C :   -0.395186
   7 O :   -0.063852
   8 H :    0.176561
   9 H :    0.108784
  10 H :    0.096146
  11 H :    0.090494

  Mayer bond orders larger than 0.1
B(  6-C ,  7-O ) :   0.9933 B(  6-C ,  9-H ) :   0.9751 B(  6-C , 10-H ) :   0.9776
B(  6-C , 11-H ) :   0.9835 B(  7-O ,  8-H ) :   0.8952

Dispersion correction           -0.000235098
FINAL SINGLE POINT ENERGY      -115.735555231002

DIPOLE MOMENT
-------------
                                X             Y             Z
Electronic contribution:      1.75920       0.40267       0.33650
Nuclear contribution   :     -2.17206      -0.69191       0.09672
                        -----------------------------------------
Total Dipole Moment    :     -0.41286      -0.28924       0.43322
                        -----------------------------------------
Magnitude (a.u.)       :      0.66468
Magnitude (Debye)      :      1.68947

Rotational constants in cm-1:     4.354279     0.850679     0.816406
Rotational constants in MHz : 130538.008931 25502.727911 24475.251015

                             ****ORCA TERMINATED NORMALLY****
TOTAL RUN TIME: 0 days 0 hours 0 minutes 56 seconds 48 msec
