                         Program Version 4.1.2  - RELEASE  -
|  1> #Run DFT-D3 single point of the dimer
|  2> ! wB97X-D3 def2-TZVP TIGHTSCF CHELPG PMODEL PAL8
|  3>
|  4> %base "10-71_DFT_AB"
|  5>
|  6> %scf
|  7> MaxIter 1000
|  8> end
|  9>
| 10> * xyz 0 1
| 11>   C                      4.546624             -10.081734           -0.355543
| 12>   O                      3.316980             -9.471916            -0.450149
| 13>   H                      3.133284             -8.853097            0.272998
| 14>   H                      5.079215             -10.102797           -1.305874
| 15>   H                      5.187251             -9.604669            0.363695
| 16>   H                      4.466684             -11.200598           -0.094542
| 17>   C                      5.369477             -6.342536            -0.441178
| 18>   O                      5.334754             -5.019816            0.209316
| 19>   H                      4.689948             -4.385982            -0.258636
| 20>   H                      5.435570             -7.157379            0.285672
| 21>   H                      4.490291             -6.557346            -0.960870
| 22>   H                      6.075459             -6.414477            -1.304671
| 23> *
| 24>
| 25> #Run DFT-D3 single point of the molecule with dimer basis set
| 26> $new_job
| 27> %base "10-71_DFT_A"
| 28> ! wB97X-D3 def2-TZVP TIGHTSCF CHELPG PMODEL
| 29>
| 30> %scf
| 31> MaxIter 1000
| 32> end
| 33>
| 34> * xyz 0 1
| 35>   C                      4.546624             -10.081734           -0.355543
| 36>   O                      3.316980             -9.471916            -0.450149
| 37>   H                      3.133284             -8.853097            0.272998
| 38>   H                      5.079215             -10.102797           -1.305874
| 39>   H                      5.187251             -9.604669            0.363695
| 40>   H                      4.466684             -11.200598           -0.094542
| 41>   C                    : 5.369477             -6.342536            -0.441178
| 42>   O                    : 5.334754             -5.019816            0.209316
| 43>   H                    : 4.689948             -4.385982            -0.258636
| 44>   H                    : 5.435570             -7.157379            0.285672
| 45>   H                    : 4.490291             -6.557346            -0.960870
| 46>   H                    : 6.075459             -6.414477            -1.304671
| 47> *
| 48>
| 49> #Run DFT-D3 single point of the particle with dimer basis set
| 50> $new_job
| 51> %base "10-71_DFT_B"
| 52> ! wB97X-D3 def2-TZVP TIGHTSCF CHELPG PMODEL
| 53>
| 54> %scf
| 55> MaxIter 1000
| 56> end
| 57>
| 58> * xyz 0 1
| 59>   C                    : 4.546624             -10.081734           -0.355543
| 60>   O                    : 3.316980             -9.471916            -0.450149
| 61>   H                    : 3.133284             -8.853097            0.272998
| 62>   H                    : 5.079215             -10.102797           -1.305874
| 63>   H                    : 5.187251             -9.604669            0.363695
| 64>   H                    : 4.466684             -11.200598           -0.094542
| 65>   C                      5.369477             -6.342536            -0.441178
| 66>   O                      5.334754             -5.019816            0.209316
| 67>   H                      4.689948             -4.385982            -0.258636
| 68>   H                      5.435570             -7.157379            0.285672
| 69>   H                      4.490291             -6.557346            -0.960870
| 70>   H                      6.075459             -6.414477            -1.304671
| 71> *
| 72>
| 73>                          ****END OF INPUT****
 Total Charge           Charge          ....    0
 Multiplicity           Mult            ....    1
 Number of Electrons    NEL             ....   36
Dispersion correction           -0.001881736
FINAL SINGLE POINT ENERGY      -231.456473502869
Dispersion correction           -0.000254254
FINAL SINGLE POINT ENERGY      -115.732425902400

CARTESIAN COORDINATES (ANGSTROEM)
---------------------------------
  C      4.546624  -10.081734   -0.355543
  O      3.316980   -9.471916   -0.450149
  H      3.133284   -8.853097    0.272998
  H      5.079215  -10.102797   -1.305874
  H      5.187251   -9.604669    0.363695
  H      4.466684  -11.200598   -0.094542
  C      5.369477   -6.342536   -0.441178
  O      5.334754   -5.019816    0.209316
  H      4.689948   -4.385982   -0.258636
  H      5.435570   -7.157379    0.285672
  H      4.490291   -6.557346   -0.960870
  H      6.075459   -6.414477   -1.304671

 Multiplicity           Mult            ....    1
 Number of Electrons    NEL             ....   18
 Basis Dimension        Dim             ....  172

ORBITAL ENERGIES
----------------

  NO   OCC          E(Eh)            E(eV)
   0   2.0000     -19.235441      -523.4229
   1   2.0000     -10.315929      -280.7107
   2   2.0000      -1.106257       -30.1028
   3   2.0000      -0.800889       -21.7933
   4   2.0000      -0.601228       -16.3602
   5   2.0000      -0.535916       -14.5830
   6   2.0000      -0.510671       -13.8961
   7   2.0000      -0.432017       -11.7558
   8   2.0000      -0.374765       -10.1979
   9   0.0000       0.081909         2.2289
  10   0.0000       0.107068         2.9135
  11   0.0000       0.151958         4.1350
  12   0.0000       0.162347         4.4177
  13   0.0000       0.174598         4.7511

MULLIKEN ATOMIC CHARGES
-----------------------
   0 C :   -0.000709
   1 O :   -0.000392
   2 H :   -0.000419
   3 H :    0.000240
   4 H :   -0.000791
   5 H :   -0.000024
   6 C :   -0.174467
   7 O :   -0.493561
   8 H :    0.319320
   9 H :    0.129306
  10 H :    0.115400
  11 H :    0.106097
Sum of atomic charges:    0.0000000

LOEWDIN ATOMIC CHARGES
----------------------
   0 C :   -0.003939
   1 O :   -0.000752
   2 H :   -0.001464
   3 H :   -0.000108
   4 H :   -0.002872
   5 H :   -0.000027
   6 C :   -0.347775
   7 O :   -0.143068
   8 H :    0.196553
   9 H :    0.111652
  10 H :    0.087382
  11 H :    0.104418

  Mayer bond orders larger than 0.1
B(  6-C ,  7-O ) :   1.0055 B(  6-C ,  9-H ) :   0.9721 B(  6-C , 10-H ) :   0.9774
B(  6-C , 11-H ) :   0.9659 B(  7-O ,  8-H ) :   0.8898

Dispersion correction           -0.000291350
FINAL SINGLE POINT ENERGY      -115.722622091076

DIPOLE MOMENT
-------------
                                X             Y             Z
Electronic contribution:      0.12431       1.58909       1.00801
Nuclear contribution   :     -0.57997      -1.76791      -1.60241
                        -----------------------------------------
Total Dipole Moment    :     -0.45566      -0.17882      -0.59440
                        -----------------------------------------
Magnitude (a.u.)       :      0.77001
Magnitude (Debye)      :      1.95720

Rotational constants in cm-1:     4.393559     0.761775     0.736355
Rotational constants in MHz : 131715.573559 22837.426567 22075.375117

                             ****ORCA TERMINATED NORMALLY****
TOTAL RUN TIME: 0 days 0 hours 1 minutes 4 seconds 526 msec
