                         Program Version 4.1.2  - RELEASE  -
|  1> #Run DFT-D3 single point of the dimer
|  2> ! wB97X-D3 def2-TZVP TIGHTSCF CHELPG PMODEL PAL8
|  3>
|  4> %base "22-78_DFT_AB"
|  5>
|  6> %scf
|  7> MaxIter 1000
|  8> end
|  9>
| 10> * xyz 0 1
| 11>   C                      -3.152113            -1.685180            5.511687
| 12>   O                      -3.578452            -2.644021            4.578806
| 13>   H                      -2.831220            -3.224825            4.420491
| 14>   H                      -2.231712            -1.127083            5.128433
| 15>   H                      -3.887088            -1.022022            5.889255
| 16>   H                      -2.718246            -2.180419            6.352590
| 17>   C                      -6.248059            -2.354926            2.623257
| 18>   O                      -6.303023            -2.849600            3.938210
| 19>   H                      -5.403821            -2.745003            4.211665
| 20>   H                      -5.456856            -1.570696            2.493150
| 21>   H                      -5.982796            -3.242973            2.023845
| 22>   H                      -7.210989            -1.953763            2.289139
| 23> *
| 24>
| 25> #Run DFT-D3 single point of the molecule with dimer basis set
| 26> $new_job
| 27> %base "22-78_DFT_A"
| 28> ! wB97X-D3 def2-TZVP TIGHTSCF CHELPG PMODEL
| 29>
| 30> %scf
| 31> MaxIter 1000
| 32> end
| 33>
| 34> * xyz 0 1
| 35>   C                      -3.152113            -1.685180            5.511687
| 36>   O                      -3.578452            -2.644021            4.578806
| 37>   H                      -2.831220            -3.224825            4.420491
| 38>   H                      -2.231712            -1.127083            5.128433
| 39>   H                      -3.887088            -1.022022            5.889255
| 40>   H                      -2.718246            -2.180419            6.352590
| 41>   C                    : -6.248059            -2.354926            2.623257
| 42>   O                    : -6.303023            -2.849600            3.938210
| 43>   H                    : -5.403821            -2.745003            4.211665
| 44>   H                    : -5.456856            -1.570696            2.493150
| 45>   H                    : -5.982796            -3.242973            2.023845
| 46>   H                    : -7.210989            -1.953763            2.289139
| 47> *
| 48>
| 49> #Run DFT-D3 single point of the particle with dimer basis set
| 50> $new_job
| 51> %base "22-78_DFT_B"
| 52> ! wB97X-D3 def2-TZVP TIGHTSCF CHELPG PMODEL
| 53>
| 54> %scf
| 55> MaxIter 1000
| 56> end
| 57>
| 58> * xyz 0 1
| 59>   C                    : -3.152113            -1.685180            5.511687
| 60>   O                    : -3.578452            -2.644021            4.578806
| 61>   H                    : -2.831220            -3.224825            4.420491
| 62>   H                    : -2.231712            -1.127083            5.128433
| 63>   H                    : -3.887088            -1.022022            5.889255
| 64>   H                    : -2.718246            -2.180419            6.352590
| 65>   C                      -6.248059            -2.354926            2.623257
| 66>   O                      -6.303023            -2.849600            3.938210
| 67>   H                      -5.403821            -2.745003            4.211665
| 68>   H                      -5.456856            -1.570696            2.493150
| 69>   H                      -5.982796            -3.242973            2.023845
| 70>   H                      -7.210989            -1.953763            2.289139
| 71> *
| 72>
| 73>                          ****END OF INPUT****
 Total Charge           Charge          ....    0
 Multiplicity           Mult            ....    1
 Number of Electrons    NEL             ....   36
Dispersion correction           -0.001802809
FINAL SINGLE POINT ENERGY      -231.470908496002
Dispersion correction           -0.000223718
FINAL SINGLE POINT ENERGY      -115.730230001505

CARTESIAN COORDINATES (ANGSTROEM)
---------------------------------
  C     -3.152113   -1.685180    5.511687
  O     -3.578452   -2.644021    4.578806
  H     -2.831220   -3.224825    4.420491
  H     -2.231712   -1.127083    5.128433
  H     -3.887088   -1.022022    5.889255
  H     -2.718246   -2.180419    6.352590
  C     -6.248059   -2.354926    2.623257
  O     -6.303023   -2.849600    3.938210
  H     -5.403821   -2.745003    4.211665
  H     -5.456856   -1.570696    2.493150
  H     -5.982796   -3.242973    2.023845
  H     -7.210989   -1.953763    2.289139

 Multiplicity           Mult            ....    1
 Number of Electrons    NEL             ....   18
 Basis Dimension        Dim             ....  172

ORBITAL ENERGIES
----------------

  NO   OCC          E(Eh)            E(eV)
   0   2.0000     -19.229260      -523.2548
   1   2.0000     -10.317179      -280.7447
   2   2.0000      -1.146909       -31.2090
   3   2.0000      -0.789153       -21.4739
   4   2.0000      -0.611938       -16.6517
   5   2.0000      -0.546133       -14.8610
   6   2.0000      -0.526519       -14.3273
   7   2.0000      -0.441359       -12.0100
   8   2.0000      -0.370311       -10.0767
   9   0.0000       0.067608         1.8397
  10   0.0000       0.132930         3.6172
  11   0.0000       0.156526         4.2593
  12   0.0000       0.160776         4.3749
  13   0.0000       0.183830         5.0023

MULLIKEN ATOMIC CHARGES
-----------------------
   0 C :   -0.001543
   1 O :   -0.005441
   2 H :   -0.000234
   3 H :    0.000007
   4 H :   -0.001160
   5 H :   -0.000027
   6 C :   -0.172010
   7 O :   -0.457244
   8 H :    0.314374
   9 H :    0.099071
  10 H :    0.107020
  11 H :    0.117188
Sum of atomic charges:   -0.0000000

LOEWDIN ATOMIC CHARGES
----------------------
   0 C :   -0.004525
   1 O :   -0.023368
   2 H :   -0.001129
   3 H :   -0.000061
   4 H :   -0.000795
   5 H :   -0.000074
   6 C :   -0.393392
   7 O :   -0.054120
   8 H :    0.173243
   9 H :    0.099673
  10 H :    0.100169
  11 H :    0.104380

  Mayer bond orders larger than 0.1
B(  6-C ,  7-O ) :   0.9812 B(  6-C ,  9-H ) :   0.9774 B(  6-C , 10-H ) :   0.9858
B(  6-C , 11-H ) :   0.9717 B(  7-O ,  8-H ) :   0.9139

Dispersion correction           -0.000214124
FINAL SINGLE POINT ENERGY      -115.732073255826

DIPOLE MOMENT
-------------
                                X             Y             Z
Electronic contribution:     -0.29922      -0.58847       1.69878
Nuclear contribution   :      0.87124       0.84724      -2.02406
                        -----------------------------------------
Total Dipole Moment    :      0.57202       0.25877      -0.32528
                        -----------------------------------------
Magnitude (a.u.)       :      0.70709
Magnitude (Debye)      :      1.79727

Rotational constants in cm-1:     4.133881     0.852067     0.818424
Rotational constants in MHz : 123930.642209 25544.327898 24535.733685

                             ****ORCA TERMINATED NORMALLY****
TOTAL RUN TIME: 0 days 0 hours 0 minutes 59 seconds 347 msec
