                         Program Version 4.1.2  - RELEASE  -
|  1> #Run DFT-D3 single point of the dimer
|  2> ! wB97X-D3 def2-TZVP TIGHTSCF CHELPG PMODEL PAL8
|  3>
|  4> %base "18-207_DFT_AB"
|  5>
|  6> %scf
|  7> MaxIter 1000
|  8> end
|  9>
| 10> * xyz 0 1
| 11>   C                      -4.918628            1.185095             -3.716477
| 12>   O                      -4.672259            0.000038             -4.366445
| 13>   H                      -4.953604            0.228841             -5.286936
| 14>   H                      -5.340126            1.935895             -4.329332
| 15>   H                      -5.471046            0.979331             -2.770990
| 16>   H                      -3.906583            1.564866             -3.351105
| 17>   C                      -4.316056            -0.856498            -8.775751
| 18>   O                      -4.542268            -0.190144            -7.540663
| 19>   H                      -5.476759            -0.406230            -7.283061
| 20>   H                      -4.513052            -1.905789            -8.747936
| 21>   H                      -4.996496            -0.417810            -9.494669
| 22>   H                      -3.271040            -0.721559            -9.192925
| 23> *
| 24>
| 25> #Run DFT-D3 single point of the molecule with dimer basis set
| 26> $new_job
| 27> %base "18-207_DFT_A"
| 28> ! wB97X-D3 def2-TZVP TIGHTSCF CHELPG PMODEL
| 29>
| 30> %scf
| 31> MaxIter 1000
| 32> end
| 33>
| 34> * xyz 0 1
| 35>   C                      -4.918628            1.185095             -3.716477
| 36>   O                      -4.672259            0.000038             -4.366445
| 37>   H                      -4.953604            0.228841             -5.286936
| 38>   H                      -5.340126            1.935895             -4.329332
| 39>   H                      -5.471046            0.979331             -2.770990
| 40>   H                      -3.906583            1.564866             -3.351105
| 41>   C                    : -4.316056            -0.856498            -8.775751
| 42>   O                    : -4.542268            -0.190144            -7.540663
| 43>   H                    : -5.476759            -0.406230            -7.283061
| 44>   H                    : -4.513052            -1.905789            -8.747936
| 45>   H                    : -4.996496            -0.417810            -9.494669
| 46>   H                    : -3.271040            -0.721559            -9.192925
| 47> *
| 48>
| 49> #Run DFT-D3 single point of the particle with dimer basis set
| 50> $new_job
| 51> %base "18-207_DFT_B"
| 52> ! wB97X-D3 def2-TZVP TIGHTSCF CHELPG PMODEL
| 53>
| 54> %scf
| 55> MaxIter 1000
| 56> end
| 57>
| 58> * xyz 0 1
| 59>   C                    : -4.918628            1.185095             -3.716477
| 60>   O                    : -4.672259            0.000038             -4.366445
| 61>   H                    : -4.953604            0.228841             -5.286936
| 62>   H                    : -5.340126            1.935895             -4.329332
| 63>   H                    : -5.471046            0.979331             -2.770990
| 64>   H                    : -3.906583            1.564866             -3.351105
| 65>   C                      -4.316056            -0.856498            -8.775751
| 66>   O                      -4.542268            -0.190144            -7.540663
| 67>   H                      -5.476759            -0.406230            -7.283061
| 68>   H                      -4.513052            -1.905789            -8.747936
| 69>   H                      -4.996496            -0.417810            -9.494669
| 70>   H                      -3.271040            -0.721559            -9.192925
| 71> *
| 72>
| 73>                          ****END OF INPUT****
 Total Charge           Charge          ....    0
 Multiplicity           Mult            ....    1
 Number of Electrons    NEL             ....   36
Dispersion correction           -0.001245822
FINAL SINGLE POINT ENERGY      -231.460219304674
Dispersion correction           -0.000221365
FINAL SINGLE POINT ENERGY      -115.727019186799

CARTESIAN COORDINATES (ANGSTROEM)
---------------------------------
  C     -4.918628    1.185095   -3.716477
  O     -4.672259    0.000038   -4.366445
  H     -4.953604    0.228841   -5.286936
  H     -5.340126    1.935895   -4.329332
  H     -5.471046    0.979331   -2.770990
  H     -3.906583    1.564866   -3.351105
  C     -4.316056   -0.856498   -8.775751
  O     -4.542268   -0.190144   -7.540663
  H     -5.476759   -0.406230   -7.283061
  H     -4.513052   -1.905789   -8.747936
  H     -4.996496   -0.417810   -9.494669
  H     -3.271040   -0.721559   -9.192925

 Multiplicity           Mult            ....    1
 Number of Electrons    NEL             ....   18
 Basis Dimension        Dim             ....  172

ORBITAL ENERGIES
----------------

  NO   OCC          E(Eh)            E(eV)
   0   2.0000     -19.234114      -523.3868
   1   2.0000     -10.313687      -280.6497
   2   2.0000      -1.129746       -30.7419
   3   2.0000      -0.792340       -21.5607
   4   2.0000      -0.606186       -16.4952
   5   2.0000      -0.543640       -14.7932
   6   2.0000      -0.524896       -14.2832
   7   2.0000      -0.433659       -11.8005
   8   2.0000      -0.372661       -10.1406
   9   0.0000       0.092976         2.5300
  10   0.0000       0.117769         3.2047
  11   0.0000       0.150258         4.0887
  12   0.0000       0.199767         5.4359
  13   0.0000       0.200717         5.4618

MULLIKEN ATOMIC CHARGES
-----------------------
   0 C :    0.000584
   1 O :    0.000687
   2 H :   -0.009398
   3 H :   -0.000276
   4 H :   -0.000016
   5 H :    0.000008
   6 C :   -0.181129
   7 O :   -0.465507
   8 H :    0.319676
   9 H :    0.109096
  10 H :    0.104720
  11 H :    0.121556
Sum of atomic charges:    0.0000000

LOEWDIN ATOMIC CHARGES
----------------------
   0 C :   -0.000519
   1 O :   -0.002653
   2 H :   -0.014952
   3 H :   -0.000104
   4 H :   -0.000010
   5 H :   -0.000006
   6 C :   -0.385877
   7 O :   -0.087805
   8 H :    0.193239
   9 H :    0.088066
  10 H :    0.093533
  11 H :    0.117087

  Mayer bond orders larger than 0.1
B(  6-C ,  7-O ) :   0.9897 B(  6-C ,  9-H ) :   0.9724 B(  6-C , 10-H ) :   0.9840
B(  6-C , 11-H ) :   0.9713 B(  7-O ,  8-H ) :   0.8903

Dispersion correction           -0.000235008
FINAL SINGLE POINT ENERGY      -115.732213261118

DIPOLE MOMENT
-------------
                                X             Y             Z
Electronic contribution:     -0.09971       0.85839       1.63724
Nuclear contribution   :     -0.39182      -1.26448      -1.99005
                        -----------------------------------------
Total Dipole Moment    :     -0.49154      -0.40609      -0.35281
                        -----------------------------------------
Magnitude (a.u.)       :      0.72869
Magnitude (Debye)      :      1.85219

Rotational constants in cm-1:     4.273458     0.823793     0.788220
Rotational constants in MHz : 128115.058890 24696.684670 23630.230423

                             ****ORCA TERMINATED NORMALLY****
TOTAL RUN TIME: 0 days 0 hours 1 minutes 5 seconds 963 msec
