                         Program Version 4.1.2  - RELEASE  -
|  1> #Run DFT-D3 single point of the dimer
|  2> ! wB97X-D3 def2-TZVP TIGHTSCF CHELPG PMODEL PAL8
|  3>
|  4> %base "12-58_DFT_AB"
|  5>
|  6> %scf
|  7> MaxIter 1000
|  8> end
|  9>
| 10> * xyz 0 1
| 11>   C                      1.228255             8.850175             -3.515345
| 12>   O                      1.191600             8.715200             -2.081027
| 13>   H                      0.242599             8.844409             -1.860280
| 14>   H                      1.453714             9.811640             -3.993332
| 15>   H                      1.787758             7.990946             -3.923253
| 16>   H                      0.282204             8.617246             -3.914783
| 17>   C                      4.971844             8.310376             -7.024136
| 18>   O                      4.012540             8.558436             -6.046264
| 19>   H                      3.330189             9.085641             -6.525561
| 20>   H                      5.563598             9.240118             -7.265811
| 21>   H                      5.697368             7.572420             -6.663549
| 22>   H                      4.517557             7.945873             -7.973777
| 23> *
| 24>
| 25> #Run DFT-D3 single point of the molecule with dimer basis set
| 26> $new_job
| 27> %base "12-58_DFT_A"
| 28> ! wB97X-D3 def2-TZVP TIGHTSCF CHELPG PMODEL
| 29>
| 30> %scf
| 31> MaxIter 1000
| 32> end
| 33>
| 34> * xyz 0 1
| 35>   C                      1.228255             8.850175             -3.515345
| 36>   O                      1.191600             8.715200             -2.081027
| 37>   H                      0.242599             8.844409             -1.860280
| 38>   H                      1.453714             9.811640             -3.993332
| 39>   H                      1.787758             7.990946             -3.923253
| 40>   H                      0.282204             8.617246             -3.914783
| 41>   C                    : 4.971844             8.310376             -7.024136
| 42>   O                    : 4.012540             8.558436             -6.046264
| 43>   H                    : 3.330189             9.085641             -6.525561
| 44>   H                    : 5.563598             9.240118             -7.265811
| 45>   H                    : 5.697368             7.572420             -6.663549
| 46>   H                    : 4.517557             7.945873             -7.973777
| 47> *
| 48>
| 49> #Run DFT-D3 single point of the particle with dimer basis set
| 50> $new_job
| 51> %base "12-58_DFT_B"
| 52> ! wB97X-D3 def2-TZVP TIGHTSCF CHELPG PMODEL
| 53>
| 54> %scf
| 55> MaxIter 1000
| 56> end
| 57>
| 58> * xyz 0 1
| 59>   C                    : 1.228255             8.850175             -3.515345
| 60>   O                    : 1.191600             8.715200             -2.081027
| 61>   H                    : 0.242599             8.844409             -1.860280
| 62>   H                    : 1.453714             9.811640             -3.993332
| 63>   H                    : 1.787758             7.990946             -3.923253
| 64>   H                    : 0.282204             8.617246             -3.914783
| 65>   C                      4.971844             8.310376             -7.024136
| 66>   O                      4.012540             8.558436             -6.046264
| 67>   H                      3.330189             9.085641             -6.525561
| 68>   H                      5.563598             9.240118             -7.265811
| 69>   H                      5.697368             7.572420             -6.663549
| 70>   H                      4.517557             7.945873             -7.973777
| 71> *
| 72>
| 73>                          ****END OF INPUT****
 Total Charge           Charge          ....    0
 Multiplicity           Mult            ....    1
 Number of Electrons    NEL             ....   36
Dispersion correction           -0.001154877
FINAL SINGLE POINT ENERGY      -231.460722281053
Dispersion correction           -0.000258969
FINAL SINGLE POINT ENERGY      -115.725759090832

CARTESIAN COORDINATES (ANGSTROEM)
---------------------------------
  C      1.228255    8.850175   -3.515345
  O      1.191600    8.715200   -2.081027
  H      0.242599    8.844409   -1.860280
  H      1.453714    9.811640   -3.993332
  H      1.787758    7.990946   -3.923253
  H      0.282204    8.617246   -3.914783
  C      4.971844    8.310376   -7.024136
  O      4.012540    8.558436   -6.046264
  H      3.330189    9.085641   -6.525561
  H      5.563598    9.240118   -7.265811
  H      5.697368    7.572420   -6.663549
  H      4.517557    7.945873   -7.973777

 Multiplicity           Mult            ....    1
 Number of Electrons    NEL             ....   18
 Basis Dimension        Dim             ....  172

ORBITAL ENERGIES
----------------

  NO   OCC          E(Eh)            E(eV)
   0   2.0000     -19.235860      -523.4344
   1   2.0000     -10.317013      -280.7402
   2   2.0000      -1.143108       -31.1056
   3   2.0000      -0.786200       -21.3936
   4   2.0000      -0.611712       -16.6455
   5   2.0000      -0.539533       -14.6815
   6   2.0000      -0.530142       -14.4259
   7   2.0000      -0.437235       -11.8978
   8   2.0000      -0.371305       -10.1037
   9   0.0000       0.089515         2.4358
  10   0.0000       0.116088         3.1589
  11   0.0000       0.151330         4.1179
  12   0.0000       0.187172         5.0932
  13   0.0000       0.196755         5.3540

MULLIKEN ATOMIC CHARGES
-----------------------
   0 C :    0.001185
   1 O :   -0.000028
   2 H :   -0.000008
   3 H :   -0.000784
   4 H :   -0.004220
   5 H :   -0.000132
   6 C :   -0.173577
   7 O :   -0.455004
   8 H :    0.319285
   9 H :    0.094764
  10 H :    0.120748
  11 H :    0.097771
Sum of atomic charges:    0.0000000

LOEWDIN ATOMIC CHARGES
----------------------
   0 C :   -0.002494
   1 O :   -0.000016
   2 H :   -0.000005
   3 H :   -0.000505
   4 H :   -0.002800
   5 H :   -0.000019
   6 C :   -0.416225
   7 O :   -0.068668
   8 H :    0.190666
   9 H :    0.097144
  10 H :    0.107424
  11 H :    0.095499

  Mayer bond orders larger than 0.1
B(  6-C ,  7-O ) :   1.0037 B(  6-C ,  9-H ) :   0.9709 B(  6-C , 10-H ) :   0.9741
B(  6-C , 11-H ) :   0.9773 B(  7-O ,  8-H ) :   0.8937

Dispersion correction           -0.000229082
FINAL SINGLE POINT ENERGY      -115.734817008178

DIPOLE MOMENT
-------------
                                X             Y             Z
Electronic contribution:     -1.21360       0.18559       1.44585
Nuclear contribution   :      1.15218       0.03091      -2.09732
                        -----------------------------------------
Total Dipole Moment    :     -0.06142       0.21650      -0.65147
                        -----------------------------------------
Magnitude (a.u.)       :      0.68925
Magnitude (Debye)      :      1.75193

Rotational constants in cm-1:     4.105512     0.853016     0.818458
Rotational constants in MHz : 123080.158759 25572.766437 24536.738595

                             ****ORCA TERMINATED NORMALLY****
TOTAL RUN TIME: 0 days 0 hours 0 minutes 59 seconds 638 msec
