                         Program Version 4.1.2  - RELEASE  -
|  1> #Run DFT-D3 single point of the dimer
|  2> ! wB97X-D3 def2-TZVP TIGHTSCF CHELPG PMODEL PAL8
|  3>
|  4> %base "15-1_DFT_AB"
|  5>
|  6> %scf
|  7> MaxIter 1000
|  8> end
|  9>
| 10> * xyz 0 1
| 11>   C                      -6.481891            -7.877271            7.250222
| 12>   O                      -6.198547            -6.565036            6.837370
| 13>   H                      -6.806889            -6.005382            7.336781
| 14>   H                      -7.552956            -8.073217            7.112625
| 15>   H                      -5.784904            -8.580147            6.772301
| 16>   H                      -6.373916            -7.930089            8.316778
| 17>   C                      -3.528344            -10.035189           5.147963
| 18>   O                      -4.349282            -10.748182           6.034995
| 19>   H                      -4.399661            -11.632852           5.680013
| 20>   H                      -3.695093            -10.267200           4.097978
| 21>   H                      -3.713790            -8.967588            5.271125
| 22>   H                      -2.483813            -10.287818           5.330035
| 23> *
| 24>
| 25> #Run DFT-D3 single point of the molecule with dimer basis set
| 26> $new_job
| 27> %base "15-1_DFT_A"
| 28> ! wB97X-D3 def2-TZVP TIGHTSCF CHELPG PMODEL
| 29>
| 30> %scf
| 31> MaxIter 1000
| 32> end
| 33>
| 34> * xyz 0 1
| 35>   C                      -6.481891            -7.877271            7.250222
| 36>   O                      -6.198547            -6.565036            6.837370
| 37>   H                      -6.806889            -6.005382            7.336781
| 38>   H                      -7.552956            -8.073217            7.112625
| 39>   H                      -5.784904            -8.580147            6.772301
| 40>   H                      -6.373916            -7.930089            8.316778
| 41>   C                    : -3.528344            -10.035189           5.147963
| 42>   O                    : -4.349282            -10.748182           6.034995
| 43>   H                    : -4.399661            -11.632852           5.680013
| 44>   H                    : -3.695093            -10.267200           4.097978
| 45>   H                    : -3.713790            -8.967588            5.271125
| 46>   H                    : -2.483813            -10.287818           5.330035
| 47> *
| 48>
| 49> #Run DFT-D3 single point of the particle with dimer basis set
| 50> $new_job
| 51> %base "15-1_DFT_B"
| 52> ! wB97X-D3 def2-TZVP TIGHTSCF CHELPG PMODEL
| 53>
| 54> %scf
| 55> MaxIter 1000
| 56> end
| 57>
| 58> * xyz 0 1
| 59>   C                    : -6.481891            -7.877271            7.250222
| 60>   O                    : -6.198547            -6.565036            6.837370
| 61>   H                    : -6.806889            -6.005382            7.336781
| 62>   H                    : -7.552956            -8.073217            7.112625
| 63>   H                    : -5.784904            -8.580147            6.772301
| 64>   H                    : -6.373916            -7.930089            8.316778
| 65>   C                      -3.528344            -10.035189           5.147963
| 66>   O                      -4.349282            -10.748182           6.034995
| 67>   H                      -4.399661            -11.632852           5.680013
| 68>   H                      -3.695093            -10.267200           4.097978
| 69>   H                      -3.713790            -8.967588            5.271125
| 70>   H                      -2.483813            -10.287818           5.330035
| 71> *
| 72>
| 73>                          ****END OF INPUT****
 Total Charge           Charge          ....    0
 Multiplicity           Mult            ....    1
 Number of Electrons    NEL             ....   36
Dispersion correction           -0.001357421
FINAL SINGLE POINT ENERGY      -231.471385602386
Dispersion correction           -0.000206335
FINAL SINGLE POINT ENERGY      -115.733115935806

CARTESIAN COORDINATES (ANGSTROEM)
---------------------------------
  C     -6.481891   -7.877271    7.250222
  O     -6.198547   -6.565036    6.837370
  H     -6.806889   -6.005382    7.336781
  H     -7.552956   -8.073217    7.112625
  H     -5.784904   -8.580147    6.772301
  H     -6.373916   -7.930089    8.316778
  C     -3.528344  -10.035189    5.147963
  O     -4.349282  -10.748182    6.034995
  H     -4.399661  -11.632852    5.680013
  H     -3.695093  -10.267200    4.097978
  H     -3.713790   -8.967588    5.271125
  H     -2.483813  -10.287818    5.330035

 Multiplicity           Mult            ....    1
 Number of Electrons    NEL             ....   18
 Basis Dimension        Dim             ....  172

ORBITAL ENERGIES
----------------

  NO   OCC          E(Eh)            E(eV)
   0   2.0000     -19.230660      -523.2929
   1   2.0000     -10.310016      -280.5498
   2   2.0000      -1.142697       -31.0944
   3   2.0000      -0.795350       -21.6426
   4   2.0000      -0.616222       -16.7683
   5   2.0000      -0.544373       -14.8132
   6   2.0000      -0.525235       -14.2924
   7   2.0000      -0.439278       -11.9534
   8   2.0000      -0.372959       -10.1487
   9   0.0000       0.095119         2.5883
  10   0.0000       0.118164         3.2154
  11   0.0000       0.155862         4.2412
  12   0.0000       0.182171         4.9571
  13   0.0000       0.186583         5.0772

MULLIKEN ATOMIC CHARGES
-----------------------
   0 C :   -0.002775
   1 O :    0.000027
   2 H :   -0.000005
   3 H :    0.000098
   4 H :    0.000977
   5 H :   -0.000047
   6 C :   -0.176673
   7 O :   -0.459166
   8 H :    0.310335
   9 H :    0.103425
  10 H :    0.120855
  11 H :    0.102950
Sum of atomic charges:    0.0000000

LOEWDIN ATOMIC CHARGES
----------------------
   0 C :   -0.002689
   1 O :   -0.000068
   2 H :   -0.000003
   3 H :   -0.000018
   4 H :   -0.005634
   5 H :   -0.000032
   6 C :   -0.393578
   7 O :   -0.059993
   8 H :    0.167204
   9 H :    0.092737
  10 H :    0.108226
  11 H :    0.093848

  Mayer bond orders larger than 0.1
B(  6-C ,  7-O ) :   0.9977 B(  6-C ,  9-H ) :   0.9774 B(  6-C , 10-H ) :   0.9766
B(  6-C , 11-H ) :   0.9769 B(  7-O ,  8-H ) :   0.9017

Dispersion correction           -0.000225464
FINAL SINGLE POINT ENERGY      -115.736115163897

DIPOLE MOMENT
-------------
                                X             Y             Z
Electronic contribution:     -1.11129      -0.78901       1.25102
Nuclear contribution   :      1.38547       0.49900      -1.82987
                        -----------------------------------------
Total Dipole Moment    :      0.27418      -0.29000      -0.57885
                        -----------------------------------------
Magnitude (a.u.)       :      0.70310
Magnitude (Debye)      :      1.78713

Rotational constants in cm-1:     4.311378     0.847146     0.813507
Rotational constants in MHz : 129251.862082 25396.786472 24388.315380

                             ****ORCA TERMINATED NORMALLY****
TOTAL RUN TIME: 0 days 0 hours 0 minutes 53 seconds 97 msec
