                         Program Version 4.1.2  - RELEASE  -
|  1> #Run DFT-D3 single point of the dimer
|  2> ! wB97X-D3 def2-TZVP TIGHTSCF CHELPG PMODEL PAL8
|  3>
|  4> %base "9-13_DFT_AB"
|  5>
|  6> %scf
|  7> MaxIter 1000
|  8> end
|  9>
| 10> * xyz 0 1
| 11>   C                      1.487376             -0.428665            4.266690
| 12>   O                      2.630056             -0.194025            5.057445
| 13>   H                      2.762876             -0.876611            5.745413
| 14>   H                      1.308714             0.285588             3.519412
| 15>   H                      1.633911             -1.323911            3.744331
| 16>   H                      0.553844             -0.624710            4.835763
| 17>   C                      -2.747217            -1.439285            7.215734
| 18>   O                      -3.661565            -2.257749            7.941439
| 19>   H                      -4.087411            -2.914877            7.304557
| 20>   H                      -1.744539            -1.863552            7.165893
| 21>   H                      -3.187766            -1.140830            6.244377
| 22>   H                      -2.642980            -0.476722            7.720025
| 23> *
| 24>
| 25> #Run DFT-D3 single point of the molecule with dimer basis set
| 26> $new_job
| 27> %base "9-13_DFT_A"
| 28> ! wB97X-D3 def2-TZVP TIGHTSCF CHELPG PMODEL
| 29>
| 30> %scf
| 31> MaxIter 1000
| 32> end
| 33>
| 34> * xyz 0 1
| 35>   C                      1.487376             -0.428665            4.266690
| 36>   O                      2.630056             -0.194025            5.057445
| 37>   H                      2.762876             -0.876611            5.745413
| 38>   H                      1.308714             0.285588             3.519412
| 39>   H                      1.633911             -1.323911            3.744331
| 40>   H                      0.553844             -0.624710            4.835763
| 41>   C                    : -2.747217            -1.439285            7.215734
| 42>   O                    : -3.661565            -2.257749            7.941439
| 43>   H                    : -4.087411            -2.914877            7.304557
| 44>   H                    : -1.744539            -1.863552            7.165893
| 45>   H                    : -3.187766            -1.140830            6.244377
| 46>   H                    : -2.642980            -0.476722            7.720025
| 47> *
| 48>
| 49> #Run DFT-D3 single point of the particle with dimer basis set
| 50> $new_job
| 51> %base "9-13_DFT_B"
| 52> ! wB97X-D3 def2-TZVP TIGHTSCF CHELPG PMODEL
| 53>
| 54> %scf
| 55> MaxIter 1000
| 56> end
| 57>
| 58> * xyz 0 1
| 59>   C                    : 1.487376             -0.428665            4.266690
| 60>   O                    : 2.630056             -0.194025            5.057445
| 61>   H                    : 2.762876             -0.876611            5.745413
| 62>   H                    : 1.308714             0.285588             3.519412
| 63>   H                    : 1.633911             -1.323911            3.744331
| 64>   H                    : 0.553844             -0.624710            4.835763
| 65>   C                      -2.747217            -1.439285            7.215734
| 66>   O                      -3.661565            -2.257749            7.941439
| 67>   H                      -4.087411            -2.914877            7.304557
| 68>   H                      -1.744539            -1.863552            7.165893
| 69>   H                      -3.187766            -1.140830            6.244377
| 70>   H                      -2.642980            -0.476722            7.720025
| 71> *
| 72>
| 73>                          ****END OF INPUT****
 Total Charge           Charge          ....    0
 Multiplicity           Mult            ....    1
 Number of Electrons    NEL             ....   36
Dispersion correction           -0.000763359
FINAL SINGLE POINT ENERGY      -231.461995186768
Dispersion correction           -0.000243512
FINAL SINGLE POINT ENERGY      -115.729494432147

CARTESIAN COORDINATES (ANGSTROEM)
---------------------------------
  C      1.487376   -0.428665    4.266690
  O      2.630056   -0.194025    5.057445
  H      2.762876   -0.876611    5.745413
  H      1.308714    0.285588    3.519412
  H      1.633911   -1.323911    3.744331
  H      0.553844   -0.624710    4.835763
  C     -2.747217   -1.439285    7.215734
  O     -3.661565   -2.257749    7.941439
  H     -4.087411   -2.914877    7.304557
  H     -1.744539   -1.863552    7.165893
  H     -3.187766   -1.140830    6.244377
  H     -2.642980   -0.476722    7.720025

 Multiplicity           Mult            ....    1
 Number of Electrons    NEL             ....   18
 Basis Dimension        Dim             ....  172

ORBITAL ENERGIES
----------------

  NO   OCC          E(Eh)            E(eV)
   0   2.0000     -19.233184      -523.3615
   1   2.0000     -10.313530      -280.6454
   2   2.0000      -1.122402       -30.5421
   3   2.0000      -0.791789       -21.5457
   4   2.0000      -0.598626       -16.2894
   5   2.0000      -0.547088       -14.8870
   6   2.0000      -0.522462       -14.2169
   7   2.0000      -0.424359       -11.5474
   8   2.0000      -0.374851       -10.2002
   9   0.0000       0.082777         2.2525
  10   0.0000       0.109946         2.9918
  11   0.0000       0.142129         3.8675
  12   0.0000       0.161305         4.3893
  13   0.0000       0.191510         5.2112

MULLIKEN ATOMIC CHARGES
-----------------------
   0 C :    0.000239
   1 O :   -0.000002
   2 H :   -0.000008
   3 H :   -0.000013
   4 H :   -0.000022
   5 H :   -0.000523
   6 C :   -0.162541
   7 O :   -0.479531
   8 H :    0.318392
   9 H :    0.107114
  10 H :    0.100244
  11 H :    0.116653
Sum of atomic charges:    0.0000000

LOEWDIN ATOMIC CHARGES
----------------------
   0 C :   -0.000061
   1 O :   -0.000002
   2 H :   -0.000003
   3 H :   -0.000001
   4 H :   -0.000002
   5 H :   -0.000341
   6 C :   -0.385902
   7 O :   -0.109419
   8 H :    0.195314
   9 H :    0.094804
  10 H :    0.099111
  11 H :    0.106500

  Mayer bond orders larger than 0.1
B(  6-C ,  7-O ) :   1.0077 B(  6-C ,  9-H ) :   0.9719 B(  6-C , 10-H ) :   0.9822
B(  6-C , 11-H ) :   0.9723 B(  7-O ,  8-H ) :   0.8921

Dispersion correction           -0.000258130
FINAL SINGLE POINT ENERGY      -115.732329993099

DIPOLE MOMENT
-------------
                                X             Y             Z
Electronic contribution:     -1.06331      -1.05539       1.02383
Nuclear contribution   :      1.15421       1.00393      -1.70532
                        -----------------------------------------
Total Dipole Moment    :      0.09089      -0.05147      -0.68149
                        -----------------------------------------
Magnitude (a.u.)       :      0.68945
Magnitude (Debye)      :      1.75243

Rotational constants in cm-1:     4.219140     0.811624     0.789193
Rotational constants in MHz : 126486.628048 24331.865230 23659.421381

                             ****ORCA TERMINATED NORMALLY****
TOTAL RUN TIME: 0 days 0 hours 0 minutes 38 seconds 503 msec
