                         Program Version 4.1.2  - RELEASE  -
|  1> #Run DFT-D3 single point of the dimer
|  2> ! wB97X-D3 def2-TZVP TIGHTSCF CHELPG PMODEL PAL8
|  3>
|  4> %base "21-174_DFT_AB"
|  5>
|  6> %scf
|  7> MaxIter 1000
|  8> end
|  9>
| 10> * xyz 0 1
| 11>   C                      9.472084             -11.337148           -8.910433
| 12>   O                      8.816187             -10.835881           -7.791333
| 13>   H                      8.235912             -10.104401           -8.032040
| 14>   H                      10.273137            -11.995235           -8.539505
| 15>   H                      8.851538             -11.855969           -9.677426
| 16>   H                      10.003461            -10.531981           -9.493681
| 17>   C                      5.350701             -9.221454            -8.109275
| 18>   O                      6.635878             -9.249163            -8.663243
| 19>   H                      6.555255             -9.308702            -9.601032
| 20>   H                      5.236071             -8.268679            -7.627305
| 21>   H                      4.513385             -9.340610            -8.831283
| 22>   H                      5.364953             -10.001171           -7.316349
| 23> *
| 24>
| 25> #Run DFT-D3 single point of the molecule with dimer basis set
| 26> $new_job
| 27> %base "21-174_DFT_A"
| 28> ! wB97X-D3 def2-TZVP TIGHTSCF CHELPG PMODEL
| 29>
| 30> %scf
| 31> MaxIter 1000
| 32> end
| 33>
| 34> * xyz 0 1
| 35>   C                      9.472084             -11.337148           -8.910433
| 36>   O                      8.816187             -10.835881           -7.791333
| 37>   H                      8.235912             -10.104401           -8.032040
| 38>   H                      10.273137            -11.995235           -8.539505
| 39>   H                      8.851538             -11.855969           -9.677426
| 40>   H                      10.003461            -10.531981           -9.493681
| 41>   C                    : 5.350701             -9.221454            -8.109275
| 42>   O                    : 6.635878             -9.249163            -8.663243
| 43>   H                    : 6.555255             -9.308702            -9.601032
| 44>   H                    : 5.236071             -8.268679            -7.627305
| 45>   H                    : 4.513385             -9.340610            -8.831283
| 46>   H                    : 5.364953             -10.001171           -7.316349
| 47> *
| 48>
| 49> #Run DFT-D3 single point of the particle with dimer basis set
| 50> $new_job
| 51> %base "21-174_DFT_B"
| 52> ! wB97X-D3 def2-TZVP TIGHTSCF CHELPG PMODEL
| 53>
| 54> %scf
| 55> MaxIter 1000
| 56> end
| 57>
| 58> * xyz 0 1
| 59>   C                    : 9.472084             -11.337148           -8.910433
| 60>   O                    : 8.816187             -10.835881           -7.791333
| 61>   H                    : 8.235912             -10.104401           -8.032040
| 62>   H                    : 10.273137            -11.995235           -8.539505
| 63>   H                    : 8.851538             -11.855969           -9.677426
| 64>   H                    : 10.003461            -10.531981           -9.493681
| 65>   C                      5.350701             -9.221454            -8.109275
| 66>   O                      6.635878             -9.249163            -8.663243
| 67>   H                      6.555255             -9.308702            -9.601032
| 68>   H                      5.236071             -8.268679            -7.627305
| 69>   H                      4.513385             -9.340610            -8.831283
| 70>   H                      5.364953             -10.001171           -7.316349
| 71> *
| 72>
| 73>                          ****END OF INPUT****
 Total Charge           Charge          ....    0
 Multiplicity           Mult            ....    1
 Number of Electrons    NEL             ....   36
Dispersion correction           -0.001706290
FINAL SINGLE POINT ENERGY      -231.476237420504
Dispersion correction           -0.000258096
FINAL SINGLE POINT ENERGY      -115.735564709051

CARTESIAN COORDINATES (ANGSTROEM)
---------------------------------
  C      9.472084  -11.337148   -8.910433
  O      8.816187  -10.835881   -7.791333
  H      8.235912  -10.104401   -8.032040
  H     10.273137  -11.995235   -8.539505
  H      8.851538  -11.855969   -9.677426
  H     10.003461  -10.531981   -9.493681
  C      5.350701   -9.221454   -8.109275
  O      6.635878   -9.249163   -8.663243
  H      6.555255   -9.308702   -9.601032
  H      5.236071   -8.268679   -7.627305
  H      4.513385   -9.340610   -8.831283
  H      5.364953  -10.001171   -7.316349

 Multiplicity           Mult            ....    1
 Number of Electrons    NEL             ....   18
 Basis Dimension        Dim             ....  172

ORBITAL ENERGIES
----------------

  NO   OCC          E(Eh)            E(eV)
   0   2.0000     -19.226824      -523.1885
   1   2.0000     -10.313274      -280.6385
   2   2.0000      -1.143648       -31.1202
   3   2.0000      -0.795077       -21.6351
   4   2.0000      -0.616166       -16.7667
   5   2.0000      -0.542256       -14.7555
   6   2.0000      -0.525700       -14.3050
   7   2.0000      -0.438410       -11.9297
   8   2.0000      -0.369009       -10.0412
   9   0.0000       0.094741         2.5780
  10   0.0000       0.125813         3.4235
  11   0.0000       0.158062         4.3011
  12   0.0000       0.179572         4.8864
  13   0.0000       0.202075         5.4987

MULLIKEN ATOMIC CHARGES
-----------------------
   0 C :   -0.003162
   1 O :   -0.000209
   2 H :   -0.005041
   3 H :   -0.000285
   4 H :   -0.000952
   5 H :   -0.000148
   6 C :   -0.156439
   7 O :   -0.465502
   8 H :    0.311794
   9 H :    0.107869
  10 H :    0.102870
  11 H :    0.109203
Sum of atomic charges:   -0.0000000

LOEWDIN ATOMIC CHARGES
----------------------
   0 C :   -0.004173
   1 O :   -0.006676
   2 H :   -0.043710
   3 H :   -0.000091
   4 H :   -0.000671
   5 H :   -0.000134
   6 C :   -0.390690
   7 O :   -0.015912
   8 H :    0.159082
   9 H :    0.095391
  10 H :    0.100529
  11 H :    0.107054

  Mayer bond orders larger than 0.1
B(  6-C ,  7-O ) :   0.9926 B(  6-C ,  9-H ) :   0.9790 B(  6-C , 10-H ) :   0.9739
B(  6-C , 11-H ) :   0.9832 B(  7-O ,  8-H ) :   0.9028

Dispersion correction           -0.000238847
FINAL SINGLE POINT ENERGY      -115.733354009318

DIPOLE MOMENT
-------------
                                X             Y             Z
Electronic contribution:      1.61773      -0.03291      -0.67491
Nuclear contribution   :     -2.17988       0.02438       0.26436
                        -----------------------------------------
Total Dipole Moment    :     -0.56215      -0.00853      -0.41055
                        -----------------------------------------
Magnitude (a.u.)       :      0.69616
Magnitude (Debye)      :      1.76950

Rotational constants in cm-1:     4.230692     0.854708     0.817509
Rotational constants in MHz : 126832.958217 25623.515834 24508.315668

                             ****ORCA TERMINATED NORMALLY****
TOTAL RUN TIME: 0 days 0 hours 1 minutes 7 seconds 916 msec
