                         Program Version 4.1.2  - RELEASE  -
|  1> #Run DFT-D3 single point of the dimer
|  2> ! wB97X-D3 def2-TZVP TIGHTSCF CHELPG PMODEL PAL8
|  3>
|  4> %base "14-172_DFT_AB"
|  5>
|  6> %scf
|  7> MaxIter 1000
|  8> end
|  9>
| 10> * xyz 0 1
| 11>   C                      3.740945             6.725552             -0.939064
| 12>   O                      2.494065             7.327196             -0.686592
| 13>   H                      2.374699             7.452725             0.244688
| 14>   H                      4.622267             7.305502             -0.549109
| 15>   H                      3.679804             5.710443             -0.489413
| 16>   H                      3.882475             6.549137             -2.046860
| 17>   C                      0.387438             7.211846             -3.550846
| 18>   O                      1.792564             7.463747             -3.620765
| 19>   H                      2.049877             7.318178             -2.693924
| 20>   H                      0.212305             6.111345             -3.715045
| 21>   H                      -0.024939            7.621403             -2.647262
| 22>   H                      -0.201617            7.672835             -4.356984
| 23> *
| 24>
| 25> #Run DFT-D3 single point of the molecule with dimer basis set
| 26> $new_job
| 27> %base "14-172_DFT_A"
| 28> ! wB97X-D3 def2-TZVP TIGHTSCF CHELPG PMODEL
| 29>
| 30> %scf
| 31> MaxIter 1000
| 32> end
| 33>
| 34> * xyz 0 1
| 35>   C                      3.740945             6.725552             -0.939064
| 36>   O                      2.494065             7.327196             -0.686592
| 37>   H                      2.374699             7.452725             0.244688
| 38>   H                      4.622267             7.305502             -0.549109
| 39>   H                      3.679804             5.710443             -0.489413
| 40>   H                      3.882475             6.549137             -2.046860
| 41>   C                    : 0.387438             7.211846             -3.550846
| 42>   O                    : 1.792564             7.463747             -3.620765
| 43>   H                    : 2.049877             7.318178             -2.693924
| 44>   H                    : 0.212305             6.111345             -3.715045
| 45>   H                    : -0.024939            7.621403             -2.647262
| 46>   H                    : -0.201617            7.672835             -4.356984
| 47> *
| 48>
| 49> #Run DFT-D3 single point of the particle with dimer basis set
| 50> $new_job
| 51> %base "14-172_DFT_B"
| 52> ! wB97X-D3 def2-TZVP TIGHTSCF CHELPG PMODEL
| 53>
| 54> %scf
| 55> MaxIter 1000
| 56> end
| 57>
| 58> * xyz 0 1
| 59>   C                    : 3.740945             6.725552             -0.939064
| 60>   O                    : 2.494065             7.327196             -0.686592
| 61>   H                    : 2.374699             7.452725             0.244688
| 62>   H                    : 4.622267             7.305502             -0.549109
| 63>   H                    : 3.679804             5.710443             -0.489413
| 64>   H                    : 3.882475             6.549137             -2.046860
| 65>   C                      0.387438             7.211846             -3.550846
| 66>   O                      1.792564             7.463747             -3.620765
| 67>   H                      2.049877             7.318178             -2.693924
| 68>   H                      0.212305             6.111345             -3.715045
| 69>   H                      -0.024939            7.621403             -2.647262
| 70>   H                      -0.201617            7.672835             -4.356984
| 71> *
| 72>
| 73>                          ****END OF INPUT****
 Total Charge           Charge          ....    0
 Multiplicity           Mult            ....    1
 Number of Electrons    NEL             ....   36
Dispersion correction           -0.001818628
FINAL SINGLE POINT ENERGY      -231.471925656504
Dispersion correction           -0.000246285
FINAL SINGLE POINT ENERGY      -115.733816569667

CARTESIAN COORDINATES (ANGSTROEM)
---------------------------------
  C      3.740945    6.725552   -0.939064
  O      2.494065    7.327196   -0.686592
  H      2.374699    7.452725    0.244688
  H      4.622267    7.305502   -0.549109
  H      3.679804    5.710443   -0.489413
  H      3.882475    6.549137   -2.046860
  C      0.387438    7.211846   -3.550846
  O      1.792564    7.463747   -3.620765
  H      2.049877    7.318178   -2.693924
  H      0.212305    6.111345   -3.715045
  H     -0.024939    7.621403   -2.647262
  H     -0.201617    7.672835   -4.356984

 Multiplicity           Mult            ....    1
 Number of Electrons    NEL             ....   18
 Basis Dimension        Dim             ....  172

ORBITAL ENERGIES
----------------

  NO   OCC          E(Eh)            E(eV)
   0   2.0000     -19.234363      -523.3936
   1   2.0000     -10.316725      -280.7324
   2   2.0000      -1.134753       -30.8782
   3   2.0000      -0.791801       -21.5460
   4   2.0000      -0.604502       -16.4493
   5   2.0000      -0.543602       -14.7922
   6   2.0000      -0.527324       -14.3492
   7   2.0000      -0.436994       -11.8912
   8   2.0000      -0.374541       -10.1918
   9   0.0000       0.070613         1.9215
  10   0.0000       0.132087         3.5943
  11   0.0000       0.154656         4.2084
  12   0.0000       0.160904         4.3784
  13   0.0000       0.193993         5.2788

MULLIKEN ATOMIC CHARGES
-----------------------
   0 C :   -0.002990
   1 O :   -0.001700
   2 H :   -0.000117
   3 H :   -0.000042
   4 H :    0.000658
   5 H :   -0.003737
   6 C :   -0.180983
   7 O :   -0.457533
   8 H :    0.315989
   9 H :    0.103660
  10 H :    0.109763
  11 H :    0.117031
Sum of atomic charges:   -0.0000000

LOEWDIN ATOMIC CHARGES
----------------------
   0 C :   -0.010441
   1 O :   -0.013080
   2 H :   -0.000489
   3 H :   -0.000145
   4 H :   -0.000134
   5 H :   -0.005601
   6 C :   -0.383366
   7 O :   -0.079840
   8 H :    0.189877
   9 H :    0.103467
  10 H :    0.093074
  11 H :    0.106678

  Mayer bond orders larger than 0.1
B(  6-C ,  7-O ) :   0.9980 B(  6-C ,  9-H ) :   0.9762 B(  6-C , 10-H ) :   0.9805
B(  6-C , 11-H ) :   0.9731 B(  7-O ,  8-H ) :   0.9070

Dispersion correction           -0.000236749
FINAL SINGLE POINT ENERGY      -115.731545445750

DIPOLE MOMENT
-------------
                                X             Y             Z
Electronic contribution:      1.81110       0.41522      -0.19632
Nuclear contribution   :     -2.22424      -0.57147       0.77816
                        -----------------------------------------
Total Dipole Moment    :     -0.41314      -0.15625       0.58185
                        -----------------------------------------
Magnitude (a.u.)       :      0.73051
Magnitude (Debye)      :      1.85681

Rotational constants in cm-1:     4.206880     0.817672     0.793520
Rotational constants in MHz : 126119.087927 24513.204452 23789.134129

                             ****ORCA TERMINATED NORMALLY****
TOTAL RUN TIME: 0 days 0 hours 1 minutes 1 seconds 450 msec
