                         Program Version 4.1.2  - RELEASE  -
|  1> #Run DFT-D3 single point of the dimer
|  2> ! wB97X-D3 def2-TZVP TIGHTSCF CHELPG PMODEL PAL8
|  3>
|  4> %base "2-106_DFT_AB"
|  5>
|  6> %scf
|  7> MaxIter 1000
|  8> end
|  9>
| 10> * xyz 0 1
| 11>   C                      8.250343             5.705359             -1.178994
| 12>   O                      7.781973             4.399579             -0.935683
| 13>   H                      6.990076             4.528335             -0.441139
| 14>   H                      7.784217             6.542154             -0.621818
| 15>   H                      9.292746             5.743374             -0.911809
| 16>   H                      8.314528             5.887828             -2.257205
| 17>   C                      11.324250            8.018713             0.800277
| 18>   O                      11.450950            9.450399             0.539748
| 19>   H                      11.023977            9.656100             -0.268351
| 20>   H                      12.023103            7.703118             1.588103
| 21>   H                      10.280031            7.912908             1.156110
| 22>   H                      11.497939            7.407432             -0.101205
| 23> *
| 24>
| 25> #Run DFT-D3 single point of the molecule with dimer basis set
| 26> $new_job
| 27> %base "2-106_DFT_A"
| 28> ! wB97X-D3 def2-TZVP TIGHTSCF CHELPG PMODEL
| 29>
| 30> %scf
| 31> MaxIter 1000
| 32> end
| 33>
| 34> * xyz 0 1
| 35>   C                      8.250343             5.705359             -1.178994
| 36>   O                      7.781973             4.399579             -0.935683
| 37>   H                      6.990076             4.528335             -0.441139
| 38>   H                      7.784217             6.542154             -0.621818
| 39>   H                      9.292746             5.743374             -0.911809
| 40>   H                      8.314528             5.887828             -2.257205
| 41>   C                    : 11.324250            8.018713             0.800277
| 42>   O                    : 11.450950            9.450399             0.539748
| 43>   H                    : 11.023977            9.656100             -0.268351
| 44>   H                    : 12.023103            7.703118             1.588103
| 45>   H                    : 10.280031            7.912908             1.156110
| 46>   H                    : 11.497939            7.407432             -0.101205
| 47> *
| 48>
| 49> #Run DFT-D3 single point of the particle with dimer basis set
| 50> $new_job
| 51> %base "2-106_DFT_B"
| 52> ! wB97X-D3 def2-TZVP TIGHTSCF CHELPG PMODEL
| 53>
| 54> %scf
| 55> MaxIter 1000
| 56> end
| 57>
| 58> * xyz 0 1
| 59>   C                    : 8.250343             5.705359             -1.178994
| 60>   O                    : 7.781973             4.399579             -0.935683
| 61>   H                    : 6.990076             4.528335             -0.441139
| 62>   H                    : 7.784217             6.542154             -0.621818
| 63>   H                    : 9.292746             5.743374             -0.911809
| 64>   H                    : 8.314528             5.887828             -2.257205
| 65>   C                      11.324250            8.018713             0.800277
| 66>   O                      11.450950            9.450399             0.539748
| 67>   H                      11.023977            9.656100             -0.268351
| 68>   H                      12.023103            7.703118             1.588103
| 69>   H                      10.280031            7.912908             1.156110
| 70>   H                      11.497939            7.407432             -0.101205
| 71> *
| 72>
| 73>                          ****END OF INPUT****
 Total Charge           Charge          ....    0
 Multiplicity           Mult            ....    1
 Number of Electrons    NEL             ....   36
Dispersion correction           -0.001210495
FINAL SINGLE POINT ENERGY      -231.464757411031
Dispersion correction           -0.000249600
FINAL SINGLE POINT ENERGY      -115.731197384196

CARTESIAN COORDINATES (ANGSTROEM)
---------------------------------
  C      8.250343    5.705359   -1.178994
  O      7.781973    4.399579   -0.935683
  H      6.990076    4.528335   -0.441139
  H      7.784217    6.542154   -0.621818
  H      9.292746    5.743374   -0.911809
  H      8.314528    5.887828   -2.257205
  C     11.324250    8.018713    0.800277
  O     11.450950    9.450399    0.539748
  H     11.023977    9.656100   -0.268351
  H     12.023103    7.703118    1.588103
  H     10.280031    7.912908    1.156110
  H     11.497939    7.407432   -0.101205

 Multiplicity           Mult            ....    1
 Number of Electrons    NEL             ....   18
 Basis Dimension        Dim             ....  172

ORBITAL ENERGIES
----------------

  NO   OCC          E(Eh)            E(eV)
   0   2.0000     -19.223861      -523.1079
   1   2.0000     -10.320653      -280.8392
   2   2.0000      -1.124966       -30.6119
   3   2.0000      -0.796041       -21.6614
   4   2.0000      -0.601339       -16.3633
   5   2.0000      -0.539725       -14.6867
   6   2.0000      -0.523202       -14.2370
   7   2.0000      -0.434270       -11.8171
   8   2.0000      -0.371998       -10.1226
   9   0.0000       0.080816         2.1991
  10   0.0000       0.118211         3.2167
  11   0.0000       0.148257         4.0343
  12   0.0000       0.168668         4.5897
  13   0.0000       0.178567         4.8590

MULLIKEN ATOMIC CHARGES
-----------------------
   0 C :    0.001871
   1 O :   -0.000016
   2 H :   -0.000002
   3 H :   -0.000252
   4 H :   -0.003080
   5 H :   -0.000202
   6 C :   -0.167707
   7 O :   -0.484856
   8 H :    0.308455
   9 H :    0.125606
  10 H :    0.109772
  11 H :    0.110412
Sum of atomic charges:    0.0000000

LOEWDIN ATOMIC CHARGES
----------------------
   0 C :   -0.001018
   1 O :   -0.000008
   2 H :   -0.000000
   3 H :   -0.000311
   4 H :   -0.001712
   5 H :   -0.000015
   6 C :   -0.349238
   7 O :   -0.104735
   8 H :    0.147369
   9 H :    0.109523
  10 H :    0.102085
  11 H :    0.098061

  Mayer bond orders larger than 0.1
B(  6-C ,  7-O ) :   0.9835 B(  6-C ,  9-H ) :   0.9678 B(  6-C , 10-H ) :   0.9836
B(  6-C , 11-H ) :   0.9719 B(  7-O ,  8-H ) :   0.9061

Dispersion correction           -0.000250610
FINAL SINGLE POINT ENERGY      -115.733052788073

DIPOLE MOMENT
-------------
                                X             Y             Z
Electronic contribution:      0.30528       1.69320      -0.21736
Nuclear contribution   :     -0.62331      -2.17641      -0.19116
                        -----------------------------------------
Total Dipole Moment    :     -0.31803      -0.48321      -0.40853
                        -----------------------------------------
Magnitude (a.u.)       :      0.70818
Magnitude (Debye)      :      1.80006

Rotational constants in cm-1:     4.217656     0.790780     0.766745
Rotational constants in MHz : 126442.150341 23706.987850 22986.438630

                             ****ORCA TERMINATED NORMALLY****
TOTAL RUN TIME: 0 days 0 hours 5 minutes 58 seconds 54 msec
