                         Program Version 4.1.2  - RELEASE  -
|  1> #Run DFT-D3 single point of the dimer
|  2> ! wB97X-D3 def2-TZVP TIGHTSCF CHELPG PMODEL PAL8
|  3>
|  4> %base "16-68_DFT_AB"
|  5>
|  6> %scf
|  7> MaxIter 1000
|  8> end
|  9>
| 10> * xyz 0 1
| 11>   C                      1.882657             -5.473259            -4.311445
| 12>   O                      1.200089             -6.616802            -4.829966
| 13>   H                      0.588911             -6.281126            -5.540718
| 14>   H                      2.877696             -5.712606            -3.843402
| 15>   H                      2.170245             -4.752331            -5.142988
| 16>   H                      1.250145             -4.869591            -3.657311
| 17>   C                      6.927127             -4.964074            -3.543295
| 18>   O                      7.098830             -4.110192            -4.645305
| 19>   H                      6.671527             -4.533860            -5.377378
| 20>   H                      7.355301             -5.940963            -3.781098
| 21>   H                      7.411281             -4.637179            -2.614870
| 22>   H                      5.821214             -5.071691            -3.295689
| 23> *
| 24>
| 25> #Run DFT-D3 single point of the molecule with dimer basis set
| 26> $new_job
| 27> %base "16-68_DFT_A"
| 28> ! wB97X-D3 def2-TZVP TIGHTSCF CHELPG PMODEL
| 29>
| 30> %scf
| 31> MaxIter 1000
| 32> end
| 33>
| 34> * xyz 0 1
| 35>   C                      1.882657             -5.473259            -4.311445
| 36>   O                      1.200089             -6.616802            -4.829966
| 37>   H                      0.588911             -6.281126            -5.540718
| 38>   H                      2.877696             -5.712606            -3.843402
| 39>   H                      2.170245             -4.752331            -5.142988
| 40>   H                      1.250145             -4.869591            -3.657311
| 41>   C                    : 6.927127             -4.964074            -3.543295
| 42>   O                    : 7.098830             -4.110192            -4.645305
| 43>   H                    : 6.671527             -4.533860            -5.377378
| 44>   H                    : 7.355301             -5.940963            -3.781098
| 45>   H                    : 7.411281             -4.637179            -2.614870
| 46>   H                    : 5.821214             -5.071691            -3.295689
| 47> *
| 48>
| 49> #Run DFT-D3 single point of the particle with dimer basis set
| 50> $new_job
| 51> %base "16-68_DFT_B"
| 52> ! wB97X-D3 def2-TZVP TIGHTSCF CHELPG PMODEL
| 53>
| 54> %scf
| 55> MaxIter 1000
| 56> end
| 57>
| 58> * xyz 0 1
| 59>   C                    : 1.882657             -5.473259            -4.311445
| 60>   O                    : 1.200089             -6.616802            -4.829966
| 61>   H                    : 0.588911             -6.281126            -5.540718
| 62>   H                    : 2.877696             -5.712606            -3.843402
| 63>   H                    : 2.170245             -4.752331            -5.142988
| 64>   H                    : 1.250145             -4.869591            -3.657311
| 65>   C                      6.927127             -4.964074            -3.543295
| 66>   O                      7.098830             -4.110192            -4.645305
| 67>   H                      6.671527             -4.533860            -5.377378
| 68>   H                      7.355301             -5.940963            -3.781098
| 69>   H                      7.411281             -4.637179            -2.614870
| 70>   H                      5.821214             -5.071691            -3.295689
| 71> *
| 72>
| 73>                          ****END OF INPUT****
 Total Charge           Charge          ....    0
 Multiplicity           Mult            ....    1
 Number of Electrons    NEL             ....   36
Dispersion correction           -0.000848532
FINAL SINGLE POINT ENERGY      -231.465506796059
Dispersion correction           -0.000260539
FINAL SINGLE POINT ENERGY      -115.731145070480

CARTESIAN COORDINATES (ANGSTROEM)
---------------------------------
  C      1.882657   -5.473259   -4.311445
  O      1.200089   -6.616802   -4.829966
  H      0.588911   -6.281126   -5.540718
  H      2.877696   -5.712606   -3.843402
  H      2.170245   -4.752331   -5.142988
  H      1.250145   -4.869591   -3.657311
  C      6.927127   -4.964074   -3.543295
  O      7.098830   -4.110192   -4.645305
  H      6.671527   -4.533860   -5.377378
  H      7.355301   -5.940963   -3.781098
  H      7.411281   -4.637179   -2.614870
  H      5.821214   -5.071691   -3.295689

 Multiplicity           Mult            ....    1
 Number of Electrons    NEL             ....   18
 Basis Dimension        Dim             ....  172

ORBITAL ENERGIES
----------------

  NO   OCC          E(Eh)            E(eV)
   0   2.0000     -19.229733      -523.2676
   1   2.0000     -10.317735      -280.7598
   2   2.0000      -1.143256       -31.1096
   3   2.0000      -0.792339       -21.5606
   4   2.0000      -0.610581       -16.6148
   5   2.0000      -0.542822       -14.7709
   6   2.0000      -0.533005       -14.5038
   7   2.0000      -0.430672       -11.7192
   8   2.0000      -0.372662       -10.1407
   9   0.0000       0.080368         2.1869
  10   0.0000       0.116192         3.1617
  11   0.0000       0.149250         4.0613
  12   0.0000       0.166843         4.5400
  13   0.0000       0.189621         5.1598

MULLIKEN ATOMIC CHARGES
-----------------------
   0 C :   -0.000155
   1 O :    0.000010
   2 H :    0.000001
   3 H :    0.000101
   4 H :    0.000012
   5 H :    0.000013
   6 C :   -0.162270
   7 O :   -0.467999
   8 H :    0.315883
   9 H :    0.100669
  10 H :    0.118815
  11 H :    0.094921
Sum of atomic charges:    0.0000000

LOEWDIN ATOMIC CHARGES
----------------------
   0 C :   -0.000228
   1 O :   -0.000003
   2 H :   -0.000000
   3 H :   -0.000993
   4 H :   -0.000014
   5 H :   -0.000001
   6 C :   -0.397920
   7 O :   -0.066756
   8 H :    0.164147
   9 H :    0.093320
  10 H :    0.107595
  11 H :    0.100854

  Mayer bond orders larger than 0.1
B(  6-C ,  7-O ) :   0.9960 B(  6-C ,  9-H ) :   0.9820 B(  6-C , 10-H ) :   0.9701
B(  6-C , 11-H ) :   0.9771 B(  7-O ,  8-H ) :   0.8999

Dispersion correction           -0.000232081
FINAL SINGLE POINT ENERGY      -115.733928941692

DIPOLE MOMENT
-------------
                                X             Y             Z
Electronic contribution:      0.37486       1.26389      -1.35163
Nuclear contribution   :     -0.68864      -1.86201       1.32247
                        -----------------------------------------
Total Dipole Moment    :     -0.31378      -0.59812      -0.02916
                        -----------------------------------------
Magnitude (a.u.)       :      0.67606
Magnitude (Debye)      :      1.71840

Rotational constants in cm-1:     4.247804     0.833769     0.809886
Rotational constants in MHz : 127345.970571 24995.755628 24279.783849

                             ****ORCA TERMINATED NORMALLY****
TOTAL RUN TIME: 0 days 0 hours 0 minutes 58 seconds 468 msec
