                         Program Version 4.1.2  - RELEASE  -
|  1> #Run DFT-D3 single point of the dimer
|  2> ! wB97X-D3 def2-TZVP TIGHTSCF CHELPG PMODEL PAL8
|  3>
|  4> %base "10-159_DFT_AB"
|  5>
|  6> %scf
|  7> MaxIter 1000
|  8> end
|  9>
| 10> * xyz 0 1
| 11>   C                      -2.030269            -0.860094            4.701773
| 12>   O                      -1.560259            -1.727254            3.739333
| 13>   H                      -2.090679            -1.511563            2.970343
| 14>   H                      -3.112571            -0.850576            4.889874
| 15>   H                      -1.502015            -1.055243            5.669747
| 16>   H                      -1.782010            0.256352             4.478952
| 17>   C                      -5.166520            -2.157854            5.731922
| 18>   O                      -4.352424            -2.878573            4.845293
| 19>   H                      -4.531012            -2.479481            4.001761
| 20>   H                      -6.255409            -2.274834            5.542018
| 21>   H                      -4.978157            -2.425634            6.797351
| 22>   H                      -5.056658            -1.138531            5.729317
| 23> *
| 24>
| 25> #Run DFT-D3 single point of the molecule with dimer basis set
| 26> $new_job
| 27> %base "10-159_DFT_A"
| 28> ! wB97X-D3 def2-TZVP TIGHTSCF CHELPG PMODEL
| 29>
| 30> %scf
| 31> MaxIter 1000
| 32> end
| 33>
| 34> * xyz 0 1
| 35>   C                      -2.030269            -0.860094            4.701773
| 36>   O                      -1.560259            -1.727254            3.739333
| 37>   H                      -2.090679            -1.511563            2.970343
| 38>   H                      -3.112571            -0.850576            4.889874
| 39>   H                      -1.502015            -1.055243            5.669747
| 40>   H                      -1.782010            0.256352             4.478952
| 41>   C                    : -5.166520            -2.157854            5.731922
| 42>   O                    : -4.352424            -2.878573            4.845293
| 43>   H                    : -4.531012            -2.479481            4.001761
| 44>   H                    : -6.255409            -2.274834            5.542018
| 45>   H                    : -4.978157            -2.425634            6.797351
| 46>   H                    : -5.056658            -1.138531            5.729317
| 47> *
| 48>
| 49> #Run DFT-D3 single point of the particle with dimer basis set
| 50> $new_job
| 51> %base "10-159_DFT_B"
| 52> ! wB97X-D3 def2-TZVP TIGHTSCF CHELPG PMODEL
| 53>
| 54> %scf
| 55> MaxIter 1000
| 56> end
| 57>
| 58> * xyz 0 1
| 59>   C                    : -2.030269            -0.860094            4.701773
| 60>   O                    : -1.560259            -1.727254            3.739333
| 61>   H                    : -2.090679            -1.511563            2.970343
| 62>   H                    : -3.112571            -0.850576            4.889874
| 63>   H                    : -1.502015            -1.055243            5.669747
| 64>   H                    : -1.782010            0.256352             4.478952
| 65>   C                      -5.166520            -2.157854            5.731922
| 66>   O                      -4.352424            -2.878573            4.845293
| 67>   H                      -4.531012            -2.479481            4.001761
| 68>   H                      -6.255409            -2.274834            5.542018
| 69>   H                      -4.978157            -2.425634            6.797351
| 70>   H                      -5.056658            -1.138531            5.729317
| 71> *
| 72>
| 73>                          ****END OF INPUT****
 Total Charge           Charge          ....    0
 Multiplicity           Mult            ....    1
 Number of Electrons    NEL             ....   36
Dispersion correction           -0.002127425
FINAL SINGLE POINT ENERGY      -231.459085456599
Dispersion correction           -0.000243085
FINAL SINGLE POINT ENERGY      -115.732168209298

CARTESIAN COORDINATES (ANGSTROEM)
---------------------------------
  C     -2.030269   -0.860094    4.701773
  O     -1.560259   -1.727254    3.739333
  H     -2.090679   -1.511563    2.970343
  H     -3.112571   -0.850576    4.889874
  H     -1.502015   -1.055243    5.669747
  H     -1.782010    0.256352    4.478952
  C     -5.166520   -2.157854    5.731922
  O     -4.352424   -2.878573    4.845293
  H     -4.531012   -2.479481    4.001761
  H     -6.255409   -2.274834    5.542018
  H     -4.978157   -2.425634    6.797351
  H     -5.056658   -1.138531    5.729317

 Multiplicity           Mult            ....    1
 Number of Electrons    NEL             ....   18
 Basis Dimension        Dim             ....  172

ORBITAL ENERGIES
----------------

  NO   OCC          E(Eh)            E(eV)
   0   2.0000     -19.236836      -523.4609
   1   2.0000     -10.308684      -280.5135
   2   2.0000      -1.147588       -31.2274
   3   2.0000      -0.800900       -21.7936
   4   2.0000      -0.622340       -16.9347
   5   2.0000      -0.540523       -14.7084
   6   2.0000      -0.527380       -14.3507
   7   2.0000      -0.442108       -12.0304
   8   2.0000      -0.376789       -10.2529
   9   0.0000       0.086642         2.3577
  10   0.0000       0.135892         3.6978
  11   0.0000       0.143044         3.8924
  12   0.0000       0.181883         4.9493
  13   0.0000       0.192568         5.2400

MULLIKEN ATOMIC CHARGES
-----------------------
   0 C :    0.005580
   1 O :   -0.000393
   2 H :   -0.001300
   3 H :   -0.012641
   4 H :   -0.001528
   5 H :   -0.000324
   6 C :   -0.190831
   7 O :   -0.452375
   8 H :    0.316267
   9 H :    0.104271
  10 H :    0.117315
  11 H :    0.115959
Sum of atomic charges:    0.0000000

LOEWDIN ATOMIC CHARGES
----------------------
   0 C :   -0.018059
   1 O :   -0.002528
   2 H :   -0.001552
   3 H :   -0.014088
   4 H :   -0.000632
   5 H :   -0.000183
   6 C :   -0.394105
   7 O :   -0.034201
   8 H :    0.170496
   9 H :    0.098742
  10 H :    0.115109
  11 H :    0.081003

  Mayer bond orders larger than 0.1
B(  6-C ,  7-O ) :   0.9966 B(  6-C ,  9-H ) :   0.9797 B(  6-C , 10-H ) :   0.9789
B(  6-C , 11-H ) :   0.9704 B(  7-O ,  8-H ) :   0.9005

Dispersion correction           -0.000234008
FINAL SINGLE POINT ENERGY      -115.730651687745

DIPOLE MOMENT
-------------
                                X             Y             Z
Electronic contribution:      1.23184      -1.04895      -1.14080
Nuclear contribution   :     -1.64658       1.60163       0.95214
                        -----------------------------------------
Total Dipole Moment    :     -0.41474       0.55268      -0.18866
                        -----------------------------------------
Magnitude (a.u.)       :      0.71628
Magnitude (Debye)      :      1.82064

Rotational constants in cm-1:     4.502921     0.839982     0.802101
Rotational constants in MHz : 134994.170182 25182.038481 24046.378764

                             ****ORCA TERMINATED NORMALLY****
TOTAL RUN TIME: 0 days 0 hours 1 minutes 7 seconds 688 msec
