                         Program Version 4.1.2  - RELEASE  -
|  1> #Run DFT-D3 single point of the dimer
|  2> ! wB97X-D3 def2-TZVP TIGHTSCF CHELPG PMODEL PAL8
|  3>
|  4> %base "22-158_DFT_AB"
|  5>
|  6> %scf
|  7> MaxIter 1000
|  8> end
|  9>
| 10> * xyz 0 1
| 11>   C                      -8.834874            3.164755             -6.942499
| 12>   O                      -8.510381            4.027767             -5.913860
| 13>   H                      -7.614563            3.811434             -5.733662
| 14>   H                      -9.347348            2.242143             -6.621761
| 15>   H                      -9.521020            3.604805             -7.657690
| 16>   H                      -7.931253            2.856065             -7.511476
| 17>   C                      -5.629599            2.838499             -4.257140
| 18>   O                      -6.149862            4.151956             -4.511084
| 19>   H                      -6.244268            4.592923             -3.678162
| 20>   H                      -4.527856            2.807374             -4.087594
| 21>   H                      -5.985739            2.538664             -3.276288
| 22>   H                      -5.935220            2.070424             -4.993791
| 23> *
| 24>
| 25> #Run DFT-D3 single point of the molecule with dimer basis set
| 26> $new_job
| 27> %base "22-158_DFT_A"
| 28> ! wB97X-D3 def2-TZVP TIGHTSCF CHELPG PMODEL
| 29>
| 30> %scf
| 31> MaxIter 1000
| 32> end
| 33>
| 34> * xyz 0 1
| 35>   C                      -8.834874            3.164755             -6.942499
| 36>   O                      -8.510381            4.027767             -5.913860
| 37>   H                      -7.614563            3.811434             -5.733662
| 38>   H                      -9.347348            2.242143             -6.621761
| 39>   H                      -9.521020            3.604805             -7.657690
| 40>   H                      -7.931253            2.856065             -7.511476
| 41>   C                    : -5.629599            2.838499             -4.257140
| 42>   O                    : -6.149862            4.151956             -4.511084
| 43>   H                    : -6.244268            4.592923             -3.678162
| 44>   H                    : -4.527856            2.807374             -4.087594
| 45>   H                    : -5.985739            2.538664             -3.276288
| 46>   H                    : -5.935220            2.070424             -4.993791
| 47> *
| 48>
| 49> #Run DFT-D3 single point of the particle with dimer basis set
| 50> $new_job
| 51> %base "22-158_DFT_B"
| 52> ! wB97X-D3 def2-TZVP TIGHTSCF CHELPG PMODEL
| 53>
| 54> %scf
| 55> MaxIter 1000
| 56> end
| 57>
| 58> * xyz 0 1
| 59>   C                    : -8.834874            3.164755             -6.942499
| 60>   O                    : -8.510381            4.027767             -5.913860
| 61>   H                    : -7.614563            3.811434             -5.733662
| 62>   H                    : -9.347348            2.242143             -6.621761
| 63>   H                    : -9.521020            3.604805             -7.657690
| 64>   H                    : -7.931253            2.856065             -7.511476
| 65>   C                      -5.629599            2.838499             -4.257140
| 66>   O                      -6.149862            4.151956             -4.511084
| 67>   H                      -6.244268            4.592923             -3.678162
| 68>   H                      -4.527856            2.807374             -4.087594
| 69>   H                      -5.985739            2.538664             -3.276288
| 70>   H                      -5.935220            2.070424             -4.993791
| 71> *
| 72>
| 73>                          ****END OF INPUT****
 Total Charge           Charge          ....    0
 Multiplicity           Mult            ....    1
 Number of Electrons    NEL             ....   36
Dispersion correction           -0.001781662
FINAL SINGLE POINT ENERGY      -231.470409235036
Dispersion correction           -0.000229602
FINAL SINGLE POINT ENERGY      -115.733564194465

CARTESIAN COORDINATES (ANGSTROEM)
---------------------------------
  C     -8.834874    3.164755   -6.942499
  O     -8.510381    4.027767   -5.913860
  H     -7.614563    3.811434   -5.733662
  H     -9.347348    2.242143   -6.621761
  H     -9.521020    3.604805   -7.657690
  H     -7.931253    2.856065   -7.511476
  C     -5.629599    2.838499   -4.257140
  O     -6.149862    4.151956   -4.511084
  H     -6.244268    4.592923   -3.678162
  H     -4.527856    2.807374   -4.087594
  H     -5.985739    2.538664   -3.276288
  H     -5.935220    2.070424   -4.993791

 Multiplicity           Mult            ....    1
 Number of Electrons    NEL             ....   18
 Basis Dimension        Dim             ....  172

ORBITAL ENERGIES
----------------

  NO   OCC          E(Eh)            E(eV)
   0   2.0000     -19.231059      -523.3037
   1   2.0000     -10.319417      -280.8056
   2   2.0000      -1.134033       -30.8586
   3   2.0000      -0.796509       -21.6741
   4   2.0000      -0.613185       -16.6856
   5   2.0000      -0.534061       -14.5325
   6   2.0000      -0.528148       -14.3716
   7   2.0000      -0.436041       -11.8653
   8   2.0000      -0.373878       -10.1737
   9   0.0000       0.096419         2.6237
  10   0.0000       0.120400         3.2762
  11   0.0000       0.149297         4.0626
  12   0.0000       0.188740         5.1359
  13   0.0000       0.198316         5.3964

MULLIKEN ATOMIC CHARGES
-----------------------
   0 C :   -0.001472
   1 O :   -0.001024
   2 H :   -0.003624
   3 H :   -0.000016
   4 H :   -0.000072
   5 H :   -0.000059
   6 C :   -0.174998
   7 O :   -0.470914
   8 H :    0.314300
   9 H :    0.104837
  10 H :    0.100841
  11 H :    0.132199
Sum of atomic charges:    0.0000000

LOEWDIN ATOMIC CHARGES
----------------------
   0 C :   -0.001509
   1 O :   -0.011251
   2 H :   -0.039808
   3 H :   -0.000033
   4 H :   -0.000027
   5 H :   -0.000135
   6 C :   -0.369374
   7 O :   -0.044580
   8 H :    0.160570
   9 H :    0.099835
  10 H :    0.094090
  11 H :    0.112222

  Mayer bond orders larger than 0.1
B(  6-C ,  7-O ) :   0.9873 B(  6-C ,  9-H ) :   0.9652 B(  6-C , 10-H ) :   0.9888
B(  6-C , 11-H ) :   0.9731 B(  7-O ,  8-H ) :   0.8997

Dispersion correction           -0.000253103
FINAL SINGLE POINT ENERGY      -115.732010206234

DIPOLE MOMENT
-------------
                                X             Y             Z
Electronic contribution:     -0.68816       1.65086      -0.61976
Nuclear contribution   :      0.82782      -1.91421       1.28765
                        -----------------------------------------
Total Dipole Moment    :      0.13967      -0.26334       0.66789
                        -----------------------------------------
Magnitude (a.u.)       :      0.73139
Magnitude (Debye)      :      1.85905

Rotational constants in cm-1:     4.330843     0.807911     0.775137
Rotational constants in MHz : 129835.421795 24220.557943 23238.010963

                             ****ORCA TERMINATED NORMALLY****
TOTAL RUN TIME: 0 days 0 hours 1 minutes 9 seconds 147 msec
