                         Program Version 4.1.2  - RELEASE  -
|  1> #Run DFT-D3 single point of the dimer
|  2> ! wB97X-D3 def2-TZVP TIGHTSCF CHELPG PMODEL PAL8
|  3>
|  4> %base "14-82_DFT_AB"
|  5>
|  6> %scf
|  7> MaxIter 1000
|  8> end
|  9>
| 10> * xyz 0 1
| 11>   C                      -4.858137            8.794378             -2.162719
| 12>   O                      -5.057893            9.023676             -0.762485
| 13>   H                      -4.277961            8.800261             -0.211867
| 14>   H                      -5.459045            7.976104             -2.597022
| 15>   H                      -5.076426            9.725379             -2.688449
| 16>   H                      -3.806476            8.543483             -2.442663
| 17>   C                      -5.012732            4.651737             -4.015420
| 18>   O                      -5.313746            6.068341             -3.824211
| 19>   H                      -5.792739            6.296180             -4.612807
| 20>   H                      -4.509524            4.441952             -4.946995
| 21>   H                      -4.294382            4.316787             -3.213413
| 22>   H                      -5.939629            4.108769             -3.953471
| 23> *
| 24>
| 25> #Run DFT-D3 single point of the molecule with dimer basis set
| 26> $new_job
| 27> %base "14-82_DFT_A"
| 28> ! wB97X-D3 def2-TZVP TIGHTSCF CHELPG PMODEL
| 29>
| 30> %scf
| 31> MaxIter 1000
| 32> end
| 33>
| 34> * xyz 0 1
| 35>   C                      -4.858137            8.794378             -2.162719
| 36>   O                      -5.057893            9.023676             -0.762485
| 37>   H                      -4.277961            8.800261             -0.211867
| 38>   H                      -5.459045            7.976104             -2.597022
| 39>   H                      -5.076426            9.725379             -2.688449
| 40>   H                      -3.806476            8.543483             -2.442663
| 41>   C                    : -5.012732            4.651737             -4.015420
| 42>   O                    : -5.313746            6.068341             -3.824211
| 43>   H                    : -5.792739            6.296180             -4.612807
| 44>   H                    : -4.509524            4.441952             -4.946995
| 45>   H                    : -4.294382            4.316787             -3.213413
| 46>   H                    : -5.939629            4.108769             -3.953471
| 47> *
| 48>
| 49> #Run DFT-D3 single point of the particle with dimer basis set
| 50> $new_job
| 51> %base "14-82_DFT_B"
| 52> ! wB97X-D3 def2-TZVP TIGHTSCF CHELPG PMODEL
| 53>
| 54> %scf
| 55> MaxIter 1000
| 56> end
| 57>
| 58> * xyz 0 1
| 59>   C                    : -4.858137            8.794378             -2.162719
| 60>   O                    : -5.057893            9.023676             -0.762485
| 61>   H                    : -4.277961            8.800261             -0.211867
| 62>   H                    : -5.459045            7.976104             -2.597022
| 63>   H                    : -5.076426            9.725379             -2.688449
| 64>   H                    : -3.806476            8.543483             -2.442663
| 65>   C                      -5.012732            4.651737             -4.015420
| 66>   O                      -5.313746            6.068341             -3.824211
| 67>   H                      -5.792739            6.296180             -4.612807
| 68>   H                      -4.509524            4.441952             -4.946995
| 69>   H                      -4.294382            4.316787             -3.213413
| 70>   H                      -5.939629            4.108769             -3.953471
| 71> *
| 72>
| 73>                          ****END OF INPUT****
 Total Charge           Charge          ....    0
 Multiplicity           Mult            ....    1
 Number of Electrons    NEL             ....   36
Dispersion correction           -0.001433813
FINAL SINGLE POINT ENERGY      -231.467408135852
Dispersion correction           -0.000282954
FINAL SINGLE POINT ENERGY      -115.732745315246

CARTESIAN COORDINATES (ANGSTROEM)
---------------------------------
  C     -4.858137    8.794378   -2.162719
  O     -5.057893    9.023676   -0.762485
  H     -4.277961    8.800261   -0.211867
  H     -5.459045    7.976104   -2.597022
  H     -5.076426    9.725379   -2.688449
  H     -3.806476    8.543483   -2.442663
  C     -5.012732    4.651737   -4.015420
  O     -5.313746    6.068341   -3.824211
  H     -5.792739    6.296180   -4.612807
  H     -4.509524    4.441952   -4.946995
  H     -4.294382    4.316787   -3.213413
  H     -5.939629    4.108769   -3.953471

 Multiplicity           Mult            ....    1
 Number of Electrons    NEL             ....   18
 Basis Dimension        Dim             ....  172

ORBITAL ENERGIES
----------------

  NO   OCC          E(Eh)            E(eV)
   0   2.0000     -19.230354      -523.2845
   1   2.0000     -10.317255      -280.7468
   2   2.0000      -1.127624       -30.6842
   3   2.0000      -0.796001       -21.6603
   4   2.0000      -0.602129       -16.3848
   5   2.0000      -0.547090       -14.8871
   6   2.0000      -0.514988       -14.0135
   7   2.0000      -0.440935       -11.9985
   8   2.0000      -0.377507       -10.2725
   9   0.0000       0.099820         2.7162
  10   0.0000       0.122900         3.3443
  11   0.0000       0.152093         4.1387
  12   0.0000       0.183105         4.9825
  13   0.0000       0.192827         5.2471

MULLIKEN ATOMIC CHARGES
-----------------------
   0 C :    0.005339
   1 O :   -0.000111
   2 H :   -0.000036
   3 H :   -0.012459
   4 H :   -0.000717
   5 H :   -0.003007
   6 C :   -0.182714
   7 O :   -0.462280
   8 H :    0.308957
   9 H :    0.111438
  10 H :    0.122893
  11 H :    0.112697
Sum of atomic charges:   -0.0000000

LOEWDIN ATOMIC CHARGES
----------------------
   0 C :   -0.010868
   1 O :   -0.000046
   2 H :   -0.000008
   3 H :   -0.018699
   4 H :   -0.000097
   5 H :   -0.001584
   6 C :   -0.352398
   7 O :   -0.080816
   8 H :    0.160652
   9 H :    0.092913
  10 H :    0.116982
  11 H :    0.093970

  Mayer bond orders larger than 0.1
B(  6-C ,  7-O ) :   0.9873 B(  6-C ,  9-H ) :   0.9690 B(  6-C , 10-H ) :   0.9749
B(  6-C , 11-H ) :   0.9768 B(  7-O ,  8-H ) :   0.9043

Dispersion correction           -0.000240838
FINAL SINGLE POINT ENERGY      -115.733996352530

DIPOLE MOMENT
-------------
                                X             Y             Z
Electronic contribution:     -0.33045       1.72274       0.31590
Nuclear contribution   :      0.16399      -2.18757      -0.90194
                        -----------------------------------------
Total Dipole Moment    :     -0.16647      -0.46484      -0.58604
                        -----------------------------------------
Magnitude (a.u.)       :      0.76631
Magnitude (Debye)      :      1.94780

Rotational constants in cm-1:     4.235314     0.795776     0.766998
Rotational constants in MHz : 126971.514534 23856.767306 22994.009781

                             ****ORCA TERMINATED NORMALLY****
TOTAL RUN TIME: 0 days 0 hours 0 minutes 57 seconds 71 msec
