                         Program Version 4.1.2  - RELEASE  -
|  1> #Run DFT-D3 single point of the dimer
|  2> ! wB97X-D3 def2-TZVP TIGHTSCF  CHELPG PAL8
|  3>
|  4> %base "155_charges"
|  5>
|  6> %scf
|  7> MaxIter 1000
|  8> end
|  9> %output
| 10>   Print[ P_Mayer ] 1
| 11>   Print[ P_NatPop ] 1
| 12>   Print[ P_Hirshfeld ] 1
| 13>   Print[ P_Mulliken ] 1
| 14>   Print [ P_Loewdin ] 1
| 15> end
| 16>
| 17> * xyz 0 1
| 18>   C                      3.120161             1.252736             -2.835892
| 19>   O                      4.052023             0.991522             -1.740066
| 20>   H                      3.891793             1.582260             -1.027765
| 21>   H                      3.470497             2.020385             -3.573038
| 22>   H                      2.874990             0.282014             -3.352896
| 23>   H                      2.123720             1.623176             -2.408365
| 24> *
| 25>
| 26>                          ****END OF INPUT****

CARTESIAN COORDINATES (ANGSTROEM)
---------------------------------
  C      3.120161    1.252736   -2.835892
  O      4.052023    0.991522   -1.740066
  H      3.891793    1.582260   -1.027765
  H      3.470497    2.020385   -3.573038
  H      2.874990    0.282014   -3.352896
  H      2.123720    1.623176   -2.408365

 Total Charge           Charge          ....    0
 Multiplicity           Mult            ....    1
 Number of Electrons    NEL             ....   18
 Basis Dimension        Dim             ....   86

ORBITAL ENERGIES
----------------

  NO   OCC          E(Eh)            E(eV)
   0   2.0000     -19.228696      -523.2394
   1   2.0000     -10.330545      -281.1084
   2   2.0000      -1.125706       -30.6320
   3   2.0000      -0.791791       -21.5457
   4   2.0000      -0.603536       -16.4231
   5   2.0000      -0.533595       -14.5199
   6   2.0000      -0.518357       -14.1052
   7   2.0000      -0.429795       -11.6953
   8   2.0000      -0.377242       -10.2653
   9   0.0000       0.115025         3.1300
  10   0.0000       0.147556         4.0152
  11   0.0000       0.190899         5.1946
  12   0.0000       0.202705         5.5159
  13   0.0000       0.222851         6.0641

MULLIKEN ATOMIC CHARGES
-----------------------
   0 C :   -0.177325
   1 O :   -0.478620
   2 H :    0.312814
   3 H :    0.114165
   4 H :    0.126285
   5 H :    0.102681
Sum of atomic charges:   -0.0000000

LOEWDIN ATOMIC CHARGES
----------------------
   0 C :   -0.363977
   1 O :   -0.102966
   2 H :    0.149914
   3 H :    0.100350
   4 H :    0.113093
   5 H :    0.103586

  Mayer bond orders larger than 0.1
B(  0-C ,  1-O ) :   0.9971 B(  0-C ,  3-H ) :   0.9630 B(  0-C ,  4-H ) :   0.9713
B(  0-C ,  5-H ) :   0.9803 B(  1-O ,  2-H ) :   0.9036

Dispersion correction           -0.000287488
FINAL SINGLE POINT ENERGY      -115.731145570856

DIPOLE MOMENT
-------------
                                X             Y             Z
Electronic contribution:      1.32764      -0.41066       1.25414
Nuclear contribution   :     -1.83727       0.89480      -1.24072
                        -----------------------------------------
Total Dipole Moment    :     -0.50963       0.48414       0.01342
                        -----------------------------------------
Magnitude (a.u.)       :      0.70306
Magnitude (Debye)      :      1.78703

Rotational constants in cm-1:     4.134429     0.774670     0.752717
Rotational constants in MHz : 123947.075309 23224.020475 22565.893172

                             ****ORCA TERMINATED NORMALLY****
TOTAL RUN TIME: 0 days 0 hours 0 minutes 41 seconds 101 msec
