                         Program Version 4.1.2  - RELEASE  -
|  1> #Run DFT-D3 single point of the dimer
|  2> ! wB97X-D3 def2-TZVP TIGHTSCF CHELPG PMODEL PAL8
|  3>
|  4> %base "18-2_DFT_AB"
|  5>
|  6> %scf
|  7> MaxIter 1000
|  8> end
|  9>
| 10> * xyz 0 1
| 11>   C                      -10.687114           6.522365             10.912415
| 12>   O                      -10.958699           6.462439             9.495698
| 13>   H                      -11.915597           6.359913             9.432105
| 14>   H                      -9.694428            7.019205             11.201935
| 15>   H                      -11.404788           6.987728             11.574306
| 16>   H                      -10.535777           5.492168             11.351259
| 17>   C                      -6.849327            5.900946             10.276763
| 18>   O                      -5.890227            5.057906             9.653911
| 19>   H                      -5.917973            4.155875             10.080686
| 20>   H                      -6.510289            6.982825             10.201999
| 21>   H                      -7.892018            5.787008             9.886202
| 22>   H                      -6.863436            5.714866             11.335053
| 23> *
| 24>
| 25> #Run DFT-D3 single point of the molecule with dimer basis set
| 26> $new_job
| 27> %base "18-2_DFT_A"
| 28> ! wB97X-D3 def2-TZVP TIGHTSCF CHELPG PMODEL
| 29>
| 30> %scf
| 31> MaxIter 1000
| 32> end
| 33>
| 34> * xyz 0 1
| 35>   C                      -10.687114           6.522365             10.912415
| 36>   O                      -10.958699           6.462439             9.495698
| 37>   H                      -11.915597           6.359913             9.432105
| 38>   H                      -9.694428            7.019205             11.201935
| 39>   H                      -11.404788           6.987728             11.574306
| 40>   H                      -10.535777           5.492168             11.351259
| 41>   C                    : -6.849327            5.900946             10.276763
| 42>   O                    : -5.890227            5.057906             9.653911
| 43>   H                    : -5.917973            4.155875             10.080686
| 44>   H                    : -6.510289            6.982825             10.201999
| 45>   H                    : -7.892018            5.787008             9.886202
| 46>   H                    : -6.863436            5.714866             11.335053
| 47> *
| 48>
| 49> #Run DFT-D3 single point of the particle with dimer basis set
| 50> $new_job
| 51> %base "18-2_DFT_B"
| 52> ! wB97X-D3 def2-TZVP TIGHTSCF CHELPG PMODEL
| 53>
| 54> %scf
| 55> MaxIter 1000
| 56> end
| 57>
| 58> * xyz 0 1
| 59>   C                    : -10.687114           6.522365             10.912415
| 60>   O                    : -10.958699           6.462439             9.495698
| 61>   H                    : -11.915597           6.359913             9.432105
| 62>   H                    : -9.694428            7.019205             11.201935
| 63>   H                    : -11.404788           6.987728             11.574306
| 64>   H                    : -10.535777           5.492168             11.351259
| 65>   C                      -6.849327            5.900946             10.276763
| 66>   O                      -5.890227            5.057906             9.653911
| 67>   H                      -5.917973            4.155875             10.080686
| 68>   H                      -6.510289            6.982825             10.201999
| 69>   H                      -7.892018            5.787008             9.886202
| 70>   H                      -6.863436            5.714866             11.335053
| 71> *
| 72>
| 73>                          ****END OF INPUT****
 Total Charge           Charge          ....    0
 Multiplicity           Mult            ....    1
 Number of Electrons    NEL             ....   36
Dispersion correction           -0.001561251
FINAL SINGLE POINT ENERGY      -231.461729475803
Dispersion correction           -0.000290151
FINAL SINGLE POINT ENERGY      -115.728381805688

CARTESIAN COORDINATES (ANGSTROEM)
---------------------------------
  C    -10.687114    6.522365   10.912415
  O    -10.958699    6.462439    9.495698
  H    -11.915597    6.359913    9.432105
  H     -9.694428    7.019205   11.201935
  H    -11.404788    6.987728   11.574306
  H    -10.535777    5.492168   11.351259
  C     -6.849327    5.900946   10.276763
  O     -5.890227    5.057906    9.653911
  H     -5.917973    4.155875   10.080686
  H     -6.510289    6.982825   10.201999
  H     -7.892018    5.787008    9.886202
  H     -6.863436    5.714866   11.335053

 Multiplicity           Mult            ....    1
 Number of Electrons    NEL             ....   18
 Basis Dimension        Dim             ....  172

ORBITAL ENERGIES
----------------

  NO   OCC          E(Eh)            E(eV)
   0   2.0000     -19.233720      -523.3761
   1   2.0000     -10.318258      -280.7741
   2   2.0000      -1.126800       -30.6618
   3   2.0000      -0.789301       -21.4780
   4   2.0000      -0.606615       -16.5068
   5   2.0000      -0.540063       -14.6959
   6   2.0000      -0.520588       -14.1659
   7   2.0000      -0.427491       -11.6326
   8   2.0000      -0.374334       -10.1861
   9   0.0000       0.081340         2.2134
  10   0.0000       0.110985         3.0201
  11   0.0000       0.144480         3.9315
  12   0.0000       0.166880         4.5410
  13   0.0000       0.191228         5.2036

MULLIKEN ATOMIC CHARGES
-----------------------
   0 C :   -0.002911
   1 O :    0.000429
   2 H :    0.000006
   3 H :    0.000736
   4 H :   -0.000172
   5 H :    0.000062
   6 C :   -0.173729
   7 O :   -0.479889
   8 H :    0.318854
   9 H :    0.118829
  10 H :    0.106556
  11 H :    0.111228
Sum of atomic charges:   -0.0000000

LOEWDIN ATOMIC CHARGES
----------------------
   0 C :   -0.005664
   1 O :   -0.000488
   2 H :   -0.000036
   3 H :   -0.002356
   4 H :   -0.000073
   5 H :   -0.000550
   6 C :   -0.391509
   7 O :   -0.099615
   8 H :    0.190192
   9 H :    0.116605
  10 H :    0.102021
  11 H :    0.091472

  Mayer bond orders larger than 0.1
B(  6-C ,  7-O ) :   1.0011 B(  6-C ,  9-H ) :   0.9677 B(  6-C , 10-H ) :   0.9686
B(  6-C , 11-H ) :   0.9821 B(  7-O ,  8-H ) :   0.8918

Dispersion correction           -0.000259930
FINAL SINGLE POINT ENERGY      -115.732514256474

DIPOLE MOMENT
-------------
                                X             Y             Z
Electronic contribution:      1.23955      -1.02009      -0.93754
Nuclear contribution   :     -1.61496       0.78393       1.48778
                        -----------------------------------------
Total Dipole Moment    :     -0.37542      -0.23616       0.55024
                        -----------------------------------------
Magnitude (a.u.)       :      0.70674
Magnitude (Debye)      :      1.79639

Rotational constants in cm-1:     4.174951     0.814073     0.787971
Rotational constants in MHz : 125161.869482 24405.283477 23622.781105

                             ****ORCA TERMINATED NORMALLY****
TOTAL RUN TIME: 0 days 0 hours 1 minutes 3 seconds 602 msec
