                         Program Version 4.1.2  - RELEASE  -
|  1> #Run DFT-D3 single point of the dimer
|  2> ! wB97X-D3 def2-TZVP TIGHTSCF CHELPG PMODEL PAL8
|  3>
|  4> %base "14-23_DFT_AB"
|  5>
|  6> %scf
|  7> MaxIter 1000
|  8> end
|  9>
| 10> * xyz 0 1
| 11>   C                      8.629797             8.547878             8.806274
| 12>   O                      8.727650             7.489372             9.777322
| 13>   H                      8.906374             7.894992             10.650402
| 14>   H                      9.165527             9.433401             9.047837
| 15>   H                      8.882979             8.196418             7.782462
| 16>   H                      7.598564             8.894795             8.815134
| 17>   C                      6.831958             6.294291             6.415026
| 18>   O                      7.505123             6.261990             5.193583
| 19>   H                      8.148449             6.962906             5.154953
| 20>   H                      7.482049             6.064620             7.250410
| 21>   H                      6.397184             7.314095             6.694785
| 22>   H                      5.952161             5.499594             6.404224
| 23> *
| 24>
| 25> #Run DFT-D3 single point of the molecule with dimer basis set
| 26> $new_job
| 27> %base "14-23_DFT_A"
| 28> ! wB97X-D3 def2-TZVP TIGHTSCF CHELPG PMODEL
| 29>
| 30> %scf
| 31> MaxIter 1000
| 32> end
| 33>
| 34> * xyz 0 1
| 35>   C                      8.629797             8.547878             8.806274
| 36>   O                      8.727650             7.489372             9.777322
| 37>   H                      8.906374             7.894992             10.650402
| 38>   H                      9.165527             9.433401             9.047837
| 39>   H                      8.882979             8.196418             7.782462
| 40>   H                      7.598564             8.894795             8.815134
| 41>   C                    : 6.831958             6.294291             6.415026
| 42>   O                    : 7.505123             6.261990             5.193583
| 43>   H                    : 8.148449             6.962906             5.154953
| 44>   H                    : 7.482049             6.064620             7.250410
| 45>   H                    : 6.397184             7.314095             6.694785
| 46>   H                    : 5.952161             5.499594             6.404224
| 47> *
| 48>
| 49> #Run DFT-D3 single point of the particle with dimer basis set
| 50> $new_job
| 51> %base "14-23_DFT_B"
| 52> ! wB97X-D3 def2-TZVP TIGHTSCF CHELPG PMODEL
| 53>
| 54> %scf
| 55> MaxIter 1000
| 56> end
| 57>
| 58> * xyz 0 1
| 59>   C                    : 8.629797             8.547878             8.806274
| 60>   O                    : 8.727650             7.489372             9.777322
| 61>   H                    : 8.906374             7.894992             10.650402
| 62>   H                    : 9.165527             9.433401             9.047837
| 63>   H                    : 8.882979             8.196418             7.782462
| 64>   H                    : 7.598564             8.894795             8.815134
| 65>   C                      6.831958             6.294291             6.415026
| 66>   O                      7.505123             6.261990             5.193583
| 67>   H                      8.148449             6.962906             5.154953
| 68>   H                      7.482049             6.064620             7.250410
| 69>   H                      6.397184             7.314095             6.694785
| 70>   H                      5.952161             5.499594             6.404224
| 71> *
| 72>
| 73>                          ****END OF INPUT****
 Total Charge           Charge          ....    0
 Multiplicity           Mult            ....    1
 Number of Electrons    NEL             ....   36
Dispersion correction           -0.001833215
FINAL SINGLE POINT ENERGY      -231.463893575247
Dispersion correction           -0.000250532
FINAL SINGLE POINT ENERGY      -115.732376449630

CARTESIAN COORDINATES (ANGSTROEM)
---------------------------------
  C      8.629797    8.547878    8.806274
  O      8.727650    7.489372    9.777322
  H      8.906374    7.894992   10.650402
  H      9.165527    9.433401    9.047837
  H      8.882979    8.196418    7.782462
  H      7.598564    8.894795    8.815134
  C      6.831958    6.294291    6.415026
  O      7.505123    6.261990    5.193583
  H      8.148449    6.962906    5.154953
  H      7.482049    6.064620    7.250410
  H      6.397184    7.314095    6.694785
  H      5.952161    5.499594    6.404224

 Multiplicity           Mult            ....    1
 Number of Electrons    NEL             ....   18
 Basis Dimension        Dim             ....  172

ORBITAL ENERGIES
----------------

  NO   OCC          E(Eh)            E(eV)
   0   2.0000     -19.232925      -523.3545
   1   2.0000     -10.325867      -280.9811
   2   2.0000      -1.144866       -31.1534
   3   2.0000      -0.788384       -21.4530
   4   2.0000      -0.619519       -16.8580
   5   2.0000      -0.535678       -14.5765
   6   2.0000      -0.522341       -14.2136
   7   2.0000      -0.429826       -11.6962
   8   2.0000      -0.372673       -10.1409
   9   0.0000       0.076369         2.0781
  10   0.0000       0.117857         3.2071
  11   0.0000       0.149116         4.0576
  12   0.0000       0.164450         4.4749
  13   0.0000       0.181911         4.9500

MULLIKEN ATOMIC CHARGES
-----------------------
   0 C :   -0.007216
   1 O :    0.000856
   2 H :    0.000017
   3 H :   -0.000115
   4 H :    0.002659
   5 H :    0.000273
   6 C :   -0.162768
   7 O :   -0.464297
   8 H :    0.315013
   9 H :    0.105586
  10 H :    0.093096
  11 H :    0.116896
Sum of atomic charges:    0.0000000

LOEWDIN ATOMIC CHARGES
----------------------
   0 C :   -0.006092
   1 O :   -0.000672
   2 H :   -0.000032
   3 H :   -0.000051
   4 H :   -0.002298
   5 H :   -0.001202
   6 C :   -0.411840
   7 O :   -0.057088
   8 H :    0.165013
   9 H :    0.089968
  10 H :    0.100035
  11 H :    0.124260

  Mayer bond orders larger than 0.1
B(  6-C ,  7-O ) :   1.0023 B(  6-C ,  9-H ) :   0.9729 B(  6-C , 10-H ) :   0.9724
B(  6-C , 11-H ) :   0.9672 B(  7-O ,  8-H ) :   0.8979

Dispersion correction           -0.000259673
FINAL SINGLE POINT ENERGY      -115.730483196976

DIPOLE MOMENT
-------------
                                X             Y             Z
Electronic contribution:      0.90662      -0.14504      -1.71635
Nuclear contribution   :     -0.72195       0.60458       2.15202
                        -----------------------------------------
Total Dipole Moment    :      0.18467       0.45954       0.43567
                        -----------------------------------------
Magnitude (a.u.)       :      0.65961
Magnitude (Debye)      :      1.67660

Rotational constants in cm-1:     4.124782     0.838634     0.797373
Rotational constants in MHz : 123657.848627 25141.607666 23904.649776

                             ****ORCA TERMINATED NORMALLY****
TOTAL RUN TIME: 0 days 0 hours 1 minutes 7 seconds 526 msec
