                         Program Version 4.1.2  - RELEASE  -
|  1> #Run DFT-D3 single point of the dimer
|  2> ! wB97X-D3 def2-TZVP TIGHTSCF CHELPG PMODEL PAL8
|  3>
|  4> %base "10-82_DFT_AB"
|  5>
|  6> %scf
|  7> MaxIter 1000
|  8> end
|  9>
| 10> * xyz 0 1
| 11>   C                      -8.524424            -8.551857            -7.483804
| 12>   O                      -9.010956            -9.552221            -6.626090
| 13>   H                      -9.770529            -9.256232            -6.136644
| 14>   H                      -7.877334            -8.876806            -8.253957
| 15>   H                      -9.389126            -8.178034            -7.915574
| 16>   H                      -7.935626            -7.708410            -7.024587
| 17>   C                      -8.729305            -8.214980            -3.029853
| 18>   O                      -8.095846            -7.329674            -2.136110
| 19>   H                      -8.783612            -7.055352            -1.455014
| 20>   H                      -9.086881            -9.162493            -2.596128
| 21>   H                      -9.593081            -7.776695            -3.531411
| 22>   H                      -7.946672            -8.537519            -3.705466
| 23> *
| 24>
| 25> #Run DFT-D3 single point of the molecule with dimer basis set
| 26> $new_job
| 27> %base "10-82_DFT_A"
| 28> ! wB97X-D3 def2-TZVP TIGHTSCF CHELPG PMODEL
| 29>
| 30> %scf
| 31> MaxIter 1000
| 32> end
| 33>
| 34> * xyz 0 1
| 35>   C                      -8.524424            -8.551857            -7.483804
| 36>   O                      -9.010956            -9.552221            -6.626090
| 37>   H                      -9.770529            -9.256232            -6.136644
| 38>   H                      -7.877334            -8.876806            -8.253957
| 39>   H                      -9.389126            -8.178034            -7.915574
| 40>   H                      -7.935626            -7.708410            -7.024587
| 41>   C                    : -8.729305            -8.214980            -3.029853
| 42>   O                    : -8.095846            -7.329674            -2.136110
| 43>   H                    : -8.783612            -7.055352            -1.455014
| 44>   H                    : -9.086881            -9.162493            -2.596128
| 45>   H                    : -9.593081            -7.776695            -3.531411
| 46>   H                    : -7.946672            -8.537519            -3.705466
| 47> *
| 48>
| 49> #Run DFT-D3 single point of the particle with dimer basis set
| 50> $new_job
| 51> %base "10-82_DFT_B"
| 52> ! wB97X-D3 def2-TZVP TIGHTSCF CHELPG PMODEL
| 53>
| 54> %scf
| 55> MaxIter 1000
| 56> end
| 57>
| 58> * xyz 0 1
| 59>   C                    : -8.524424            -8.551857            -7.483804
| 60>   O                    : -9.010956            -9.552221            -6.626090
| 61>   H                    : -9.770529            -9.256232            -6.136644
| 62>   H                    : -7.877334            -8.876806            -8.253957
| 63>   H                    : -9.389126            -8.178034            -7.915574
| 64>   H                    : -7.935626            -7.708410            -7.024587
| 65>   C                      -8.729305            -8.214980            -3.029853
| 66>   O                      -8.095846            -7.329674            -2.136110
| 67>   H                      -8.783612            -7.055352            -1.455014
| 68>   H                      -9.086881            -9.162493            -2.596128
| 69>   H                      -9.593081            -7.776695            -3.531411
| 70>   H                      -7.946672            -8.537519            -3.705466
| 71> *
| 72>
| 73>                          ****END OF INPUT****
 Total Charge           Charge          ....    0
 Multiplicity           Mult            ....    1
 Number of Electrons    NEL             ....   36
Dispersion correction           -0.001413201
FINAL SINGLE POINT ENERGY      -231.461868913731
Dispersion correction           -0.000241462
FINAL SINGLE POINT ENERGY      -115.727251277274

CARTESIAN COORDINATES (ANGSTROEM)
---------------------------------
  C     -8.524424   -8.551857   -7.483804
  O     -9.010956   -9.552221   -6.626090
  H     -9.770529   -9.256232   -6.136644
  H     -7.877334   -8.876806   -8.253957
  H     -9.389126   -8.178034   -7.915574
  H     -7.935626   -7.708410   -7.024587
  C     -8.729305   -8.214980   -3.029853
  O     -8.095846   -7.329674   -2.136110
  H     -8.783612   -7.055352   -1.455014
  H     -9.086881   -9.162493   -2.596128
  H     -9.593081   -7.776695   -3.531411
  H     -7.946672   -8.537519   -3.705466

 Multiplicity           Mult            ....    1
 Number of Electrons    NEL             ....   18
 Basis Dimension        Dim             ....  172

ORBITAL ENERGIES
----------------

  NO   OCC          E(Eh)            E(eV)
   0   2.0000     -19.235955      -523.4370
   1   2.0000     -10.310656      -280.5672
   2   2.0000      -1.130964       -30.7751
   3   2.0000      -0.792010       -21.5517
   4   2.0000      -0.610534       -16.6135
   5   2.0000      -0.541606       -14.7378
   6   2.0000      -0.519259       -14.1297
   7   2.0000      -0.436688       -11.8829
   8   2.0000      -0.372662       -10.1406
   9   0.0000       0.085126         2.3164
  10   0.0000       0.111137         3.0242
  11   0.0000       0.143815         3.9134
  12   0.0000       0.173870         4.7312
  13   0.0000       0.190415         5.1815

MULLIKEN ATOMIC CHARGES
-----------------------
   0 C :   -0.000459
   1 O :    0.000026
   2 H :   -0.000121
   3 H :   -0.000002
   4 H :    0.000010
   5 H :    0.000011
   6 C :   -0.161720
   7 O :   -0.468321
   8 H :    0.313417
   9 H :    0.094058
  10 H :    0.099941
  11 H :    0.123160
Sum of atomic charges:    0.0000000

LOEWDIN ATOMIC CHARGES
----------------------
   0 C :   -0.000735
   1 O :   -0.000432
   2 H :   -0.001191
   3 H :   -0.000006
   4 H :   -0.000010
   5 H :   -0.000232
   6 C :   -0.398696
   7 O :   -0.088697
   8 H :    0.194225
   9 H :    0.093158
  10 H :    0.093148
  11 H :    0.109468

  Mayer bond orders larger than 0.1
B(  6-C ,  7-O ) :   1.0093 B(  6-C ,  9-H ) :   0.9689 B(  6-C , 10-H ) :   0.9743
B(  6-C , 11-H ) :   0.9754 B(  7-O ,  8-H ) :   0.8951

Dispersion correction           -0.000247865
FINAL SINGLE POINT ENERGY      -115.733650591646

DIPOLE MOMENT
-------------
                                X             Y             Z
Electronic contribution:      0.93086       1.20301       1.06309
Nuclear contribution   :     -1.58638      -1.38358      -0.98660
                        -----------------------------------------
Total Dipole Moment    :     -0.65552      -0.18057       0.07649
                        -----------------------------------------
Magnitude (a.u.)       :      0.68422
Magnitude (Debye)      :      1.73916

Rotational constants in cm-1:     4.251617     0.836514     0.799893
Rotational constants in MHz : 127460.262807 25078.047631 23980.195230

                             ****ORCA TERMINATED NORMALLY****
TOTAL RUN TIME: 0 days 0 hours 1 minutes 3 seconds 485 msec
