                         Program Version 4.1.2  - RELEASE  -
|  1> #Run DFT-D3 single point of the dimer
|  2> ! wB97X-D3 def2-TZVP TIGHTSCF CHELPG PMODEL PAL8
|  3>
|  4> %base "11-192_DFT_AB"
|  5>
|  6> %scf
|  7> MaxIter 1000
|  8> end
|  9>
| 10> * xyz 0 1
| 11>   C                      4.561635             -10.009597           4.847881
| 12>   O                      4.842641             -8.640920            5.290700
| 13>   H                      4.936777             -8.693870            6.258719
| 14>   H                      4.210696             -9.993841            3.748569
| 15>   H                      5.367545             -10.701267           4.982666
| 16>   H                      3.735903             -10.384981           5.413469
| 17>   C                      2.252523             -6.673013            5.579693
| 18>   O                      2.745078             -6.831900            4.302959
| 19>   H                      3.490369             -7.395111            4.429140
| 20>   H                      2.997324             -6.049581            6.236636
| 21>   H                      1.278632             -6.080374            5.543830
| 22>   H                      2.074676             -7.619239            6.189607
| 23> *
| 24>
| 25> #Run DFT-D3 single point of the molecule with dimer basis set
| 26> $new_job
| 27> %base "11-192_DFT_A"
| 28> ! wB97X-D3 def2-TZVP TIGHTSCF CHELPG PMODEL
| 29>
| 30> %scf
| 31> MaxIter 1000
| 32> end
| 33>
| 34> * xyz 0 1
| 35>   C                      4.561635             -10.009597           4.847881
| 36>   O                      4.842641             -8.640920            5.290700
| 37>   H                      4.936777             -8.693870            6.258719
| 38>   H                      4.210696             -9.993841            3.748569
| 39>   H                      5.367545             -10.701267           4.982666
| 40>   H                      3.735903             -10.384981           5.413469
| 41>   C                    : 2.252523             -6.673013            5.579693
| 42>   O                    : 2.745078             -6.831900            4.302959
| 43>   H                    : 3.490369             -7.395111            4.429140
| 44>   H                    : 2.997324             -6.049581            6.236636
| 45>   H                    : 1.278632             -6.080374            5.543830
| 46>   H                    : 2.074676             -7.619239            6.189607
| 47> *
| 48>
| 49> #Run DFT-D3 single point of the particle with dimer basis set
| 50> $new_job
| 51> %base "11-192_DFT_B"
| 52> ! wB97X-D3 def2-TZVP TIGHTSCF CHELPG PMODEL
| 53>
| 54> %scf
| 55> MaxIter 1000
| 56> end
| 57>
| 58> * xyz 0 1
| 59>   C                    : 4.561635             -10.009597           4.847881
| 60>   O                    : 4.842641             -8.640920            5.290700
| 61>   H                    : 4.936777             -8.693870            6.258719
| 62>   H                    : 4.210696             -9.993841            3.748569
| 63>   H                    : 5.367545             -10.701267           4.982666
| 64>   H                    : 3.735903             -10.384981           5.413469
| 65>   C                      2.252523             -6.673013            5.579693
| 66>   O                      2.745078             -6.831900            4.302959
| 67>   H                      3.490369             -7.395111            4.429140
| 68>   H                      2.997324             -6.049581            6.236636
| 69>   H                      1.278632             -6.080374            5.543830
| 70>   H                      2.074676             -7.619239            6.189607
| 71> *
| 72>
| 73>                          ****END OF INPUT****
 Total Charge           Charge          ....    0
 Multiplicity           Mult            ....    1
 Number of Electrons    NEL             ....   36
Dispersion correction           -0.002139467
FINAL SINGLE POINT ENERGY      -231.470530018153
Dispersion correction           -0.000256710
FINAL SINGLE POINT ENERGY      -115.731727431724

CARTESIAN COORDINATES (ANGSTROEM)
---------------------------------
  C      4.561635  -10.009597    4.847881
  O      4.842641   -8.640920    5.290700
  H      4.936777   -8.693870    6.258719
  H      4.210696   -9.993841    3.748569
  H      5.367545  -10.701267    4.982666
  H      3.735903  -10.384981    5.413469
  C      2.252523   -6.673013    5.579693
  O      2.745078   -6.831900    4.302959
  H      3.490369   -7.395111    4.429140
  H      2.997324   -6.049581    6.236636
  H      1.278632   -6.080374    5.543830
  H      2.074676   -7.619239    6.189607

 Multiplicity           Mult            ....    1
 Number of Electrons    NEL             ....   18
 Basis Dimension        Dim             ....  172

ORBITAL ENERGIES
----------------

  NO   OCC          E(Eh)            E(eV)
   0   2.0000     -19.237607      -523.4819
   1   2.0000     -10.329177      -281.0712
   2   2.0000      -1.159863       -31.5615
   3   2.0000      -0.782828       -21.3018
   4   2.0000      -0.621384       -16.9087
   5   2.0000      -0.534504       -14.5446
   6   2.0000      -0.530499       -14.4356
   7   2.0000      -0.438115       -11.9217
   8   2.0000      -0.371543       -10.1102
   9   0.0000       0.067419         1.8346
  10   0.0000       0.131654         3.5825
  11   0.0000       0.149173         4.0592
  12   0.0000       0.165423         4.5014
  13   0.0000       0.182366         4.9624

MULLIKEN ATOMIC CHARGES
-----------------------
   0 C :   -0.004070
   1 O :   -0.001939
   2 H :   -0.000011
   3 H :   -0.000031
   4 H :   -0.000144
   5 H :    0.000140
   6 C :   -0.190150
   7 O :   -0.435513
   8 H :    0.313105
   9 H :    0.092667
  10 H :    0.123093
  11 H :    0.102854
Sum of atomic charges:   -0.0000000

LOEWDIN ATOMIC CHARGES
----------------------
   0 C :   -0.004783
   1 O :   -0.014469
   2 H :   -0.001094
   3 H :   -0.000819
   4 H :   -0.000112
   5 H :   -0.000284
   6 C :   -0.437257
   7 O :   -0.025833
   8 H :    0.169758
   9 H :    0.100332
  10 H :    0.115954
  11 H :    0.098607

  Mayer bond orders larger than 0.1
B(  6-C ,  7-O ) :   1.0041 B(  6-C ,  9-H ) :   0.9773 B(  6-C , 10-H ) :   0.9715
B(  6-C , 11-H ) :   0.9628 B(  7-O ,  8-H ) :   0.9117

Dispersion correction           -0.000245037
FINAL SINGLE POINT ENERGY      -115.729676491844

DIPOLE MOMENT
-------------
                                X             Y             Z
Electronic contribution:      0.51666      -0.22940      -1.95283
Nuclear contribution   :     -0.23823      -0.07415       2.44879
                        -----------------------------------------
Total Dipole Moment    :      0.27843      -0.30355       0.49597
                        -----------------------------------------
Magnitude (a.u.)       :      0.64471
Magnitude (Debye)      :      1.63872

Rotational constants in cm-1:     4.013890     0.856593     0.821125
Rotational constants in MHz : 120333.388577 25680.005050 24616.721491

                             ****ORCA TERMINATED NORMALLY****
TOTAL RUN TIME: 0 days 0 hours 1 minutes 15 seconds 905 msec
