                         Program Version 4.1.2  - RELEASE  -
|  1> #Run DFT-D3 single point of the dimer
|  2> ! wB97X-D3 def2-TZVP TIGHTSCF CHELPG PMODEL PAL8
|  3>
|  4> %base "22-15_DFT_AB"
|  5>
|  6> %scf
|  7> MaxIter 1000
|  8> end
|  9>
| 10> * xyz 0 1
| 11>   C                      -0.754698            -4.429643            3.939378
| 12>   O                      -1.196798            -4.428082            5.254249
| 13>   H                      -0.395699            -4.752719            5.779728
| 14>   H                      -0.383757            -5.340087            3.635676
| 15>   H                      -1.507620            -4.118996            3.190048
| 16>   H                      0.031200             -3.762485            3.769299
| 17>   C                      -3.031453            -8.230321            9.453541
| 18>   O                      -2.800068            -6.911817            8.896784
| 19>   H                      -2.274891            -6.502026            9.650505
| 20>   H                      -3.671579            -8.226209            10.428590
| 21>   H                      -3.573674            -8.815508            8.708564
| 22>   H                      -2.044238            -8.683523            9.744940
| 23> *
| 24>
| 25> #Run DFT-D3 single point of the molecule with dimer basis set
| 26> $new_job
| 27> %base "22-15_DFT_A"
| 28> ! wB97X-D3 def2-TZVP TIGHTSCF CHELPG PMODEL
| 29>
| 30> %scf
| 31> MaxIter 1000
| 32> end
| 33>
| 34> * xyz 0 1
| 35>   C                      -0.754698            -4.429643            3.939378
| 36>   O                      -1.196798            -4.428082            5.254249
| 37>   H                      -0.395699            -4.752719            5.779728
| 38>   H                      -0.383757            -5.340087            3.635676
| 39>   H                      -1.507620            -4.118996            3.190048
| 40>   H                      0.031200             -3.762485            3.769299
| 41>   C                    : -3.031453            -8.230321            9.453541
| 42>   O                    : -2.800068            -6.911817            8.896784
| 43>   H                    : -2.274891            -6.502026            9.650505
| 44>   H                    : -3.671579            -8.226209            10.428590
| 45>   H                    : -3.573674            -8.815508            8.708564
| 46>   H                    : -2.044238            -8.683523            9.744940
| 47> *
| 48>
| 49> #Run DFT-D3 single point of the particle with dimer basis set
| 50> $new_job
| 51> %base "22-15_DFT_B"
| 52> ! wB97X-D3 def2-TZVP TIGHTSCF CHELPG PMODEL
| 53>
| 54> %scf
| 55> MaxIter 1000
| 56> end
| 57>
| 58> * xyz 0 1
| 59>   C                    : -0.754698            -4.429643            3.939378
| 60>   O                    : -1.196798            -4.428082            5.254249
| 61>   H                    : -0.395699            -4.752719            5.779728
| 62>   H                    : -0.383757            -5.340087            3.635676
| 63>   H                    : -1.507620            -4.118996            3.190048
| 64>   H                    : 0.031200             -3.762485            3.769299
| 65>   C                      -3.031453            -8.230321            9.453541
| 66>   O                      -2.800068            -6.911817            8.896784
| 67>   H                      -2.274891            -6.502026            9.650505
| 68>   H                      -3.671579            -8.226209            10.428590
| 69>   H                      -3.573674            -8.815508            8.708564
| 70>   H                      -2.044238            -8.683523            9.744940
| 71> *
| 72>
| 73>                          ****END OF INPUT****
 Total Charge           Charge          ....    0
 Multiplicity           Mult            ....    1
 Number of Electrons    NEL             ....   36
Dispersion correction           -0.000584267
FINAL SINGLE POINT ENERGY      -231.454647106462
Dispersion correction           -0.000214268
FINAL SINGLE POINT ENERGY      -115.726274334219

CARTESIAN COORDINATES (ANGSTROEM)
---------------------------------
  C     -0.754698   -4.429643    3.939378
  O     -1.196798   -4.428082    5.254249
  H     -0.395699   -4.752719    5.779728
  H     -0.383757   -5.340087    3.635676
  H     -1.507620   -4.118996    3.190048
  H      0.031200   -3.762485    3.769299
  C     -3.031453   -8.230321    9.453541
  O     -2.800068   -6.911817    8.896784
  H     -2.274891   -6.502026    9.650505
  H     -3.671579   -8.226209   10.428590
  H     -3.573674   -8.815508    8.708564
  H     -2.044238   -8.683523    9.744940

 Multiplicity           Mult            ....    1
 Number of Electrons    NEL             ....   18
 Basis Dimension        Dim             ....  172

ORBITAL ENERGIES
----------------

  NO   OCC          E(Eh)            E(eV)
   0   2.0000     -19.238573      -523.5082
   1   2.0000     -10.327414      -281.0232
   2   2.0000      -1.123926       -30.5836
   3   2.0000      -0.782713       -21.2987
   4   2.0000      -0.599600       -16.3159
   5   2.0000      -0.530384       -14.4325
   6   2.0000      -0.516837       -14.0638
   7   2.0000      -0.446999       -12.1634
   8   2.0000      -0.372381       -10.1330
   9   0.0000       0.092100         2.5062
  10   0.0000       0.106405         2.8954
  11   0.0000       0.148431         4.0390
  12   0.0000       0.174074         4.7368
  13   0.0000       0.193005         5.2519

MULLIKEN ATOMIC CHARGES
-----------------------
   0 C :    0.000021
   1 O :   -0.000019
   2 H :   -0.000246
   3 H :   -0.000005
   4 H :    0.000002
   5 H :   -0.000001
   6 C :   -0.187192
   7 O :   -0.461582
   8 H :    0.315046
   9 H :    0.099246
  10 H :    0.128159
  11 H :    0.106571
Sum of atomic charges:   -0.0000000

LOEWDIN ATOMIC CHARGES
----------------------
   0 C :   -0.000003
   1 O :   -0.000032
   2 H :   -0.000139
   3 H :   -0.000000
   4 H :   -0.000000
   5 H :   -0.000000
   6 C :   -0.383464
   7 O :   -0.120573
   8 H :    0.195595
   9 H :    0.103337
  10 H :    0.106056
  11 H :    0.099224

  Mayer bond orders larger than 0.1
B(  6-C ,  7-O ) :   0.9997 B(  6-C ,  9-H ) :   0.9649 B(  6-C , 10-H ) :   0.9730
B(  6-C , 11-H ) :   0.9750 B(  7-O ,  8-H ) :   0.8989

Dispersion correction           -0.000251639
FINAL SINGLE POINT ENERGY      -115.729058364060

DIPOLE MOMENT
-------------
                                X             Y             Z
Electronic contribution:      0.19612       1.62029      -0.98504
Nuclear contribution   :      0.02833      -1.89196       1.62798
                        -----------------------------------------
Total Dipole Moment    :      0.22445      -0.27167       0.64295
                        -----------------------------------------
Magnitude (a.u.)       :      0.73319
Magnitude (Debye)      :      1.86361

Rotational constants in cm-1:     3.921424     0.803282     0.767732
Rotational constants in MHz : 117561.345172 24081.799721 23016.038097

                             ****ORCA TERMINATED NORMALLY****
TOTAL RUN TIME: 0 days 0 hours 0 minutes 52 seconds 529 msec
