                         Program Version 4.1.2  - RELEASE  -
|  1> #Run DFT-D3 single point of the dimer
|  2> ! wB97X-D3 def2-TZVP TIGHTSCF CHELPG PMODEL PAL8
|  3>
|  4> %base "10-112_DFT_AB"
|  5>
|  6> %scf
|  7> MaxIter 1000
|  8> end
|  9>
| 10> * xyz 0 1
| 11>   C                      -7.366661            -2.963687            2.761216
| 12>   O                      -7.991004            -1.877299            2.184801
| 13>   H                      -8.630948            -1.490112            2.772157
| 14>   H                      -8.031490            -3.775481            2.924278
| 15>   H                      -6.620792            -3.428823            2.136483
| 16>   H                      -6.995310            -2.677469            3.725112
| 17>   C                      -8.948701            -0.439402            5.987862
| 18>   O                      -9.115364            -0.692188            4.565162
| 19>   H                      -9.844506            -1.290664            4.538672
| 20>   H                      -9.350161            0.522866             6.290320
| 21>   H                      -9.377751            -1.276286            6.651318
| 22>   H                      -7.851956            -0.349181            6.148207
| 23> *
| 24>
| 25> #Run DFT-D3 single point of the molecule with dimer basis set
| 26> $new_job
| 27> %base "10-112_DFT_A"
| 28> ! wB97X-D3 def2-TZVP TIGHTSCF CHELPG PMODEL
| 29>
| 30> %scf
| 31> MaxIter 1000
| 32> end
| 33>
| 34> * xyz 0 1
| 35>   C                      -7.366661            -2.963687            2.761216
| 36>   O                      -7.991004            -1.877299            2.184801
| 37>   H                      -8.630948            -1.490112            2.772157
| 38>   H                      -8.031490            -3.775481            2.924278
| 39>   H                      -6.620792            -3.428823            2.136483
| 40>   H                      -6.995310            -2.677469            3.725112
| 41>   C                    : -8.948701            -0.439402            5.987862
| 42>   O                    : -9.115364            -0.692188            4.565162
| 43>   H                    : -9.844506            -1.290664            4.538672
| 44>   H                    : -9.350161            0.522866             6.290320
| 45>   H                    : -9.377751            -1.276286            6.651318
| 46>   H                    : -7.851956            -0.349181            6.148207
| 47> *
| 48>
| 49> #Run DFT-D3 single point of the particle with dimer basis set
| 50> $new_job
| 51> %base "10-112_DFT_B"
| 52> ! wB97X-D3 def2-TZVP TIGHTSCF CHELPG PMODEL
| 53>
| 54> %scf
| 55> MaxIter 1000
| 56> end
| 57>
| 58> * xyz 0 1
| 59>   C                    : -7.366661            -2.963687            2.761216
| 60>   O                    : -7.991004            -1.877299            2.184801
| 61>   H                    : -8.630948            -1.490112            2.772157
| 62>   H                    : -8.031490            -3.775481            2.924278
| 63>   H                    : -6.620792            -3.428823            2.136483
| 64>   H                    : -6.995310            -2.677469            3.725112
| 65>   C                      -8.948701            -0.439402            5.987862
| 66>   O                      -9.115364            -0.692188            4.565162
| 67>   H                      -9.844506            -1.290664            4.538672
| 68>   H                      -9.350161            0.522866             6.290320
| 69>   H                      -9.377751            -1.276286            6.651318
| 70>   H                      -7.851956            -0.349181            6.148207
| 71> *
| 72>
| 73>                          ****END OF INPUT****
 Total Charge           Charge          ....    0
 Multiplicity           Mult            ....    1
 Number of Electrons    NEL             ....   36
Dispersion correction           -0.001806127
FINAL SINGLE POINT ENERGY      -231.467764110817
Dispersion correction           -0.000218071
FINAL SINGLE POINT ENERGY      -115.732152445773

CARTESIAN COORDINATES (ANGSTROEM)
---------------------------------
  C     -7.366661   -2.963687    2.761216
  O     -7.991004   -1.877299    2.184801
  H     -8.630948   -1.490112    2.772157
  H     -8.031490   -3.775481    2.924278
  H     -6.620792   -3.428823    2.136483
  H     -6.995310   -2.677469    3.725112
  C     -8.948701   -0.439402    5.987862
  O     -9.115364   -0.692188    4.565162
  H     -9.844506   -1.290664    4.538672
  H     -9.350161    0.522866    6.290320
  H     -9.377751   -1.276286    6.651318
  H     -7.851956   -0.349181    6.148207

 Multiplicity           Mult            ....    1
 Number of Electrons    NEL             ....   18
 Basis Dimension        Dim             ....  172

ORBITAL ENERGIES
----------------

  NO   OCC          E(Eh)            E(eV)
   0   2.0000     -19.232493      -523.3427
   1   2.0000     -10.324209      -280.9360
   2   2.0000      -1.132322       -30.8120
   3   2.0000      -0.792420       -21.5629
   4   2.0000      -0.603993       -16.4355
   5   2.0000      -0.536055       -14.5868
   6   2.0000      -0.519151       -14.1268
   7   2.0000      -0.444029       -12.0826
   8   2.0000      -0.376214       -10.2373
   9   0.0000       0.093866         2.5542
  10   0.0000       0.126922         3.4537
  11   0.0000       0.149364         4.0644
  12   0.0000       0.180221         4.9041
  13   0.0000       0.198838         5.4107

MULLIKEN ATOMIC CHARGES
-----------------------
   0 C :   -0.004483
   1 O :    0.004843
   2 H :   -0.011839
   3 H :   -0.000384
   4 H :   -0.000669
   5 H :   -0.001895
   6 C :   -0.192554
   7 O :   -0.448624
   8 H :    0.312184
   9 H :    0.111479
  10 H :    0.109642
  11 H :    0.122300
Sum of atomic charges:   -0.0000000

LOEWDIN ATOMIC CHARGES
----------------------
   0 C :   -0.008014
   1 O :   -0.005003
   2 H :   -0.030012
   3 H :   -0.000384
   4 H :   -0.000160
   5 H :   -0.002750
   6 C :   -0.365988
   7 O :   -0.060344
   8 H :    0.160102
   9 H :    0.094506
  10 H :    0.108473
  11 H :    0.109573

  Mayer bond orders larger than 0.1
B(  6-C ,  7-O ) :   1.0010 B(  6-C ,  9-H ) :   0.9685 B(  6-C , 10-H ) :   0.9743
B(  6-C , 11-H ) :   0.9812 B(  7-O ,  8-H ) :   0.9045

Dispersion correction           -0.000265857
FINAL SINGLE POINT ENERGY      -115.732038345277

DIPOLE MOMENT
-------------
                                X             Y             Z
Electronic contribution:     -0.18625      -0.21054      -1.82514
Nuclear contribution   :     -0.20498      -0.04923       2.39059
                        -----------------------------------------
Total Dipole Moment    :     -0.39123      -0.25977       0.56546
                        -----------------------------------------
Magnitude (a.u.)       :      0.73504
Magnitude (Debye)      :      1.86832

Rotational constants in cm-1:     4.126556     0.800113     0.763570
Rotational constants in MHz : 123711.024512 23986.795134 22891.250307

                             ****ORCA TERMINATED NORMALLY****
TOTAL RUN TIME: 0 days 0 hours 1 minutes 2 seconds 715 msec
