                         Program Version 4.1.2  - RELEASE  -
|  1> #Run DFT-D3 single point of the dimer
|  2> ! wB97X-D3 def2-TZVP TIGHTSCF CHELPG PMODEL PAL8
|  3>
|  4> %base "6-116_DFT_AB"
|  5>
|  6> %scf
|  7> MaxIter 1000
|  8> end
|  9>
| 10> * xyz 0 1
| 11>   C                      6.494887             -9.319664            0.599304
| 12>   O                      6.530466             -9.264981            2.010500
| 13>   H                      6.957669             -10.100235           2.248466
| 14>   H                      5.656828             -9.905448            0.193507
| 15>   H                      6.395575             -8.342034            0.169458
| 16>   H                      7.472226             -9.620610            0.188917
| 17>   C                      10.469407            -10.775529           1.702895
| 18>   O                      10.321539            -9.515999            2.202532
| 19>   H                      9.645278             -9.527604            2.904574
| 20>   H                      10.440997            -11.518192           2.514949
| 21>   H                      9.659381             -11.009913           0.909153
| 22>   H                      11.467087            -10.917614           1.164855
| 23> *
| 24>
| 25> #Run DFT-D3 single point of the molecule with dimer basis set
| 26> $new_job
| 27> %base "6-116_DFT_A"
| 28> ! wB97X-D3 def2-TZVP TIGHTSCF CHELPG PMODEL
| 29>
| 30> %scf
| 31> MaxIter 1000
| 32> end
| 33>
| 34> * xyz 0 1
| 35>   C                      6.494887             -9.319664            0.599304
| 36>   O                      6.530466             -9.264981            2.010500
| 37>   H                      6.957669             -10.100235           2.248466
| 38>   H                      5.656828             -9.905448            0.193507
| 39>   H                      6.395575             -8.342034            0.169458
| 40>   H                      7.472226             -9.620610            0.188917
| 41>   C                    : 10.469407            -10.775529           1.702895
| 42>   O                    : 10.321539            -9.515999            2.202532
| 43>   H                    : 9.645278             -9.527604            2.904574
| 44>   H                    : 10.440997            -11.518192           2.514949
| 45>   H                    : 9.659381             -11.009913           0.909153
| 46>   H                    : 11.467087            -10.917614           1.164855
| 47> *
| 48>
| 49> #Run DFT-D3 single point of the particle with dimer basis set
| 50> $new_job
| 51> %base "6-116_DFT_B"
| 52> ! wB97X-D3 def2-TZVP TIGHTSCF CHELPG PMODEL
| 53>
| 54> %scf
| 55> MaxIter 1000
| 56> end
| 57>
| 58> * xyz 0 1
| 59>   C                    : 6.494887             -9.319664            0.599304
| 60>   O                    : 6.530466             -9.264981            2.010500
| 61>   H                    : 6.957669             -10.100235           2.248466
| 62>   H                    : 5.656828             -9.905448            0.193507
| 63>   H                    : 6.395575             -8.342034            0.169458
| 64>   H                    : 7.472226             -9.620610            0.188917
| 65>   C                      10.469407            -10.775529           1.702895
| 66>   O                      10.321539            -9.515999            2.202532
| 67>   H                      9.645278             -9.527604            2.904574
| 68>   H                      10.440997            -11.518192           2.514949
| 69>   H                      9.659381             -11.009913           0.909153
| 70>   H                      11.467087            -10.917614           1.164855
| 71> *
| 72>
| 73>                          ****END OF INPUT****
 Total Charge           Charge          ....    0
 Multiplicity           Mult            ....    1
 Number of Electrons    NEL             ....   36
Dispersion correction           -0.001746843
FINAL SINGLE POINT ENERGY      -231.466466434575
Dispersion correction           -0.000238372
FINAL SINGLE POINT ENERGY      -115.734046425547

CARTESIAN COORDINATES (ANGSTROEM)
---------------------------------
  C      6.494887   -9.319664    0.599304
  O      6.530466   -9.264981    2.010500
  H      6.957669  -10.100235    2.248466
  H      5.656828   -9.905448    0.193507
  H      6.395575   -8.342034    0.169458
  H      7.472226   -9.620610    0.188917
  C     10.469407  -10.775529    1.702895
  O     10.321539   -9.515999    2.202532
  H      9.645278   -9.527604    2.904574
  H     10.440997  -11.518192    2.514949
  H      9.659381  -11.009913    0.909153
  H     11.467087  -10.917614    1.164855

 Multiplicity           Mult            ....    1
 Number of Electrons    NEL             ....   18
 Basis Dimension        Dim             ....  172

ORBITAL ENERGIES
----------------

  NO   OCC          E(Eh)            E(eV)
   0   2.0000     -19.233964      -523.3828
   1   2.0000     -10.321755      -280.8692
   2   2.0000      -1.152226       -31.3537
   3   2.0000      -0.784391       -21.3444
   4   2.0000      -0.618444       -16.8287
   5   2.0000      -0.542842       -14.7715
   6   2.0000      -0.532875       -14.5003
   7   2.0000      -0.424413       -11.5489
   8   2.0000      -0.369485       -10.0542
   9   0.0000       0.079633         2.1669
  10   0.0000       0.122484         3.3329
  11   0.0000       0.148270         4.0346
  12   0.0000       0.174209         4.7405
  13   0.0000       0.186366         5.0713

MULLIKEN ATOMIC CHARGES
-----------------------
   0 C :   -0.002016
   1 O :   -0.000295
   2 H :   -0.000869
   3 H :    0.000104
   4 H :    0.000150
   5 H :    0.002027
   6 C :   -0.160859
   7 O :   -0.460058
   8 H :    0.322456
   9 H :    0.098655
  10 H :    0.084802
  11 H :    0.115904
Sum of atomic charges:    0.0000000

LOEWDIN ATOMIC CHARGES
----------------------
   0 C :   -0.001685
   1 O :   -0.000637
   2 H :   -0.001308
   3 H :   -0.000026
   4 H :   -0.000009
   5 H :   -0.001491
   6 C :   -0.440392
   7 O :   -0.044044
   8 H :    0.183641
   9 H :    0.092335
  10 H :    0.099221
  11 H :    0.114394

  Mayer bond orders larger than 0.1
B(  6-C ,  7-O ) :   1.0133 B(  6-C ,  9-H ) :   0.9848 B(  6-C , 10-H ) :   0.9712
B(  6-C , 11-H ) :   0.9697 B(  7-O ,  8-H ) :   0.8907

Dispersion correction           -0.000240487
FINAL SINGLE POINT ENERGY      -115.731378796246

DIPOLE MOMENT
-------------
                                X             Y             Z
Electronic contribution:     -0.07948       1.79803       0.67853
Nuclear contribution   :     -0.26900      -2.24518      -0.37354
                        -----------------------------------------
Total Dipole Moment    :     -0.34848      -0.44715       0.30498
                        -----------------------------------------
Magnitude (a.u.)       :      0.64374
Magnitude (Debye)      :      1.63625

Rotational constants in cm-1:     4.081665     0.866210     0.838578
Rotational constants in MHz : 122365.227072 25968.320745 25139.925237

                             ****ORCA TERMINATED NORMALLY****
TOTAL RUN TIME: 0 days 0 hours 1 minutes 2 seconds 692 msec
