                         Program Version 4.1.2  - RELEASE  -
|  1> #Run DFT-D3 single point of the dimer
|  2> ! wB97X-D3 def2-TZVP TIGHTSCF CHELPG PMODEL PAL8
|  3>
|  4> %base "19-220_DFT_AB"
|  5>
|  6> %scf
|  7> MaxIter 1000
|  8> end
|  9>
| 10> * xyz 0 1
| 11>   C                      -7.813093            3.815094             -3.595980
| 12>   O                      -8.973304            4.465805             -3.233209
| 13>   H                      -9.505764            3.723539             -2.902711
| 14>   H                      -7.259391            3.521370             -2.695800
| 15>   H                      -8.012084            2.912106             -4.172752
| 16>   H                      -7.196577            4.471481             -4.184724
| 17>   C                      -9.656386            8.004466             -4.055375
| 18>   O                      -9.827183            6.696000             -4.516681
| 19>   H                      -9.087512            6.304048             -4.075677
| 20>   H                      -9.612539            7.925407             -2.937611
| 21>   H                      -8.707890            8.407722             -4.410754
| 22>   H                      -10.451495           8.603904             -4.404213
| 23> *
| 24>
| 25> #Run DFT-D3 single point of the molecule with dimer basis set
| 26> $new_job
| 27> %base "19-220_DFT_A"
| 28> ! wB97X-D3 def2-TZVP TIGHTSCF CHELPG PMODEL
| 29>
| 30> %scf
| 31> MaxIter 1000
| 32> end
| 33>
| 34> * xyz 0 1
| 35>   C                      -7.813093            3.815094             -3.595980
| 36>   O                      -8.973304            4.465805             -3.233209
| 37>   H                      -9.505764            3.723539             -2.902711
| 38>   H                      -7.259391            3.521370             -2.695800
| 39>   H                      -8.012084            2.912106             -4.172752
| 40>   H                      -7.196577            4.471481             -4.184724
| 41>   C                    : -9.656386            8.004466             -4.055375
| 42>   O                    : -9.827183            6.696000             -4.516681
| 43>   H                    : -9.087512            6.304048             -4.075677
| 44>   H                    : -9.612539            7.925407             -2.937611
| 45>   H                    : -8.707890            8.407722             -4.410754
| 46>   H                    : -10.451495           8.603904             -4.404213
| 47> *
| 48>
| 49> #Run DFT-D3 single point of the particle with dimer basis set
| 50> $new_job
| 51> %base "19-220_DFT_B"
| 52> ! wB97X-D3 def2-TZVP TIGHTSCF CHELPG PMODEL
| 53>
| 54> %scf
| 55> MaxIter 1000
| 56> end
| 57>
| 58> * xyz 0 1
| 59>   C                    : -7.813093            3.815094             -3.595980
| 60>   O                    : -8.973304            4.465805             -3.233209
| 61>   H                    : -9.505764            3.723539             -2.902711
| 62>   H                    : -7.259391            3.521370             -2.695800
| 63>   H                    : -8.012084            2.912106             -4.172752
| 64>   H                    : -7.196577            4.471481             -4.184724
| 65>   C                      -9.656386            8.004466             -4.055375
| 66>   O                      -9.827183            6.696000             -4.516681
| 67>   H                      -9.087512            6.304048             -4.075677
| 68>   H                      -9.612539            7.925407             -2.937611
| 69>   H                      -8.707890            8.407722             -4.410754
| 70>   H                      -10.451495           8.603904             -4.404213
| 71> *
| 72>
| 73>                          ****END OF INPUT****
 Total Charge           Charge          ....    0
 Multiplicity           Mult            ....    1
 Number of Electrons    NEL             ....   36
Dispersion correction           -0.001530135
FINAL SINGLE POINT ENERGY      -231.466220079606
Dispersion correction           -0.000199809
FINAL SINGLE POINT ENERGY      -115.734172613839

CARTESIAN COORDINATES (ANGSTROEM)
---------------------------------
  C     -7.813093    3.815094   -3.595980
  O     -8.973304    4.465805   -3.233209
  H     -9.505764    3.723539   -2.902711
  H     -7.259391    3.521370   -2.695800
  H     -8.012084    2.912106   -4.172752
  H     -7.196577    4.471481   -4.184724
  C     -9.656386    8.004466   -4.055375
  O     -9.827183    6.696000   -4.516681
  H     -9.087512    6.304048   -4.075677
  H     -9.612539    7.925407   -2.937611
  H     -8.707890    8.407722   -4.410754
  H    -10.451495    8.603904   -4.404213

 Multiplicity           Mult            ....    1
 Number of Electrons    NEL             ....   18
 Basis Dimension        Dim             ....  172

ORBITAL ENERGIES
----------------

  NO   OCC          E(Eh)            E(eV)
   0   2.0000     -19.228690      -523.2393
   1   2.0000     -10.311312      -280.5851
   2   2.0000      -1.151543       -31.3351
   3   2.0000      -0.791213       -21.5300
   4   2.0000      -0.615254       -16.7419
   5   2.0000      -0.547497       -14.8981
   6   2.0000      -0.531356       -14.4589
   7   2.0000      -0.446499       -12.1499
   8   2.0000      -0.370405       -10.0792
   9   0.0000       0.075171         2.0455
  10   0.0000       0.127807         3.4778
  11   0.0000       0.162657         4.4261
  12   0.0000       0.164557         4.4778
  13   0.0000       0.196176         5.3382

MULLIKEN ATOMIC CHARGES
-----------------------
   0 C :   -0.000839
   1 O :   -0.004172
   2 H :   -0.000795
   3 H :    0.000073
   4 H :   -0.000008
   5 H :   -0.000952
   6 C :   -0.177983
   7 O :   -0.449587
   8 H :    0.311972
   9 H :    0.098768
  10 H :    0.099998
  11 H :    0.123527
Sum of atomic charges:    0.0000000

LOEWDIN ATOMIC CHARGES
----------------------
   0 C :   -0.004622
   1 O :   -0.020348
   2 H :   -0.001170
   3 H :   -0.000058
   4 H :   -0.000073
   5 H :   -0.001168
   6 C :   -0.392876
   7 O :   -0.046496
   8 H :    0.173583
   9 H :    0.101264
  10 H :    0.092711
  11 H :    0.099253

  Mayer bond orders larger than 0.1
B(  6-C ,  7-O ) :   0.9942 B(  6-C ,  9-H ) :   0.9861 B(  6-C , 10-H ) :   0.9790
B(  6-C , 11-H ) :   0.9736 B(  7-O ,  8-H ) :   0.9075

Dispersion correction           -0.000185382
FINAL SINGLE POINT ENERGY      -115.730664695302

DIPOLE MOMENT
-------------
                                X             Y             Z
Electronic contribution:     -0.44864      -1.53984      -0.76318
Nuclear contribution   :      0.94672       1.80539       1.18329
                        -----------------------------------------
Total Dipole Moment    :      0.49807       0.26555       0.42012
                        -----------------------------------------
Magnitude (a.u.)       :      0.70363
Magnitude (Debye)      :      1.78848

Rotational constants in cm-1:     4.160025     0.874207     0.837633
Rotational constants in MHz : 124714.420255 26208.063622 25111.610203

                             ****ORCA TERMINATED NORMALLY****
TOTAL RUN TIME: 0 days 0 hours 0 minutes 50 seconds 502 msec
