                         Program Version 4.1.2  - RELEASE  -
|  1> #Run DFT-D3 single point of the dimer
|  2> ! wB97X-D3 def2-TZVP TIGHTSCF CHELPG PMODEL PAL8
|  3>
|  4> %base "12-27_DFT_AB"
|  5>
|  6> %scf
|  7> MaxIter 1000
|  8> end
|  9>
| 10> * xyz 0 1
| 11>   C                      5.213601             -6.424230            1.445439
| 12>   O                      5.630218             -5.208946            2.075847
| 13>   H                      5.563530             -4.576802            1.354313
| 14>   H                      5.329758             -7.331916            2.140380
| 15>   H                      4.144093             -6.377885            1.182249
| 16>   H                      5.866397             -6.714165            0.524728
| 17>   C                      4.754695             -8.150541            5.270730
| 18>   O                      4.104975             -9.335210            5.323063
| 19>   H                      3.952674             -9.690733            4.421511
| 20>   H                      5.553104             -8.139365            4.569096
| 21>   H                      4.058127             -7.356867            4.934805
| 22>   H                      5.126273             -7.952244            6.256845
| 23> *
| 24>
| 25> #Run DFT-D3 single point of the molecule with dimer basis set
| 26> $new_job
| 27> %base "12-27_DFT_A"
| 28> ! wB97X-D3 def2-TZVP TIGHTSCF CHELPG PMODEL
| 29>
| 30> %scf
| 31> MaxIter 1000
| 32> end
| 33>
| 34> * xyz 0 1
| 35>   C                      5.213601             -6.424230            1.445439
| 36>   O                      5.630218             -5.208946            2.075847
| 37>   H                      5.563530             -4.576802            1.354313
| 38>   H                      5.329758             -7.331916            2.140380
| 39>   H                      4.144093             -6.377885            1.182249
| 40>   H                      5.866397             -6.714165            0.524728
| 41>   C                    : 4.754695             -8.150541            5.270730
| 42>   O                    : 4.104975             -9.335210            5.323063
| 43>   H                    : 3.952674             -9.690733            4.421511
| 44>   H                    : 5.553104             -8.139365            4.569096
| 45>   H                    : 4.058127             -7.356867            4.934805
| 46>   H                    : 5.126273             -7.952244            6.256845
| 47> *
| 48>
| 49> #Run DFT-D3 single point of the particle with dimer basis set
| 50> $new_job
| 51> %base "12-27_DFT_B"
| 52> ! wB97X-D3 def2-TZVP TIGHTSCF CHELPG PMODEL
| 53>
| 54> %scf
| 55> MaxIter 1000
| 56> end
| 57>
| 58> * xyz 0 1
| 59>   C                    : 5.213601             -6.424230            1.445439
| 60>   O                    : 5.630218             -5.208946            2.075847
| 61>   H                    : 5.563530             -4.576802            1.354313
| 62>   H                    : 5.329758             -7.331916            2.140380
| 63>   H                    : 4.144093             -6.377885            1.182249
| 64>   H                    : 5.866397             -6.714165            0.524728
| 65>   C                      4.754695             -8.150541            5.270730
| 66>   O                      4.104975             -9.335210            5.323063
| 67>   H                      3.952674             -9.690733            4.421511
| 68>   H                      5.553104             -8.139365            4.569096
| 69>   H                      4.058127             -7.356867            4.934805
| 70>   H                      5.126273             -7.952244            6.256845
| 71> *
| 72>
| 73>                          ****END OF INPUT****
 Total Charge           Charge          ....    0
 Multiplicity           Mult            ....    1
 Number of Electrons    NEL             ....   36
Dispersion correction           -0.001318605
FINAL SINGLE POINT ENERGY      -231.463560391435
Dispersion correction           -0.000260361
FINAL SINGLE POINT ENERGY      -115.730580751068

CARTESIAN COORDINATES (ANGSTROEM)
---------------------------------
  C      5.213601   -6.424230    1.445439
  O      5.630218   -5.208946    2.075847
  H      5.563530   -4.576802    1.354313
  H      5.329758   -7.331916    2.140380
  H      4.144093   -6.377885    1.182249
  H      5.866397   -6.714165    0.524728
  C      4.754695   -8.150541    5.270730
  O      4.104975   -9.335210    5.323063
  H      3.952674   -9.690733    4.421511
  H      5.553104   -8.139365    4.569096
  H      4.058127   -7.356867    4.934805
  H      5.126273   -7.952244    6.256845

 Multiplicity           Mult            ....    1
 Number of Electrons    NEL             ....   18
 Basis Dimension        Dim             ....  172

ORBITAL ENERGIES
----------------

  NO   OCC          E(Eh)            E(eV)
   0   2.0000     -19.228438      -523.2324
   1   2.0000     -10.302541      -280.3464
   2   2.0000      -1.150704       -31.3123
   3   2.0000      -0.793981       -21.6053
   4   2.0000      -0.624096       -16.9825
   5   2.0000      -0.546956       -14.8834
   6   2.0000      -0.535495       -14.5716
   7   2.0000      -0.429984       -11.7005
   8   2.0000      -0.365975        -9.9587
   9   0.0000       0.078138         2.1263
  10   0.0000       0.114686         3.1208
  11   0.0000       0.156987         4.2718
  12   0.0000       0.169361         4.6085
  13   0.0000       0.180888         4.9222

MULLIKEN ATOMIC CHARGES
-----------------------
   0 C :   -0.001800
   1 O :    0.000264
   2 H :    0.000019
   3 H :    0.000973
   4 H :    0.000088
   5 H :    0.000016
   6 C :   -0.133752
   7 O :   -0.471213
   8 H :    0.317414
   9 H :    0.092118
  10 H :    0.083643
  11 H :    0.112231
Sum of atomic charges:    0.0000000

LOEWDIN ATOMIC CHARGES
----------------------
   0 C :   -0.001494
   1 O :   -0.000055
   2 H :   -0.000003
   3 H :   -0.002534
   4 H :   -0.000045
   5 H :   -0.000010
   6 C :   -0.425722
   7 O :   -0.040572
   8 H :    0.184684
   9 H :    0.085779
  10 H :    0.094769
  11 H :    0.105203

  Mayer bond orders larger than 0.1
B(  6-C ,  7-O ) :   1.0092 B(  6-C ,  9-H ) :   0.9802 B(  6-C , 10-H ) :   0.9814
B(  6-C , 11-H ) :   0.9724 B(  7-O ,  8-H ) :   0.8915

Dispersion correction           -0.000211186
FINAL SINGLE POINT ENERGY      -115.732369059134

DIPOLE MOMENT
-------------
                                X             Y             Z
Electronic contribution:     -0.78041      -1.58364       0.24054
Nuclear contribution   :      0.94328       1.77084      -0.83591
                        -----------------------------------------
Total Dipole Moment    :      0.16287       0.18720      -0.59537
                        -----------------------------------------
Magnitude (a.u.)       :      0.64501
Magnitude (Debye)      :      1.63947

Rotational constants in cm-1:     4.333648     0.899407     0.861384
Rotational constants in MHz : 129919.492264 26963.540099 25823.632291

                             ****ORCA TERMINATED NORMALLY****
TOTAL RUN TIME: 0 days 0 hours 1 minutes 10 seconds 307 msec
