                         Program Version 4.1.2  - RELEASE  -
|  1> #Run DFT-D3 single point of the dimer
|  2> ! wB97X-D3 def2-TZVP TIGHTSCF CHELPG PMODEL PAL8
|  3>
|  4> %base "21-85_DFT_AB"
|  5>
|  6> %scf
|  7> MaxIter 1000
|  8> end
|  9>
| 10> * xyz 0 1
| 11>   C                      5.544735             -10.686815           11.416384
| 12>   O                      6.569693             -9.635221            11.320580
| 13>   H                      6.852224             -9.461157            10.453404
| 14>   H                      4.580030             -10.332522           11.784910
| 15>   H                      5.292785             -11.100604           10.397652
| 16>   H                      5.884410             -11.404736           12.195480
| 17>   C                      5.749419             -9.874577            7.272263
| 18>   O                      6.902295             -9.710720            6.483287
| 19>   H                      6.983640             -10.309345           5.776016
| 20>   H                      4.869274             -9.851773            6.609872
| 21>   H                      5.770182             -10.899882           7.782322
| 22>   H                      5.602472             -9.040919            7.981364
| 23> *
| 24>
| 25> #Run DFT-D3 single point of the molecule with dimer basis set
| 26> $new_job
| 27> %base "21-85_DFT_A"
| 28> ! wB97X-D3 def2-TZVP TIGHTSCF CHELPG PMODEL
| 29>
| 30> %scf
| 31> MaxIter 1000
| 32> end
| 33>
| 34> * xyz 0 1
| 35>   C                      5.544735             -10.686815           11.416384
| 36>   O                      6.569693             -9.635221            11.320580
| 37>   H                      6.852224             -9.461157            10.453404
| 38>   H                      4.580030             -10.332522           11.784910
| 39>   H                      5.292785             -11.100604           10.397652
| 40>   H                      5.884410             -11.404736           12.195480
| 41>   C                    : 5.749419             -9.874577            7.272263
| 42>   O                    : 6.902295             -9.710720            6.483287
| 43>   H                    : 6.983640             -10.309345           5.776016
| 44>   H                    : 4.869274             -9.851773            6.609872
| 45>   H                    : 5.770182             -10.899882           7.782322
| 46>   H                    : 5.602472             -9.040919            7.981364
| 47> *
| 48>
| 49> #Run DFT-D3 single point of the particle with dimer basis set
| 50> $new_job
| 51> %base "21-85_DFT_B"
| 52> ! wB97X-D3 def2-TZVP TIGHTSCF CHELPG PMODEL
| 53>
| 54> %scf
| 55> MaxIter 1000
| 56> end
| 57>
| 58> * xyz 0 1
| 59>   C                    : 5.544735             -10.686815           11.416384
| 60>   O                    : 6.569693             -9.635221            11.320580
| 61>   H                    : 6.852224             -9.461157            10.453404
| 62>   H                    : 4.580030             -10.332522           11.784910
| 63>   H                    : 5.292785             -11.100604           10.397652
| 64>   H                    : 5.884410             -11.404736           12.195480
| 65>   C                      5.749419             -9.874577            7.272263
| 66>   O                      6.902295             -9.710720            6.483287
| 67>   H                      6.983640             -10.309345           5.776016
| 68>   H                      4.869274             -9.851773            6.609872
| 69>   H                      5.770182             -10.899882           7.782322
| 70>   H                      5.602472             -9.040919            7.981364
| 71> *
| 72>
| 73>                          ****END OF INPUT****
 Total Charge           Charge          ....    0
 Multiplicity           Mult            ....    1
 Number of Electrons    NEL             ....   36
Dispersion correction           -0.001561217
FINAL SINGLE POINT ENERGY      -231.461458132429
Dispersion correction           -0.000289160
FINAL SINGLE POINT ENERGY      -115.728219965410

CARTESIAN COORDINATES (ANGSTROEM)
---------------------------------
  C      5.544735  -10.686815   11.416384
  O      6.569693   -9.635221   11.320580
  H      6.852224   -9.461157   10.453404
  H      4.580030  -10.332522   11.784910
  H      5.292785  -11.100604   10.397652
  H      5.884410  -11.404736   12.195480
  C      5.749419   -9.874577    7.272263
  O      6.902295   -9.710720    6.483287
  H      6.983640  -10.309345    5.776016
  H      4.869274   -9.851773    6.609872
  H      5.770182  -10.899882    7.782322
  H      5.602472   -9.040919    7.981364

 Multiplicity           Mult            ....    1
 Number of Electrons    NEL             ....   18
 Basis Dimension        Dim             ....  172

ORBITAL ENERGIES
----------------

  NO   OCC          E(Eh)            E(eV)
   0   2.0000     -19.223404      -523.0954
   1   2.0000     -10.321677      -280.8671
   2   2.0000      -1.139527       -31.0081
   3   2.0000      -0.796360       -21.6700
   4   2.0000      -0.613661       -16.6986
   5   2.0000      -0.540322       -14.7029
   6   2.0000      -0.530719       -14.4416
   7   2.0000      -0.423645       -11.5280
   8   2.0000      -0.370099       -10.0709
   9   0.0000       0.088757         2.4152
  10   0.0000       0.119334         3.2472
  11   0.0000       0.155354         4.2274
  12   0.0000       0.164428         4.4743
  13   0.0000       0.188581         5.1316

MULLIKEN ATOMIC CHARGES
-----------------------
   0 C :    0.000231
   1 O :   -0.000026
   2 H :    0.000490
   3 H :    0.000007
   4 H :   -0.002211
   5 H :   -0.000063
   6 C :   -0.152018
   7 O :   -0.484007
   8 H :    0.313968
   9 H :    0.099447
  10 H :    0.098096
  11 H :    0.126088
Sum of atomic charges:   -0.0000000

LOEWDIN ATOMIC CHARGES
----------------------
   0 C :   -0.001348
   1 O :   -0.000109
   2 H :   -0.001378
   3 H :   -0.000012
   4 H :   -0.003181
   5 H :   -0.000007
   6 C :   -0.388860
   7 O :   -0.062477
   8 H :    0.147249
   9 H :    0.094171
  10 H :    0.104183
  11 H :    0.111769

  Mayer bond orders larger than 0.1
B(  6-C ,  7-O ) :   0.9872 B(  6-C ,  9-H ) :   0.9788 B(  6-C , 10-H ) :   0.9763
B(  6-C , 11-H ) :   0.9668 B(  7-O ,  8-H ) :   0.8992

Dispersion correction           -0.000249016
FINAL SINGLE POINT ENERGY      -115.731957801818

DIPOLE MOMENT
-------------
                                X             Y             Z
Electronic contribution:      1.54279       0.36136      -0.87339
Nuclear contribution   :     -1.96490      -0.80057       0.70247
                        -----------------------------------------
Total Dipole Moment    :     -0.42211      -0.43921      -0.17091
                        -----------------------------------------
Magnitude (a.u.)       :      0.63269
Magnitude (Debye)      :      1.60816

Rotational constants in cm-1:     4.252072     0.828430     0.802955
Rotational constants in MHz : 127473.915479 24835.716304 24071.980702

                             ****ORCA TERMINATED NORMALLY****
TOTAL RUN TIME: 0 days 0 hours 1 minutes 2 seconds 588 msec
