                         Program Version 4.1.2  - RELEASE  -
|  1> #Run DFT-D3 single point of the dimer
|  2> ! wB97X-D3 def2-TZVP TIGHTSCF CHELPG PMODEL PAL8
|  3>
|  4> %base "20-157_DFT_AB"
|  5>
|  6> %scf
|  7> MaxIter 1000
|  8> end
|  9>
| 10> * xyz 0 1
| 11>   C                      3.927429             5.685087             -3.144668
| 12>   O                      3.911771             7.097495             -3.128143
| 13>   H                      4.365504             7.379704             -3.916981
| 14>   H                      3.390142             5.395169             -4.049428
| 15>   H                      4.970226             5.248534             -3.229994
| 16>   H                      3.351720             5.171865             -2.354126
| 17>   C                      2.064554             6.478526             0.087602
| 18>   O                      2.280787             7.711916             -0.625384
| 19>   H                      2.526445             7.545536             -1.558653
| 20>   H                      3.033506             6.068312             0.305199
| 21>   H                      1.494370             6.625491             1.061275
| 22>   H                      1.504419             5.731615             -0.494751
| 23> *
| 24>
| 25> #Run DFT-D3 single point of the molecule with dimer basis set
| 26> $new_job
| 27> %base "20-157_DFT_A"
| 28> ! wB97X-D3 def2-TZVP TIGHTSCF CHELPG PMODEL
| 29>
| 30> %scf
| 31> MaxIter 1000
| 32> end
| 33>
| 34> * xyz 0 1
| 35>   C                      3.927429             5.685087             -3.144668
| 36>   O                      3.911771             7.097495             -3.128143
| 37>   H                      4.365504             7.379704             -3.916981
| 38>   H                      3.390142             5.395169             -4.049428
| 39>   H                      4.970226             5.248534             -3.229994
| 40>   H                      3.351720             5.171865             -2.354126
| 41>   C                    : 2.064554             6.478526             0.087602
| 42>   O                    : 2.280787             7.711916             -0.625384
| 43>   H                    : 2.526445             7.545536             -1.558653
| 44>   H                    : 3.033506             6.068312             0.305199
| 45>   H                    : 1.494370             6.625491             1.061275
| 46>   H                    : 1.504419             5.731615             -0.494751
| 47> *
| 48>
| 49> #Run DFT-D3 single point of the particle with dimer basis set
| 50> $new_job
| 51> %base "20-157_DFT_B"
| 52> ! wB97X-D3 def2-TZVP TIGHTSCF CHELPG PMODEL
| 53>
| 54> %scf
| 55> MaxIter 1000
| 56> end
| 57>
| 58> * xyz 0 1
| 59>   C                    : 3.927429             5.685087             -3.144668
| 60>   O                    : 3.911771             7.097495             -3.128143
| 61>   H                    : 4.365504             7.379704             -3.916981
| 62>   H                    : 3.390142             5.395169             -4.049428
| 63>   H                    : 4.970226             5.248534             -3.229994
| 64>   H                    : 3.351720             5.171865             -2.354126
| 65>   C                      2.064554             6.478526             0.087602
| 66>   O                      2.280787             7.711916             -0.625384
| 67>   H                      2.526445             7.545536             -1.558653
| 68>   H                      3.033506             6.068312             0.305199
| 69>   H                      1.494370             6.625491             1.061275
| 70>   H                      1.504419             5.731615             -0.494751
| 71> *
| 72>
| 73>                          ****END OF INPUT****
 Total Charge           Charge          ....    0
 Multiplicity           Mult            ....    1
 Number of Electrons    NEL             ....   36
Dispersion correction           -0.002022993
FINAL SINGLE POINT ENERGY      -231.470225655978
Dispersion correction           -0.000236593
FINAL SINGLE POINT ENERGY      -115.731446081308

CARTESIAN COORDINATES (ANGSTROEM)
---------------------------------
  C      3.927429    5.685087   -3.144668
  O      3.911771    7.097495   -3.128143
  H      4.365504    7.379704   -3.916981
  H      3.390142    5.395169   -4.049428
  H      4.970226    5.248534   -3.229994
  H      3.351720    5.171865   -2.354126
  C      2.064554    6.478526    0.087602
  O      2.280787    7.711916   -0.625384
  H      2.526445    7.545536   -1.558653
  H      3.033506    6.068312    0.305199
  H      1.494370    6.625491    1.061275
  H      1.504419    5.731615   -0.494751

 Multiplicity           Mult            ....    1
 Number of Electrons    NEL             ....   18
 Basis Dimension        Dim             ....  172

ORBITAL ENERGIES
----------------

  NO   OCC          E(Eh)            E(eV)
   0   2.0000     -19.230322      -523.2837
   1   2.0000     -10.319274      -280.8017
   2   2.0000      -1.122231       -30.5375
   3   2.0000      -0.793788       -21.6001
   4   2.0000      -0.603778       -16.4296
   5   2.0000      -0.540534       -14.7087
   6   2.0000      -0.521068       -14.1790
   7   2.0000      -0.429058       -11.6753
   8   2.0000      -0.372939       -10.1482
   9   0.0000       0.068969         1.8768
  10   0.0000       0.136220         3.7067
  11   0.0000       0.138213         3.7610
  12   0.0000       0.174265         4.7420
  13   0.0000       0.180519         4.9122

MULLIKEN ATOMIC CHARGES
-----------------------
   0 C :   -0.006496
   1 O :   -0.001562
   2 H :   -0.000234
   3 H :    0.000391
   4 H :    0.000012
   5 H :    0.000779
   6 C :   -0.167319
   7 O :   -0.485573
   8 H :    0.318303
   9 H :    0.107936
  10 H :    0.126385
  11 H :    0.107379
Sum of atomic charges:   -0.0000000

LOEWDIN ATOMIC CHARGES
----------------------
   0 C :   -0.006695
   1 O :   -0.012373
   2 H :   -0.000545
   3 H :   -0.000085
   4 H :   -0.000094
   5 H :   -0.002811
   6 C :   -0.366441
   7 O :   -0.099969
   8 H :    0.182314
   9 H :    0.092233
  10 H :    0.118072
  11 H :    0.096396

  Mayer bond orders larger than 0.1
B(  6-C ,  7-O ) :   0.9867 B(  6-C ,  9-H ) :   0.9797 B(  6-C , 10-H ) :   0.9684
B(  6-C , 11-H ) :   0.9757 B(  7-O ,  8-H ) :   0.8976

Dispersion correction           -0.000262037
FINAL SINGLE POINT ENERGY      -115.732938099452

DIPOLE MOMENT
-------------
                                X             Y             Z
Electronic contribution:      0.22103       1.62687      -0.76862
Nuclear contribution   :     -0.15724      -2.25537       0.48044
                        -----------------------------------------
Total Dipole Moment    :      0.06378      -0.62850      -0.28818
                        -----------------------------------------
Magnitude (a.u.)       :      0.69435
Magnitude (Debye)      :      1.76490

Rotational constants in cm-1:     4.263827     0.798722     0.768413
Rotational constants in MHz : 127826.315761 23945.095399 23036.455913

                             ****ORCA TERMINATED NORMALLY****
TOTAL RUN TIME: 0 days 0 hours 1 minutes 3 seconds 523 msec
