                         Program Version 4.1.2  - RELEASE  -
|  1> #Run DFT-D3 single point of the dimer
|  2> ! wB97X-D3 def2-TZVP TIGHTSCF CHELPG PMODEL PAL8
|  3>
|  4> %base "8-159_DFT_AB"
|  5>
|  6> %scf
|  7> MaxIter 1000
|  8> end
|  9>
| 10> * xyz 0 1
| 11>   C                      -2.448626            5.690601             9.930628
| 12>   O                      -2.384524            6.628050             8.851840
| 13>   H                      -1.761138            6.529912             8.172932
| 14>   H                      -1.634249            5.681301             10.645902
| 15>   H                      -3.371178            5.764819             10.581678
| 16>   H                      -2.443107            4.654184             9.502492
| 17>   C                      1.341650             7.196521             8.415356
| 18>   O                      0.204756             7.613715             7.664162
| 19>   H                      0.002411             8.498018             7.983204
| 20>   H                      1.804227             8.086006             8.812302
| 21>   H                      1.086356             6.529568             9.241411
| 22>   H                      2.062149             6.746690             7.821810
| 23> *
| 24>
| 25> #Run DFT-D3 single point of the molecule with dimer basis set
| 26> $new_job
| 27> %base "8-159_DFT_A"
| 28> ! wB97X-D3 def2-TZVP TIGHTSCF CHELPG PMODEL
| 29>
| 30> %scf
| 31> MaxIter 1000
| 32> end
| 33>
| 34> * xyz 0 1
| 35>   C                      -2.448626            5.690601             9.930628
| 36>   O                      -2.384524            6.628050             8.851840
| 37>   H                      -1.761138            6.529912             8.172932
| 38>   H                      -1.634249            5.681301             10.645902
| 39>   H                      -3.371178            5.764819             10.581678
| 40>   H                      -2.443107            4.654184             9.502492
| 41>   C                    : 1.341650             7.196521             8.415356
| 42>   O                    : 0.204756             7.613715             7.664162
| 43>   H                    : 0.002411             8.498018             7.983204
| 44>   H                    : 1.804227             8.086006             8.812302
| 45>   H                    : 1.086356             6.529568             9.241411
| 46>   H                    : 2.062149             6.746690             7.821810
| 47> *
| 48>
| 49> #Run DFT-D3 single point of the particle with dimer basis set
| 50> $new_job
| 51> %base "8-159_DFT_B"
| 52> ! wB97X-D3 def2-TZVP TIGHTSCF CHELPG PMODEL
| 53>
| 54> %scf
| 55> MaxIter 1000
| 56> end
| 57>
| 58> * xyz 0 1
| 59>   C                    : -2.448626            5.690601             9.930628
| 60>   O                    : -2.384524            6.628050             8.851840
| 61>   H                    : -1.761138            6.529912             8.172932
| 62>   H                    : -1.634249            5.681301             10.645902
| 63>   H                    : -3.371178            5.764819             10.581678
| 64>   H                    : -2.443107            4.654184             9.502492
| 65>   C                      1.341650             7.196521             8.415356
| 66>   O                      0.204756             7.613715             7.664162
| 67>   H                      0.002411             8.498018             7.983204
| 68>   H                      1.804227             8.086006             8.812302
| 69>   H                      1.086356             6.529568             9.241411
| 70>   H                      2.062149             6.746690             7.821810
| 71> *
| 72>
| 73>                          ****END OF INPUT****
 Total Charge           Charge          ....    0
 Multiplicity           Mult            ....    1
 Number of Electrons    NEL             ....   36
Dispersion correction           -0.001806530
FINAL SINGLE POINT ENERGY      -231.465229947946
Dispersion correction           -0.000294053
FINAL SINGLE POINT ENERGY      -115.726521503984

CARTESIAN COORDINATES (ANGSTROEM)
---------------------------------
  C     -2.448626    5.690601    9.930628
  O     -2.384524    6.628050    8.851840
  H     -1.761138    6.529912    8.172932
  H     -1.634249    5.681301   10.645902
  H     -3.371178    5.764819   10.581678
  H     -2.443107    4.654184    9.502492
  C      1.341650    7.196521    8.415356
  O      0.204756    7.613715    7.664162
  H      0.002411    8.498018    7.983204
  H      1.804227    8.086006    8.812302
  H      1.086356    6.529568    9.241411
  H      2.062149    6.746690    7.821810

 Multiplicity           Mult            ....    1
 Number of Electrons    NEL             ....   18
 Basis Dimension        Dim             ....  172

ORBITAL ENERGIES
----------------

  NO   OCC          E(Eh)            E(eV)
   0   2.0000     -19.230226      -523.2811
   1   2.0000     -10.306151      -280.4446
   2   2.0000      -1.134262       -30.8648
   3   2.0000      -0.801122       -21.7996
   4   2.0000      -0.609399       -16.5826
   5   2.0000      -0.545692       -14.8490
   6   2.0000      -0.533450       -14.5159
   7   2.0000      -0.434411       -11.8209
   8   2.0000      -0.376366       -10.2414
   9   0.0000       0.090482         2.4621
  10   0.0000       0.119120         3.2414
  11   0.0000       0.153831         4.1860
  12   0.0000       0.184956         5.0329
  13   0.0000       0.196794         5.3550

MULLIKEN ATOMIC CHARGES
-----------------------
   0 C :   -0.001417
   1 O :   -0.002197
   2 H :   -0.005401
   3 H :   -0.000217
   4 H :   -0.000022
   5 H :   -0.000011
   6 C :   -0.163562
   7 O :   -0.470219
   8 H :    0.316979
   9 H :    0.098047
  10 H :    0.106686
  11 H :    0.121335
Sum of atomic charges:   -0.0000000

LOEWDIN ATOMIC CHARGES
----------------------
   0 C :   -0.001202
   1 O :   -0.005873
   2 H :   -0.021206
   3 H :   -0.000322
   4 H :   -0.000015
   5 H :   -0.000019
   6 C :   -0.364591
   7 O :   -0.063835
   8 H :    0.171932
   9 H :    0.096176
  10 H :    0.098259
  11 H :    0.090695

  Mayer bond orders larger than 0.1
B(  6-C ,  7-O ) :   1.0015 B(  6-C ,  9-H ) :   0.9924 B(  6-C , 10-H ) :   0.9731
B(  6-C , 11-H ) :   0.9766 B(  7-O ,  8-H ) :   0.9011

Dispersion correction           -0.000231715
FINAL SINGLE POINT ENERGY      -115.732653006317

DIPOLE MOMENT
-------------
                                X             Y             Z
Electronic contribution:     -1.41747       0.31267      -1.07084
Nuclear contribution   :      1.78461       0.10183       1.56373
                        -----------------------------------------
Total Dipole Moment    :      0.36714       0.41450       0.49289
                        -----------------------------------------
Magnitude (a.u.)       :      0.74131
Magnitude (Debye)      :      1.88426

Rotational constants in cm-1:     4.430282     0.827703     0.800745
Rotational constants in MHz : 132816.499467 24813.909764 24005.727003

                             ****ORCA TERMINATED NORMALLY****
TOTAL RUN TIME: 0 days 0 hours 0 minutes 46 seconds 204 msec
