                         Program Version 4.1.2  - RELEASE  -
|  1> #Run DFT-D3 single point of the dimer
|  2> ! wB97X-D3 def2-TZVP TIGHTSCF CHELPG PMODEL PAL8
|  3>
|  4> %base "8-4_DFT_AB"
|  5>
|  6> %scf
|  7> MaxIter 1000
|  8> end
|  9>
| 10> * xyz 0 1
| 11>   C                      3.233414             -3.571402            3.480505
| 12>   O                      2.255676             -2.570167            3.219103
| 13>   H                      1.566001             -2.787145            3.844910
| 14>   H                      2.766447             -4.558397            3.518261
| 15>   H                      4.083400             -3.498807            2.869667
| 16>   H                      3.649298             -3.340378            4.517966
| 17>   C                      6.699430             -5.657267            -0.260360
| 18>   O                      6.373375             -4.714772            0.735711
| 19>   H                      6.683855             -5.044267            1.572619
| 20>   H                      6.083675             -5.429119            -1.111410
| 21>   H                      7.752837             -5.548398            -0.640329
| 22>   H                      6.603195             -6.639985            0.122955
| 23> *
| 24>
| 25> #Run DFT-D3 single point of the molecule with dimer basis set
| 26> $new_job
| 27> %base "8-4_DFT_A"
| 28> ! wB97X-D3 def2-TZVP TIGHTSCF CHELPG PMODEL
| 29>
| 30> %scf
| 31> MaxIter 1000
| 32> end
| 33>
| 34> * xyz 0 1
| 35>   C                      3.233414             -3.571402            3.480505
| 36>   O                      2.255676             -2.570167            3.219103
| 37>   H                      1.566001             -2.787145            3.844910
| 38>   H                      2.766447             -4.558397            3.518261
| 39>   H                      4.083400             -3.498807            2.869667
| 40>   H                      3.649298             -3.340378            4.517966
| 41>   C                    : 6.699430             -5.657267            -0.260360
| 42>   O                    : 6.373375             -4.714772            0.735711
| 43>   H                    : 6.683855             -5.044267            1.572619
| 44>   H                    : 6.083675             -5.429119            -1.111410
| 45>   H                    : 7.752837             -5.548398            -0.640329
| 46>   H                    : 6.603195             -6.639985            0.122955
| 47> *
| 48>
| 49> #Run DFT-D3 single point of the particle with dimer basis set
| 50> $new_job
| 51> %base "8-4_DFT_B"
| 52> ! wB97X-D3 def2-TZVP TIGHTSCF CHELPG PMODEL
| 53>
| 54> %scf
| 55> MaxIter 1000
| 56> end
| 57>
| 58> * xyz 0 1
| 59>   C                    : 3.233414             -3.571402            3.480505
| 60>   O                    : 2.255676             -2.570167            3.219103
| 61>   H                    : 1.566001             -2.787145            3.844910
| 62>   H                    : 2.766447             -4.558397            3.518261
| 63>   H                    : 4.083400             -3.498807            2.869667
| 64>   H                    : 3.649298             -3.340378            4.517966
| 65>   C                      6.699430             -5.657267            -0.260360
| 66>   O                      6.373375             -4.714772            0.735711
| 67>   H                      6.683855             -5.044267            1.572619
| 68>   H                      6.083675             -5.429119            -1.111410
| 69>   H                      7.752837             -5.548398            -0.640329
| 70>   H                      6.603195             -6.639985            0.122955
| 71> *
| 72>
| 73>                          ****END OF INPUT****
 Total Charge           Charge          ....    0
 Multiplicity           Mult            ....    1
 Number of Electrons    NEL             ....   36
Dispersion correction           -0.000846872
FINAL SINGLE POINT ENERGY      -231.465449713197
Dispersion correction           -0.000215901
FINAL SINGLE POINT ENERGY      -115.730566879860

CARTESIAN COORDINATES (ANGSTROEM)
---------------------------------
  C      3.233414   -3.571402    3.480505
  O      2.255676   -2.570167    3.219103
  H      1.566001   -2.787145    3.844910
  H      2.766447   -4.558397    3.518261
  H      4.083400   -3.498807    2.869667
  H      3.649298   -3.340378    4.517966
  C      6.699430   -5.657267   -0.260360
  O      6.373375   -4.714772    0.735711
  H      6.683855   -5.044267    1.572619
  H      6.083675   -5.429119   -1.111410
  H      7.752837   -5.548398   -0.640329
  H      6.603195   -6.639985    0.122955

 Multiplicity           Mult            ....    1
 Number of Electrons    NEL             ....   18
 Basis Dimension        Dim             ....  172

ORBITAL ENERGIES
----------------

  NO   OCC          E(Eh)            E(eV)
   0   2.0000     -19.228453      -523.2328
   1   2.0000     -10.310103      -280.5522
   2   2.0000      -1.139095       -30.9963
   3   2.0000      -0.797618       -21.7043
   4   2.0000      -0.616716       -16.7817
   5   2.0000      -0.541208       -14.7270
   6   2.0000      -0.527107       -14.3433
   7   2.0000      -0.439627       -11.9629
   8   2.0000      -0.370384       -10.0787
   9   0.0000       0.091127         2.4797
  10   0.0000       0.116911         3.1813
  11   0.0000       0.154286         4.1983
  12   0.0000       0.182192         4.9577
  13   0.0000       0.199176         5.4199

MULLIKEN ATOMIC CHARGES
-----------------------
   0 C :    0.001022
   1 O :   -0.000026
   2 H :   -0.000002
   3 H :    0.000107
   4 H :   -0.004349
   5 H :   -0.000094
   6 C :   -0.157977
   7 O :   -0.471055
   8 H :    0.313258
   9 H :    0.122657
  10 H :    0.090006
  11 H :    0.106455
Sum of atomic charges:    0.0000000

LOEWDIN ATOMIC CHARGES
----------------------
   0 C :   -0.000848
   1 O :   -0.000012
   2 H :   -0.000002
   3 H :   -0.000021
   4 H :   -0.002045
   5 H :   -0.000005
   6 C :   -0.382351
   7 O :   -0.069425
   8 H :    0.162554
   9 H :    0.105567
  10 H :    0.098237
  11 H :    0.088350

  Mayer bond orders larger than 0.1
B(  6-C ,  7-O ) :   0.9992 B(  6-C ,  9-H ) :   0.9775 B(  6-C , 10-H ) :   0.9701
B(  6-C , 11-H ) :   0.9824 B(  7-O ,  8-H ) :   0.9006

Dispersion correction           -0.000233774
FINAL SINGLE POINT ENERGY      -115.734543933125

DIPOLE MOMENT
-------------
                                X             Y             Z
Electronic contribution:     -0.56071       1.18982       1.19095
Nuclear contribution   :      0.87562      -1.78585      -1.05145
                        -----------------------------------------
Total Dipole Moment    :      0.31491      -0.59603       0.13950
                        -----------------------------------------
Magnitude (a.u.)       :      0.68839
Magnitude (Debye)      :      1.74975

Rotational constants in cm-1:     4.328913     0.843515     0.808239
Rotational constants in MHz : 129777.541019 25287.955581 24230.396137

                             ****ORCA TERMINATED NORMALLY****
TOTAL RUN TIME: 0 days 0 hours 0 minutes 42 seconds 378 msec
