                         Program Version 4.1.2  - RELEASE  -
|  1> #Run DFT-D3 single point of the dimer
|  2> ! wB97X-D3 def2-TZVP TIGHTSCF CHELPG PMODEL PAL8
|  3>
|  4> %base "17-77_DFT_AB"
|  5>
|  6> %scf
|  7> MaxIter 1000
|  8> end
|  9>
| 10> * xyz 0 1
| 11>   C                      -1.143472            3.251015             -8.383428
| 12>   O                      -1.942154            2.903486             -9.464382
| 13>   H                      -1.698939            3.509440             -10.183064
| 14>   H                      -1.426148            2.504044             -7.571571
| 15>   H                      -0.084644            3.152513             -8.594473
| 16>   H                      -1.392792            4.268874             -8.070492
| 17>   C                      3.270100             3.122538             -7.130253
| 18>   O                      3.381538             2.572077             -5.852959
| 19>   H                      4.009754             3.136969             -5.411769
| 20>   H                      3.960779             3.980982             -7.247778
| 21>   H                      3.434063             2.453098             -7.943087
| 22>   H                      2.231694             3.476196             -7.282018
| 23> *
| 24>
| 25> #Run DFT-D3 single point of the molecule with dimer basis set
| 26> $new_job
| 27> %base "17-77_DFT_A"
| 28> ! wB97X-D3 def2-TZVP TIGHTSCF CHELPG PMODEL
| 29>
| 30> %scf
| 31> MaxIter 1000
| 32> end
| 33>
| 34> * xyz 0 1
| 35>   C                      -1.143472            3.251015             -8.383428
| 36>   O                      -1.942154            2.903486             -9.464382
| 37>   H                      -1.698939            3.509440             -10.183064
| 38>   H                      -1.426148            2.504044             -7.571571
| 39>   H                      -0.084644            3.152513             -8.594473
| 40>   H                      -1.392792            4.268874             -8.070492
| 41>   C                    : 3.270100             3.122538             -7.130253
| 42>   O                    : 3.381538             2.572077             -5.852959
| 43>   H                    : 4.009754             3.136969             -5.411769
| 44>   H                    : 3.960779             3.980982             -7.247778
| 45>   H                    : 3.434063             2.453098             -7.943087
| 46>   H                    : 2.231694             3.476196             -7.282018
| 47> *
| 48>
| 49> #Run DFT-D3 single point of the particle with dimer basis set
| 50> $new_job
| 51> %base "17-77_DFT_B"
| 52> ! wB97X-D3 def2-TZVP TIGHTSCF CHELPG PMODEL
| 53>
| 54> %scf
| 55> MaxIter 1000
| 56> end
| 57>
| 58> * xyz 0 1
| 59>   C                    : -1.143472            3.251015             -8.383428
| 60>   O                    : -1.942154            2.903486             -9.464382
| 61>   H                    : -1.698939            3.509440             -10.183064
| 62>   H                    : -1.426148            2.504044             -7.571571
| 63>   H                    : -0.084644            3.152513             -8.594473
| 64>   H                    : -1.392792            4.268874             -8.070492
| 65>   C                      3.270100             3.122538             -7.130253
| 66>   O                      3.381538             2.572077             -5.852959
| 67>   H                      4.009754             3.136969             -5.411769
| 68>   H                      3.960779             3.980982             -7.247778
| 69>   H                      3.434063             2.453098             -7.943087
| 70>   H                      2.231694             3.476196             -7.282018
| 71> *
| 72>
| 73>                          ****END OF INPUT****
 Total Charge           Charge          ....    0
 Multiplicity           Mult            ....    1
 Number of Electrons    NEL             ....   36
Dispersion correction           -0.000979214
FINAL SINGLE POINT ENERGY      -231.467372746776
Dispersion correction           -0.000216689
FINAL SINGLE POINT ENERGY      -115.734444188018

CARTESIAN COORDINATES (ANGSTROEM)
---------------------------------
  C     -1.143472    3.251015   -8.383428
  O     -1.942154    2.903486   -9.464382
  H     -1.698939    3.509440  -10.183064
  H     -1.426148    2.504044   -7.571571
  H     -0.084644    3.152513   -8.594473
  H     -1.392792    4.268874   -8.070492
  C      3.270100    3.122538   -7.130253
  O      3.381538    2.572077   -5.852959
  H      4.009754    3.136969   -5.411769
  H      3.960779    3.980982   -7.247778
  H      3.434063    2.453098   -7.943087
  H      2.231694    3.476196   -7.282018

 Multiplicity           Mult            ....    1
 Number of Electrons    NEL             ....   18
 Basis Dimension        Dim             ....  172

ORBITAL ENERGIES
----------------

  NO   OCC          E(Eh)            E(eV)
   0   2.0000     -19.231048      -523.3034
   1   2.0000     -10.311493      -280.5900
   2   2.0000      -1.146803       -31.2061
   3   2.0000      -0.794250       -21.6126
   4   2.0000      -0.616379       -16.7725
   5   2.0000      -0.541479       -14.7344
   6   2.0000      -0.533754       -14.5242
   7   2.0000      -0.436866       -11.8877
   8   2.0000      -0.371666       -10.1136
   9   0.0000       0.087255         2.3743
  10   0.0000       0.113320         3.0836
  11   0.0000       0.152606         4.1526
  12   0.0000       0.168901         4.5960
  13   0.0000       0.193273         5.2592

MULLIKEN ATOMIC CHARGES
-----------------------
   0 C :    0.000322
   1 O :    0.000029
   2 H :    0.000008
   3 H :   -0.000118
   4 H :    0.000018
   5 H :   -0.000142
   6 C :   -0.168559
   7 O :   -0.457917
   8 H :    0.317368
   9 H :    0.096824
  10 H :    0.110362
  11 H :    0.101804
Sum of atomic charges:   -0.0000000

LOEWDIN ATOMIC CHARGES
----------------------
   0 C :   -0.001350
   1 O :   -0.000013
   2 H :   -0.000001
   3 H :   -0.000033
   4 H :   -0.002292
   5 H :   -0.000052
   6 C :   -0.400381
   7 O :   -0.059452
   8 H :    0.170093
   9 H :    0.098580
  10 H :    0.092972
  11 H :    0.101929

  Mayer bond orders larger than 0.1
B(  6-C ,  7-O ) :   1.0167 B(  6-C ,  9-H ) :   0.9915 B(  6-C , 10-H ) :   0.9719
B(  6-C , 11-H ) :   0.9768 B(  7-O ,  8-H ) :   0.9028

Dispersion correction           -0.000234687
FINAL SINGLE POINT ENERGY      -115.732596789488

DIPOLE MOMENT
-------------
                                X             Y             Z
Electronic contribution:      0.12446      -0.91686       1.66011
Nuclear contribution   :      0.24765       1.48399      -1.86231
                        -----------------------------------------
Total Dipole Moment    :      0.37211       0.56713      -0.20220
                        -----------------------------------------
Magnitude (a.u.)       :      0.70780
Magnitude (Debye)      :      1.79909

Rotational constants in cm-1:     4.325330     0.854883     0.815949
Rotational constants in MHz : 129670.119480 25628.742871 24461.537000

                             ****ORCA TERMINATED NORMALLY****
TOTAL RUN TIME: 0 days 0 hours 1 minutes 10 seconds 257 msec
