                         Program Version 4.1.2  - RELEASE  -
|  1> #Run DFT-D3 single point of the dimer
|  2> ! wB97X-D3 def2-TZVP TIGHTSCF CHELPG PMODEL PAL8
|  3>
|  4> %base "17-109_DFT_AB"
|  5>
|  6> %scf
|  7> MaxIter 1000
|  8> end
|  9>
| 10> * xyz 0 1
| 11>   C                      3.179179             -10.939931           3.485136
| 12>   O                      3.246952             -11.712566           2.378431
| 13>   H                      4.017949             -11.518141           1.825070
| 14>   H                      3.999599             -11.078683           4.177273
| 15>   H                      3.185205             -9.884947            3.229160
| 16>   H                      2.258283             -11.102446           4.065731
| 17>   C                      1.902938             -10.183330           -0.242659
| 18>   O                      1.823261             -10.422519           -1.562865
| 19>   H                      2.198276             -9.705915            -2.126604
| 20>   H                      1.611273             -9.195077            -0.089689
| 21>   H                      1.299524             -10.887221           0.445559
| 22>   H                      2.936813             -10.214701           0.098518
| 23> *
| 24>
| 25> #Run DFT-D3 single point of the molecule with dimer basis set
| 26> $new_job
| 27> %base "17-109_DFT_A"
| 28> ! wB97X-D3 def2-TZVP TIGHTSCF CHELPG PMODEL
| 29>
| 30> %scf
| 31> MaxIter 1000
| 32> end
| 33>
| 34> * xyz 0 1
| 35>   C                      3.179179             -10.939931           3.485136
| 36>   O                      3.246952             -11.712566           2.378431
| 37>   H                      4.017949             -11.518141           1.825070
| 38>   H                      3.999599             -11.078683           4.177273
| 39>   H                      3.185205             -9.884947            3.229160
| 40>   H                      2.258283             -11.102446           4.065731
| 41>   C                    : 1.902938             -10.183330           -0.242659
| 42>   O                    : 1.823261             -10.422519           -1.562865
| 43>   H                    : 2.198276             -9.705915            -2.126604
| 44>   H                    : 1.611273             -9.195077            -0.089689
| 45>   H                    : 1.299524             -10.887221           0.445559
| 46>   H                    : 2.936813             -10.214701           0.098518
| 47> *
| 48>
| 49> #Run DFT-D3 single point of the particle with dimer basis set
| 50> $new_job
| 51> %base "17-109_DFT_B"
| 52> ! wB97X-D3 def2-TZVP TIGHTSCF CHELPG PMODEL
| 53>
| 54> %scf
| 55> MaxIter 1000
| 56> end
| 57>
| 58> * xyz 0 1
| 59>   C                    : 3.179179             -10.939931           3.485136
| 60>   O                    : 3.246952             -11.712566           2.378431
| 61>   H                    : 4.017949             -11.518141           1.825070
| 62>   H                    : 3.999599             -11.078683           4.177273
| 63>   H                    : 3.185205             -9.884947            3.229160
| 64>   H                    : 2.258283             -11.102446           4.065731
| 65>   C                      1.902938             -10.183330           -0.242659
| 66>   O                      1.823261             -10.422519           -1.562865
| 67>   H                      2.198276             -9.705915            -2.126604
| 68>   H                      1.611273             -9.195077            -0.089689
| 69>   H                      1.299524             -10.887221           0.445559
| 70>   H                      2.936813             -10.214701           0.098518
| 71> *
| 72>
| 73>                          ****END OF INPUT****
 Total Charge           Charge          ....    0
 Multiplicity           Mult            ....    1
 Number of Electrons    NEL             ....   36
Dispersion correction           -0.001765417
FINAL SINGLE POINT ENERGY      -231.458439489132
Dispersion correction           -0.000227750
FINAL SINGLE POINT ENERGY      -115.733982175033

CARTESIAN COORDINATES (ANGSTROEM)
---------------------------------
  C      3.179179  -10.939931    3.485136
  O      3.246952  -11.712566    2.378431
  H      4.017949  -11.518141    1.825070
  H      3.999599  -11.078683    4.177273
  H      3.185205   -9.884947    3.229160
  H      2.258283  -11.102446    4.065731
  C      1.902938  -10.183330   -0.242659
  O      1.823261  -10.422519   -1.562865
  H      2.198276   -9.705915   -2.126604
  H      1.611273   -9.195077   -0.089689
  H      1.299524  -10.887221    0.445559
  H      2.936813  -10.214701    0.098518

 Multiplicity           Mult            ....    1
 Number of Electrons    NEL             ....   18
 Basis Dimension        Dim             ....  172

ORBITAL ENERGIES
----------------

  NO   OCC          E(Eh)            E(eV)
   0   2.0000     -19.227674      -523.2116
   1   2.0000     -10.306844      -280.4635
   2   2.0000      -1.151324       -31.3291
   3   2.0000      -0.791878       -21.5481
   4   2.0000      -0.625675       -17.0255
   5   2.0000      -0.549860       -14.9624
   6   2.0000      -0.535605       -14.5746
   7   2.0000      -0.418368       -11.3844
   8   2.0000      -0.363951        -9.9036
   9   0.0000       0.084786         2.3071
  10   0.0000       0.111910         3.0452
  11   0.0000       0.155295         4.2258
  12   0.0000       0.166791         4.5386
  13   0.0000       0.182866         4.9760

MULLIKEN ATOMIC CHARGES
-----------------------
   0 C :    0.000016
   1 O :   -0.001933
   2 H :   -0.000265
   3 H :    0.000038
   4 H :   -0.000230
   5 H :    0.000014
   6 C :   -0.133868
   7 O :   -0.476199
   8 H :    0.325085
   9 H :    0.092181
  10 H :    0.108411
  11 H :    0.086751
Sum of atomic charges:    0.0000000

LOEWDIN ATOMIC CHARGES
----------------------
   0 C :   -0.001880
   1 O :   -0.004068
   2 H :   -0.004835
   3 H :   -0.000013
   4 H :   -0.000389
   5 H :   -0.000051
   6 C :   -0.437010
   7 O :   -0.037780
   8 H :    0.191082
   9 H :    0.081914
  10 H :    0.120756
  11 H :    0.092275

  Mayer bond orders larger than 0.1
B(  6-C ,  7-O ) :   1.0002 B(  6-C ,  9-H ) :   0.9895 B(  6-C , 10-H ) :   0.9637
B(  6-C , 11-H ) :   0.9796 B(  7-O ,  8-H ) :   0.8817

Dispersion correction           -0.000216557
FINAL SINGLE POINT ENERGY      -115.724003237094

DIPOLE MOMENT
-------------
                                X             Y             Z
Electronic contribution:     -0.23744      -0.46143      -1.78208
Nuclear contribution   :      0.50455       1.04510       1.88894
                        -----------------------------------------
Total Dipole Moment    :      0.26711       0.58367       0.10686
                        -----------------------------------------
Magnitude (a.u.)       :      0.65072
Magnitude (Debye)      :      1.65400

Rotational constants in cm-1:     4.408503     0.894292     0.851184
Rotational constants in MHz : 132163.602234 26810.190502 25517.855895

                             ****ORCA TERMINATED NORMALLY****
TOTAL RUN TIME: 0 days 0 hours 1 minutes 6 seconds 439 msec
