                         Program Version 4.1.2  - RELEASE  -
|  1> #Run DFT-D3 single point of the dimer
|  2> ! wB97X-D3 def2-TZVP TIGHTSCF CHELPG PMODEL PAL8
|  3>
|  4> %base "6-117_DFT_AB"
|  5>
|  6> %scf
|  7> MaxIter 1000
|  8> end
|  9>
| 10> * xyz 0 1
| 11>   C                      6.494887             -9.319664            0.599304
| 12>   O                      6.530466             -9.264981            2.010500
| 13>   H                      6.957669             -10.100235           2.248466
| 14>   H                      5.656828             -9.905448            0.193507
| 15>   H                      6.395575             -8.342034            0.169458
| 16>   H                      7.472226             -9.620610            0.188917
| 17>   C                      11.076517            -8.554531            -1.744906
| 18>   O                      10.153964            -8.303741            -0.696655
| 19>   H                      9.337637             -8.741784            -1.011059
| 20>   H                      11.747606            -7.739471            -1.922216
| 21>   H                      11.732640            -9.399940            -1.543926
| 22>   H                      10.655528            -8.805024            -2.715409
| 23> *
| 24>
| 25> #Run DFT-D3 single point of the molecule with dimer basis set
| 26> $new_job
| 27> %base "6-117_DFT_A"
| 28> ! wB97X-D3 def2-TZVP TIGHTSCF CHELPG PMODEL
| 29>
| 30> %scf
| 31> MaxIter 1000
| 32> end
| 33>
| 34> * xyz 0 1
| 35>   C                      6.494887             -9.319664            0.599304
| 36>   O                      6.530466             -9.264981            2.010500
| 37>   H                      6.957669             -10.100235           2.248466
| 38>   H                      5.656828             -9.905448            0.193507
| 39>   H                      6.395575             -8.342034            0.169458
| 40>   H                      7.472226             -9.620610            0.188917
| 41>   C                    : 11.076517            -8.554531            -1.744906
| 42>   O                    : 10.153964            -8.303741            -0.696655
| 43>   H                    : 9.337637             -8.741784            -1.011059
| 44>   H                    : 11.747606            -7.739471            -1.922216
| 45>   H                    : 11.732640            -9.399940            -1.543926
| 46>   H                    : 10.655528            -8.805024            -2.715409
| 47> *
| 48>
| 49> #Run DFT-D3 single point of the particle with dimer basis set
| 50> $new_job
| 51> %base "6-117_DFT_B"
| 52> ! wB97X-D3 def2-TZVP TIGHTSCF CHELPG PMODEL
| 53>
| 54> %scf
| 55> MaxIter 1000
| 56> end
| 57>
| 58> * xyz 0 1
| 59>   C                    : 6.494887             -9.319664            0.599304
| 60>   O                    : 6.530466             -9.264981            2.010500
| 61>   H                    : 6.957669             -10.100235           2.248466
| 62>   H                    : 5.656828             -9.905448            0.193507
| 63>   H                    : 6.395575             -8.342034            0.169458
| 64>   H                    : 7.472226             -9.620610            0.188917
| 65>   C                      11.076517            -8.554531            -1.744906
| 66>   O                      10.153964            -8.303741            -0.696655
| 67>   H                      9.337637             -8.741784            -1.011059
| 68>   H                      11.747606            -7.739471            -1.922216
| 69>   H                      11.732640            -9.399940            -1.543926
| 70>   H                      10.655528            -8.805024            -2.715409
| 71> *
| 72>
| 73>                          ****END OF INPUT****
 Total Charge           Charge          ....    0
 Multiplicity           Mult            ....    1
 Number of Electrons    NEL             ....   36
Dispersion correction           -0.001164826
FINAL SINGLE POINT ENERGY      -231.466143162203
Dispersion correction           -0.000238372
FINAL SINGLE POINT ENERGY      -115.733754994483

CARTESIAN COORDINATES (ANGSTROEM)
---------------------------------
  C      6.494887   -9.319664    0.599304
  O      6.530466   -9.264981    2.010500
  H      6.957669  -10.100235    2.248466
  H      5.656828   -9.905448    0.193507
  H      6.395575   -8.342034    0.169458
  H      7.472226   -9.620610    0.188917
  C     11.076517   -8.554531   -1.744906
  O     10.153964   -8.303741   -0.696655
  H      9.337637   -8.741784   -1.011059
  H     11.747606   -7.739471   -1.922216
  H     11.732640   -9.399940   -1.543926
  H     10.655528   -8.805024   -2.715409

 Multiplicity           Mult            ....    1
 Number of Electrons    NEL             ....   18
 Basis Dimension        Dim             ....  172

ORBITAL ENERGIES
----------------

  NO   OCC          E(Eh)            E(eV)
   0   2.0000     -19.237790      -523.4869
   1   2.0000     -10.309351      -280.5317
   2   2.0000      -1.136332       -30.9212
   3   2.0000      -0.798558       -21.7299
   4   2.0000      -0.612523       -16.6676
   5   2.0000      -0.535585       -14.5740
   6   2.0000      -0.528714       -14.3870
   7   2.0000      -0.443231       -12.0609
   8   2.0000      -0.374908       -10.2018
   9   0.0000       0.080510         2.1908
  10   0.0000       0.121674         3.3109
  11   0.0000       0.149849         4.0776
  12   0.0000       0.171677         4.6716
  13   0.0000       0.197844         5.3836

MULLIKEN ATOMIC CHARGES
-----------------------
   0 C :    0.001618
   1 O :   -0.000016
   2 H :   -0.000039
   3 H :    0.000000
   4 H :   -0.000230
   5 H :   -0.004713
   6 C :   -0.184460
   7 O :   -0.460777
   8 H :    0.321861
   9 H :    0.119226
  10 H :    0.102030
  11 H :    0.105501
Sum of atomic charges:   -0.0000000

LOEWDIN ATOMIC CHARGES
----------------------
   0 C :   -0.001451
   1 O :   -0.000017
   2 H :   -0.000010
   3 H :   -0.000009
   4 H :   -0.000242
   5 H :   -0.003414
   6 C :   -0.390132
   7 O :   -0.080610
   8 H :    0.185798
   9 H :    0.099720
  10 H :    0.095165
  11 H :    0.095203

  Mayer bond orders larger than 0.1
B(  6-C ,  7-O ) :   1.0176 B(  6-C ,  9-H ) :   0.9766 B(  6-C , 10-H ) :   0.9746
B(  6-C , 11-H ) :   0.9826 B(  7-O ,  8-H ) :   0.8948

Dispersion correction           -0.000252381
FINAL SINGLE POINT ENERGY      -115.732660984897

DIPOLE MOMENT
-------------
                                X             Y             Z
Electronic contribution:     -1.18707       0.48705       1.50864
Nuclear contribution   :      1.03933      -0.85174      -2.13100
                        -----------------------------------------
Total Dipole Moment    :     -0.14774      -0.36470      -0.62236
                        -----------------------------------------
Magnitude (a.u.)       :      0.73632
Magnitude (Debye)      :      1.87157

Rotational constants in cm-1:     4.458438     0.822324     0.788458
Rotational constants in MHz : 133660.613797 24652.653475 23637.372235

                             ****ORCA TERMINATED NORMALLY****
TOTAL RUN TIME: 0 days 0 hours 0 minutes 58 seconds 223 msec
