                         Program Version 4.1.2  - RELEASE  -
|  1> #Run DFT-D3 single point of the dimer
|  2> ! wB97X-D3 def2-TZVP TIGHTSCF CHELPG PMODEL PAL8
|  3>
|  4> %base "15-7_DFT_AB"
|  5>
|  6> %scf
|  7> MaxIter 1000
|  8> end
|  9>
| 10> * xyz 0 1
| 11>   C                      -6.481891            -7.877271            7.250222
| 12>   O                      -6.198547            -6.565036            6.837370
| 13>   H                      -6.806889            -6.005382            7.336781
| 14>   H                      -7.552956            -8.073217            7.112625
| 15>   H                      -5.784904            -8.580147            6.772301
| 16>   H                      -6.373916            -7.930089            8.316778
| 17>   C                      -10.115336           -9.962653            7.892501
| 18>   O                      -10.550402           -10.249533           6.554550
| 19>   H                      -11.498959           -10.343096           6.567028
| 20>   H                      -10.584167           -9.103896            8.312980
| 21>   H                      -10.367627           -10.756341           8.635410
| 22>   H                      -9.030777            -9.871222            7.854316
| 23> *
| 24>
| 25> #Run DFT-D3 single point of the molecule with dimer basis set
| 26> $new_job
| 27> %base "15-7_DFT_A"
| 28> ! wB97X-D3 def2-TZVP TIGHTSCF CHELPG PMODEL
| 29>
| 30> %scf
| 31> MaxIter 1000
| 32> end
| 33>
| 34> * xyz 0 1
| 35>   C                      -6.481891            -7.877271            7.250222
| 36>   O                      -6.198547            -6.565036            6.837370
| 37>   H                      -6.806889            -6.005382            7.336781
| 38>   H                      -7.552956            -8.073217            7.112625
| 39>   H                      -5.784904            -8.580147            6.772301
| 40>   H                      -6.373916            -7.930089            8.316778
| 41>   C                    : -10.115336           -9.962653            7.892501
| 42>   O                    : -10.550402           -10.249533           6.554550
| 43>   H                    : -11.498959           -10.343096           6.567028
| 44>   H                    : -10.584167           -9.103896            8.312980
| 45>   H                    : -10.367627           -10.756341           8.635410
| 46>   H                    : -9.030777            -9.871222            7.854316
| 47> *
| 48>
| 49> #Run DFT-D3 single point of the particle with dimer basis set
| 50> $new_job
| 51> %base "15-7_DFT_B"
| 52> ! wB97X-D3 def2-TZVP TIGHTSCF CHELPG PMODEL
| 53>
| 54> %scf
| 55> MaxIter 1000
| 56> end
| 57>
| 58> * xyz 0 1
| 59>   C                    : -6.481891            -7.877271            7.250222
| 60>   O                    : -6.198547            -6.565036            6.837370
| 61>   H                    : -6.806889            -6.005382            7.336781
| 62>   H                    : -7.552956            -8.073217            7.112625
| 63>   H                    : -5.784904            -8.580147            6.772301
| 64>   H                    : -6.373916            -7.930089            8.316778
| 65>   C                      -10.115336           -9.962653            7.892501
| 66>   O                      -10.550402           -10.249533           6.554550
| 67>   H                      -11.498959           -10.343096           6.567028
| 68>   H                      -10.584167           -9.103896            8.312980
| 69>   H                      -10.367627           -10.756341           8.635410
| 70>   H                      -9.030777            -9.871222            7.854316
| 71> *
| 72>
| 73>                          ****END OF INPUT****
 Total Charge           Charge          ....    0
 Multiplicity           Mult            ....    1
 Number of Electrons    NEL             ....   36
Dispersion correction           -0.001188275
FINAL SINGLE POINT ENERGY      -231.468473887722
Dispersion correction           -0.000206335
FINAL SINGLE POINT ENERGY      -115.733122385791

CARTESIAN COORDINATES (ANGSTROEM)
---------------------------------
  C     -6.481891   -7.877271    7.250222
  O     -6.198547   -6.565036    6.837370
  H     -6.806889   -6.005382    7.336781
  H     -7.552956   -8.073217    7.112625
  H     -5.784904   -8.580147    6.772301
  H     -6.373916   -7.930089    8.316778
  C    -10.115336   -9.962653    7.892501
  O    -10.550402  -10.249533    6.554550
  H    -11.498959  -10.343096    6.567028
  H    -10.584167   -9.103896    8.312980
  H    -10.367627  -10.756341    8.635410
  H     -9.030777   -9.871222    7.854316

 Multiplicity           Mult            ....    1
 Number of Electrons    NEL             ....   18
 Basis Dimension        Dim             ....  172

ORBITAL ENERGIES
----------------

  NO   OCC          E(Eh)            E(eV)
   0   2.0000     -19.230446      -523.2870
   1   2.0000     -10.313512      -280.6449
   2   2.0000      -1.131188       -30.7812
   3   2.0000      -0.798522       -21.7289
   4   2.0000      -0.613779       -16.7018
   5   2.0000      -0.533262       -14.5108
   6   2.0000      -0.522083       -14.2066
   7   2.0000      -0.442543       -12.0422
   8   2.0000      -0.373535       -10.1644
   9   0.0000       0.088264         2.4018
  10   0.0000       0.118253         3.2178
  11   0.0000       0.153358         4.1731
  12   0.0000       0.165997         4.5170
  13   0.0000       0.196931         5.3588

MULLIKEN ATOMIC CHARGES
-----------------------
   0 C :   -0.001991
   1 O :    0.000023
   2 H :    0.000006
   3 H :    0.002645
   4 H :   -0.000101
   5 H :    0.000121
   6 C :   -0.174008
   7 O :   -0.473646
   8 H :    0.309687
   9 H :    0.106065
  10 H :    0.102759
  11 H :    0.128439
Sum of atomic charges:    0.0000000

LOEWDIN ATOMIC CHARGES
----------------------
   0 C :   -0.002222
   1 O :   -0.000012
   2 H :   -0.000003
   3 H :   -0.002733
   4 H :   -0.000039
   5 H :   -0.000159
   6 C :   -0.367783
   7 O :   -0.086115
   8 H :    0.161158
   9 H :    0.088668
  10 H :    0.097973
  11 H :    0.111267

  Mayer bond orders larger than 0.1
B(  6-C ,  7-O ) :   0.9987 B(  6-C ,  9-H ) :   0.9737 B(  6-C , 10-H ) :   0.9719
B(  6-C , 11-H ) :   0.9755 B(  7-O ,  8-H ) :   0.9042

Dispersion correction           -0.000251635
FINAL SINGLE POINT ENERGY      -115.735066391175

DIPOLE MOMENT
-------------
                                X             Y             Z
Electronic contribution:     -0.40513      -0.28363      -1.77935
Nuclear contribution   :     -0.02421       0.35187       2.33296
                        -----------------------------------------
Total Dipole Moment    :     -0.42934       0.06824       0.55361
                        -----------------------------------------
Magnitude (a.u.)       :      0.70390
Magnitude (Debye)      :      1.78916

Rotational constants in cm-1:     4.353100     0.813645     0.777333
Rotational constants in MHz : 130502.657221 24392.465686 23303.850552

                             ****ORCA TERMINATED NORMALLY****
TOTAL RUN TIME: 0 days 0 hours 1 minutes 0 seconds 437 msec
