                         Program Version 4.1.2  - RELEASE  -
|  1> #Run DFT-D3 single point of the dimer
|  2> ! wB97X-D3 def2-TZVP TIGHTSCF CHELPG PMODEL PAL8
|  3>
|  4> %base "18-169_DFT_AB"
|  5>
|  6> %scf
|  7> MaxIter 1000
|  8> end
|  9>
| 10> * xyz 0 1
| 11>   C                      1.563923             4.822854             -2.055716
| 12>   O                      1.026069             5.666654             -3.070397
| 13>   H                      1.205890             5.204161             -3.879448
| 14>   H                      1.124852             3.829493             -2.152610
| 15>   H                      2.630486             4.837886             -2.065390
| 16>   H                      1.210527             5.130865             -1.082344
| 17>   C                      -0.737842            8.074966             -4.224974
| 18>   O                      -0.837398            7.776012             -2.862114
| 19>   H                      -0.171429            7.075582             -2.764346
| 20>   H                      0.352102             8.046983             -4.530430
| 21>   H                      -1.171739            7.360708             -4.842329
| 22>   H                      -1.044718            8.953931             -4.647239
| 23> *
| 24>
| 25> #Run DFT-D3 single point of the molecule with dimer basis set
| 26> $new_job
| 27> %base "18-169_DFT_A"
| 28> ! wB97X-D3 def2-TZVP TIGHTSCF CHELPG PMODEL
| 29>
| 30> %scf
| 31> MaxIter 1000
| 32> end
| 33>
| 34> * xyz 0 1
| 35>   C                      1.563923             4.822854             -2.055716
| 36>   O                      1.026069             5.666654             -3.070397
| 37>   H                      1.205890             5.204161             -3.879448
| 38>   H                      1.124852             3.829493             -2.152610
| 39>   H                      2.630486             4.837886             -2.065390
| 40>   H                      1.210527             5.130865             -1.082344
| 41>   C                    : -0.737842            8.074966             -4.224974
| 42>   O                    : -0.837398            7.776012             -2.862114
| 43>   H                    : -0.171429            7.075582             -2.764346
| 44>   H                    : 0.352102             8.046983             -4.530430
| 45>   H                    : -1.171739            7.360708             -4.842329
| 46>   H                    : -1.044718            8.953931             -4.647239
| 47> *
| 48>
| 49> #Run DFT-D3 single point of the particle with dimer basis set
| 50> $new_job
| 51> %base "18-169_DFT_B"
| 52> ! wB97X-D3 def2-TZVP TIGHTSCF CHELPG PMODEL
| 53>
| 54> %scf
| 55> MaxIter 1000
| 56> end
| 57>
| 58> * xyz 0 1
| 59>   C                    : 1.563923             4.822854             -2.055716
| 60>   O                    : 1.026069             5.666654             -3.070397
| 61>   H                    : 1.205890             5.204161             -3.879448
| 62>   H                    : 1.124852             3.829493             -2.152610
| 63>   H                    : 2.630486             4.837886             -2.065390
| 64>   H                    : 1.210527             5.130865             -1.082344
| 65>   C                      -0.737842            8.074966             -4.224974
| 66>   O                      -0.837398            7.776012             -2.862114
| 67>   H                      -0.171429            7.075582             -2.764346
| 68>   H                      0.352102             8.046983             -4.530430
| 69>   H                      -1.171739            7.360708             -4.842329
| 70>   H                      -1.044718            8.953931             -4.647239
| 71> *
| 72>
| 73>                          ****END OF INPUT****
 Total Charge           Charge          ....    0
 Multiplicity           Mult            ....    1
 Number of Electrons    NEL             ....   36
Dispersion correction           -0.001831378
FINAL SINGLE POINT ENERGY      -231.464304496527
Dispersion correction           -0.000222537
FINAL SINGLE POINT ENERGY      -115.734982491768

CARTESIAN COORDINATES (ANGSTROEM)
---------------------------------
  C      1.563923    4.822854   -2.055716
  O      1.026069    5.666654   -3.070397
  H      1.205890    5.204161   -3.879448
  H      1.124852    3.829493   -2.152610
  H      2.630486    4.837886   -2.065390
  H      1.210527    5.130865   -1.082344
  C     -0.737842    8.074966   -4.224974
  O     -0.837398    7.776012   -2.862114
  H     -0.171429    7.075582   -2.764346
  H      0.352102    8.046983   -4.530430
  H     -1.171739    7.360708   -4.842329
  H     -1.044718    8.953931   -4.647239

 Multiplicity           Mult            ....    1
 Number of Electrons    NEL             ....   18
 Basis Dimension        Dim             ....  172

ORBITAL ENERGIES
----------------

  NO   OCC          E(Eh)            E(eV)
   0   2.0000     -19.236482      -523.4513
   1   2.0000     -10.303206      -280.3645
   2   2.0000      -1.144760       -31.1505
   3   2.0000      -0.805345       -21.9146
   4   2.0000      -0.614188       -16.7129
   5   2.0000      -0.546727       -14.8772
   6   2.0000      -0.540706       -14.7134
   7   2.0000      -0.433363       -11.7924
   8   2.0000      -0.374196       -10.1824
   9   0.0000       0.067194         1.8284
  10   0.0000       0.127621         3.4728
  11   0.0000       0.148414         4.0385
  12   0.0000       0.173769         4.7285
  13   0.0000       0.189339         5.1522

MULLIKEN ATOMIC CHARGES
-----------------------
   0 C :   -0.002733
   1 O :   -0.004520
   2 H :    0.000190
   3 H :    0.000171
   4 H :    0.000063
   5 H :    0.000005
   6 C :   -0.178938
   7 O :   -0.460709
   8 H :    0.325873
   9 H :    0.090461
  10 H :    0.104357
  11 H :    0.125781
Sum of atomic charges:   -0.0000000

LOEWDIN ATOMIC CHARGES
----------------------
   0 C :   -0.003177
   1 O :   -0.023314
   2 H :   -0.001383
   3 H :   -0.000060
   4 H :   -0.000067
   5 H :   -0.000343
   6 C :   -0.393467
   7 O :   -0.054377
   8 H :    0.196017
   9 H :    0.104683
  10 H :    0.085165
  11 H :    0.090323

  Mayer bond orders larger than 0.1
B(  6-C ,  7-O ) :   0.9965 B(  6-C ,  9-H ) :   0.9954 B(  6-C , 10-H ) :   0.9787
B(  6-C , 11-H ) :   0.9730 B(  7-O ,  8-H ) :   0.9028

Dispersion correction           -0.000218873
FINAL SINGLE POINT ENERGY      -115.720163383794

DIPOLE MOMENT
-------------
                                X             Y             Z
Electronic contribution:     -0.50491      -0.15759       1.97197
Nuclear contribution   :      0.93627      -0.14913      -2.44889
                        -----------------------------------------
Total Dipole Moment    :      0.43137      -0.30671      -0.47692
                        -----------------------------------------
Magnitude (a.u.)       :      0.71246
Magnitude (Debye)      :      1.81093

Rotational constants in cm-1:     4.660019     0.843276     0.809886
Rotational constants in MHz : 139703.867612 25280.774437 24279.765195

                             ****ORCA TERMINATED NORMALLY****
TOTAL RUN TIME: 0 days 0 hours 1 minutes 6 seconds 597 msec
