                         Program Version 4.1.2  - RELEASE  -
|  1> #Run DFT-D3 single point of the dimer
|  2> ! wB97X-D3 def2-TZVP TIGHTSCF CHELPG PMODEL PAL8
|  3>
|  4> %base "20-160_DFT_AB"
|  5>
|  6> %scf
|  7> MaxIter 1000
|  8> end
|  9>
| 10> * xyz 0 1
| 11>   C                      2.228465             3.519173             4.443829
| 12>   O                      3.320479             2.858309             5.078403
| 13>   H                      4.130458             3.343269             4.846252
| 14>   H                      2.522161             3.844523             3.450730
| 15>   H                      1.422132             2.903265             4.368014
| 16>   H                      1.893552             4.378098             4.980760
| 17>   C                      5.534605             2.185884             8.156706
| 18>   O                      5.318715             1.865475             6.790076
| 19>   H                      4.667424             2.424962             6.448115
| 20>   H                      6.493913             1.733654             8.537385
| 21>   H                      5.628464             3.268883             8.368282
| 22>   H                      4.732055             1.903321             8.799930
| 23> *
| 24>
| 25> #Run DFT-D3 single point of the molecule with dimer basis set
| 26> $new_job
| 27> %base "20-160_DFT_A"
| 28> ! wB97X-D3 def2-TZVP TIGHTSCF CHELPG PMODEL
| 29>
| 30> %scf
| 31> MaxIter 1000
| 32> end
| 33>
| 34> * xyz 0 1
| 35>   C                      2.228465             3.519173             4.443829
| 36>   O                      3.320479             2.858309             5.078403
| 37>   H                      4.130458             3.343269             4.846252
| 38>   H                      2.522161             3.844523             3.450730
| 39>   H                      1.422132             2.903265             4.368014
| 40>   H                      1.893552             4.378098             4.980760
| 41>   C                    : 5.534605             2.185884             8.156706
| 42>   O                    : 5.318715             1.865475             6.790076
| 43>   H                    : 4.667424             2.424962             6.448115
| 44>   H                    : 6.493913             1.733654             8.537385
| 45>   H                    : 5.628464             3.268883             8.368282
| 46>   H                    : 4.732055             1.903321             8.799930
| 47> *
| 48>
| 49> #Run DFT-D3 single point of the particle with dimer basis set
| 50> $new_job
| 51> %base "20-160_DFT_B"
| 52> ! wB97X-D3 def2-TZVP TIGHTSCF CHELPG PMODEL
| 53>
| 54> %scf
| 55> MaxIter 1000
| 56> end
| 57>
| 58> * xyz 0 1
| 59>   C                    : 2.228465             3.519173             4.443829
| 60>   O                    : 3.320479             2.858309             5.078403
| 61>   H                    : 4.130458             3.343269             4.846252
| 62>   H                    : 2.522161             3.844523             3.450730
| 63>   H                    : 1.422132             2.903265             4.368014
| 64>   H                    : 1.893552             4.378098             4.980760
| 65>   C                      5.534605             2.185884             8.156706
| 66>   O                      5.318715             1.865475             6.790076
| 67>   H                      4.667424             2.424962             6.448115
| 68>   H                      6.493913             1.733654             8.537385
| 69>   H                      5.628464             3.268883             8.368282
| 70>   H                      4.732055             1.903321             8.799930
| 71> *
| 72>
| 73>                          ****END OF INPUT****
 Total Charge           Charge          ....    0
 Multiplicity           Mult            ....    1
 Number of Electrons    NEL             ....   36
Dispersion correction           -0.001359177
FINAL SINGLE POINT ENERGY      -231.467552321941
Dispersion correction           -0.000231367
FINAL SINGLE POINT ENERGY      -115.732227665497

CARTESIAN COORDINATES (ANGSTROEM)
---------------------------------
  C      2.228465    3.519173    4.443829
  O      3.320479    2.858309    5.078403
  H      4.130458    3.343269    4.846252
  H      2.522161    3.844523    3.450730
  H      1.422132    2.903265    4.368014
  H      1.893552    4.378098    4.980760
  C      5.534605    2.185884    8.156706
  O      5.318715    1.865475    6.790076
  H      4.667424    2.424962    6.448115
  H      6.493913    1.733654    8.537385
  H      5.628464    3.268883    8.368282
  H      4.732055    1.903321    8.799930

 Multiplicity           Mult            ....    1
 Number of Electrons    NEL             ....   18
 Basis Dimension        Dim             ....  172

ORBITAL ENERGIES
----------------

  NO   OCC          E(Eh)            E(eV)
   0   2.0000     -19.230440      -523.2869
   1   2.0000     -10.316419      -280.7240
   2   2.0000      -1.142665       -31.0935
   3   2.0000      -0.800161       -21.7735
   4   2.0000      -0.620154       -16.8752
   5   2.0000      -0.537784       -14.6338
   6   2.0000      -0.523739       -14.2517
   7   2.0000      -0.436538       -11.8788
   8   2.0000      -0.376475       -10.2444
   9   0.0000       0.077098         2.0979
  10   0.0000       0.126762         3.4494
  11   0.0000       0.147961         4.0262
  12   0.0000       0.184463         5.0195
  13   0.0000       0.197321         5.3694

MULLIKEN ATOMIC CHARGES
-----------------------
   0 C :   -0.000438
   1 O :   -0.001895
   2 H :   -0.002246
   3 H :   -0.000007
   4 H :   -0.000005
   5 H :    0.000033
   6 C :   -0.173690
   7 O :   -0.459391
   8 H :    0.306575
   9 H :    0.119001
  10 H :    0.101466
  11 H :    0.110595
Sum of atomic charges:   -0.0000000

LOEWDIN ATOMIC CHARGES
----------------------
   0 C :   -0.001006
   1 O :   -0.017751
   2 H :   -0.006506
   3 H :   -0.000022
   4 H :   -0.000037
   5 H :   -0.000031
   6 C :   -0.382588
   7 O :   -0.047168
   8 H :    0.153956
   9 H :    0.116060
  10 H :    0.096712
  11 H :    0.088381

  Mayer bond orders larger than 0.1
B(  6-C ,  7-O ) :   0.9997 B(  6-C ,  9-H ) :   0.9730 B(  6-C , 10-H ) :   0.9776
B(  6-C , 11-H ) :   0.9734 B(  7-O ,  8-H ) :   0.9075

Dispersion correction           -0.000256129
FINAL SINGLE POINT ENERGY      -115.733128547607

DIPOLE MOMENT
-------------
                                X             Y             Z
Electronic contribution:     -0.23526      -0.57962      -1.82568
Nuclear contribution   :     -0.10244       1.07937       2.16285
                        -----------------------------------------
Total Dipole Moment    :     -0.33770       0.49975       0.33717
                        -----------------------------------------
Magnitude (a.u.)       :      0.69100
Magnitude (Debye)      :      1.75638

Rotational constants in cm-1:     4.446190     0.817670     0.784200
Rotational constants in MHz : 133293.432876 24513.115332 23509.739155

                             ****ORCA TERMINATED NORMALLY****
TOTAL RUN TIME: 0 days 0 hours 0 minutes 58 seconds 496 msec
