                         Program Version 4.1.2  - RELEASE  -
|  1> #Run DFT-D3 single point of the dimer
|  2> ! wB97X-D3 def2-TZVP TIGHTSCF CHELPG PMODEL PAL8
|  3>
|  4> %base "12-69_DFT_AB"
|  5>
|  6> %scf
|  7> MaxIter 1000
|  8> end
|  9>
| 10> * xyz 0 1
| 11>   C                      7.095750             3.934989             5.712976
| 12>   O                      8.233398             3.019336             5.783510
| 13>   H                      8.730311             3.165655             4.956165
| 14>   H                      6.340234             3.723684             6.452433
| 15>   H                      7.425371             4.894638             6.015371
| 16>   H                      6.636750             3.988568             4.765022
| 17>   C                      7.069487             6.948817             1.348319
| 18>   O                      6.833436             7.462442             0.067141
| 19>   H                      6.469724             6.786522             -0.512093
| 20>   H                      6.543788             6.020128             1.325691
| 21>   H                      8.106300             6.629288             1.569079
| 22>   H                      6.689718             7.616708             2.082214
| 23> *
| 24>
| 25> #Run DFT-D3 single point of the molecule with dimer basis set
| 26> $new_job
| 27> %base "12-69_DFT_A"
| 28> ! wB97X-D3 def2-TZVP TIGHTSCF CHELPG PMODEL
| 29>
| 30> %scf
| 31> MaxIter 1000
| 32> end
| 33>
| 34> * xyz 0 1
| 35>   C                      7.095750             3.934989             5.712976
| 36>   O                      8.233398             3.019336             5.783510
| 37>   H                      8.730311             3.165655             4.956165
| 38>   H                      6.340234             3.723684             6.452433
| 39>   H                      7.425371             4.894638             6.015371
| 40>   H                      6.636750             3.988568             4.765022
| 41>   C                    : 7.069487             6.948817             1.348319
| 42>   O                    : 6.833436             7.462442             0.067141
| 43>   H                    : 6.469724             6.786522             -0.512093
| 44>   H                    : 6.543788             6.020128             1.325691
| 45>   H                    : 8.106300             6.629288             1.569079
| 46>   H                    : 6.689718             7.616708             2.082214
| 47> *
| 48>
| 49> #Run DFT-D3 single point of the particle with dimer basis set
| 50> $new_job
| 51> %base "12-69_DFT_B"
| 52> ! wB97X-D3 def2-TZVP TIGHTSCF CHELPG PMODEL
| 53>
| 54> %scf
| 55> MaxIter 1000
| 56> end
| 57>
| 58> * xyz 0 1
| 59>   C                    : 7.095750             3.934989             5.712976
| 60>   O                    : 8.233398             3.019336             5.783510
| 61>   H                    : 8.730311             3.165655             4.956165
| 62>   H                    : 6.340234             3.723684             6.452433
| 63>   H                    : 7.425371             4.894638             6.015371
| 64>   H                    : 6.636750             3.988568             4.765022
| 65>   C                      7.069487             6.948817             1.348319
| 66>   O                      6.833436             7.462442             0.067141
| 67>   H                      6.469724             6.786522             -0.512093
| 68>   H                      6.543788             6.020128             1.325691
| 69>   H                      8.106300             6.629288             1.569079
| 70>   H                      6.689718             7.616708             2.082214
| 71> *
| 72>
| 73>                          ****END OF INPUT****
 Total Charge           Charge          ....    0
 Multiplicity           Mult            ....    1
 Number of Electrons    NEL             ....   36
Dispersion correction           -0.000694737
FINAL SINGLE POINT ENERGY      -231.459842294491
Dispersion correction           -0.000247378
FINAL SINGLE POINT ENERGY      -115.730887698702

CARTESIAN COORDINATES (ANGSTROEM)
---------------------------------
  C      7.095750    3.934989    5.712976
  O      8.233398    3.019336    5.783510
  H      8.730311    3.165655    4.956165
  H      6.340234    3.723684    6.452433
  H      7.425371    4.894638    6.015371
  H      6.636750    3.988568    4.765022
  C      7.069487    6.948817    1.348319
  O      6.833436    7.462442    0.067141
  H      6.469724    6.786522   -0.512093
  H      6.543788    6.020128    1.325691
  H      8.106300    6.629288    1.569079
  H      6.689718    7.616708    2.082214

 Multiplicity           Mult            ....    1
 Number of Electrons    NEL             ....   18
 Basis Dimension        Dim             ....  172

ORBITAL ENERGIES
----------------

  NO   OCC          E(Eh)            E(eV)
   0   2.0000     -19.225938      -523.1644
   1   2.0000     -10.307224      -280.4738
   2   2.0000      -1.138107       -30.9695
   3   2.0000      -0.797588       -21.7035
   4   2.0000      -0.616769       -16.7831
   5   2.0000      -0.544687       -14.8217
   6   2.0000      -0.536055       -14.5868
   7   2.0000      -0.423695       -11.5293
   8   2.0000      -0.371501       -10.1091
   9   0.0000       0.082103         2.2341
  10   0.0000       0.111147         3.0245
  11   0.0000       0.149405         4.0655
  12   0.0000       0.161297         4.3891
  13   0.0000       0.185951         5.0600

MULLIKEN ATOMIC CHARGES
-----------------------
   0 C :    0.000112
   1 O :    0.000000
   2 H :   -0.000008
   3 H :   -0.000004
   4 H :   -0.000011
   5 H :   -0.000225
   6 C :   -0.144339
   7 O :   -0.482675
   8 H :    0.319248
   9 H :    0.095243
  10 H :    0.093392
  11 H :    0.119265
Sum of atomic charges:   -0.0000000

LOEWDIN ATOMIC CHARGES
----------------------
   0 C :   -0.000033
   1 O :   -0.000002
   2 H :   -0.000005
   3 H :   -0.000000
   4 H :   -0.000003
   5 H :   -0.000106
   6 C :   -0.385944
   7 O :   -0.073016
   8 H :    0.170136
   9 H :    0.093812
  10 H :    0.097424
  11 H :    0.097737

  Mayer bond orders larger than 0.1
B(  6-C ,  7-O ) :   1.0109 B(  6-C ,  9-H ) :   1.0024 B(  6-C , 10-H ) :   0.9652
B(  6-C , 11-H ) :   0.9744 B(  7-O ,  8-H ) :   0.8983

Dispersion correction           -0.000230809
FINAL SINGLE POINT ENERGY      -115.728946092925

DIPOLE MOMENT
-------------
                                X             Y             Z
Electronic contribution:     -0.23025       0.89808      -1.50203
Nuclear contribution   :      0.05662      -1.56731       1.63020
                        -----------------------------------------
Total Dipole Moment    :     -0.17363      -0.66923       0.12817
                        -----------------------------------------
Magnitude (a.u.)       :      0.70317
Magnitude (Debye)      :      1.78732

Rotational constants in cm-1:     4.416941     0.849236     0.818474
Rotational constants in MHz : 132416.568207 25459.443724 24537.242644

                             ****ORCA TERMINATED NORMALLY****
TOTAL RUN TIME: 0 days 0 hours 0 minutes 56 seconds 107 msec
