                         Program Version 4.1.2  - RELEASE  -
|  1> #Run DFT-D3 single point of the dimer
|  2> ! wB97X-D3 def2-TZVP TIGHTSCF CHELPG PMODEL PAL8
|  3>
|  4> %base "15-74_DFT_AB"
|  5>
|  6> %scf
|  7> MaxIter 1000
|  8> end
|  9>
| 10> * xyz 0 1
| 11>   C                      3.160590             5.904719             1.409526
| 12>   O                      1.952229             6.513314             1.905539
| 13>   H                      2.203480             7.011722             2.707374
| 14>   H                      3.131705             5.037513             0.685736
| 15>   H                      3.800379             6.728786             1.090960
| 16>   H                      3.782874             5.542182             2.299754
| 17>   C                      4.368537             5.393558             -2.809895
| 18>   O                      3.561577             5.915263             -3.882099
| 19>   H                      2.747769             6.147654             -3.483270
| 20>   H                      4.522148             6.098134             -2.062670
| 21>   H                      3.985404             4.497609             -2.348490
| 22>   H                      5.365098             5.152908             -3.121065
| 23> *
| 24>
| 25> #Run DFT-D3 single point of the molecule with dimer basis set
| 26> $new_job
| 27> %base "15-74_DFT_A"
| 28> ! wB97X-D3 def2-TZVP TIGHTSCF CHELPG PMODEL
| 29>
| 30> %scf
| 31> MaxIter 1000
| 32> end
| 33>
| 34> * xyz 0 1
| 35>   C                      3.160590             5.904719             1.409526
| 36>   O                      1.952229             6.513314             1.905539
| 37>   H                      2.203480             7.011722             2.707374
| 38>   H                      3.131705             5.037513             0.685736
| 39>   H                      3.800379             6.728786             1.090960
| 40>   H                      3.782874             5.542182             2.299754
| 41>   C                    : 4.368537             5.393558             -2.809895
| 42>   O                    : 3.561577             5.915263             -3.882099
| 43>   H                    : 2.747769             6.147654             -3.483270
| 44>   H                    : 4.522148             6.098134             -2.062670
| 45>   H                    : 3.985404             4.497609             -2.348490
| 46>   H                    : 5.365098             5.152908             -3.121065
| 47> *
| 48>
| 49> #Run DFT-D3 single point of the particle with dimer basis set
| 50> $new_job
| 51> %base "15-74_DFT_B"
| 52> ! wB97X-D3 def2-TZVP TIGHTSCF CHELPG PMODEL
| 53>
| 54> %scf
| 55> MaxIter 1000
| 56> end
| 57>
| 58> * xyz 0 1
| 59>   C                    : 3.160590             5.904719             1.409526
| 60>   O                    : 1.952229             6.513314             1.905539
| 61>   H                    : 2.203480             7.011722             2.707374
| 62>   H                    : 3.131705             5.037513             0.685736
| 63>   H                    : 3.800379             6.728786             1.090960
| 64>   H                    : 3.782874             5.542182             2.299754
| 65>   C                      4.368537             5.393558             -2.809895
| 66>   O                      3.561577             5.915263             -3.882099
| 67>   H                      2.747769             6.147654             -3.483270
| 68>   H                      4.522148             6.098134             -2.062670
| 69>   H                      3.985404             4.497609             -2.348490
| 70>   H                      5.365098             5.152908             -3.121065
| 71> *
| 72>
| 73>                          ****END OF INPUT****
 Total Charge           Charge          ....    0
 Multiplicity           Mult            ....    1
 Number of Electrons    NEL             ....   36
Dispersion correction           -0.001110611
FINAL SINGLE POINT ENERGY      -231.456130643263
Dispersion correction           -0.000248475
FINAL SINGLE POINT ENERGY      -115.723584877400

CARTESIAN COORDINATES (ANGSTROEM)
---------------------------------
  C      3.160590    5.904719    1.409526
  O      1.952229    6.513314    1.905539
  H      2.203480    7.011722    2.707374
  H      3.131705    5.037513    0.685736
  H      3.800379    6.728786    1.090960
  H      3.782874    5.542182    2.299754
  C      4.368537    5.393558   -2.809895
  O      3.561577    5.915263   -3.882099
  H      2.747769    6.147654   -3.483270
  H      4.522148    6.098134   -2.062670
  H      3.985404    4.497609   -2.348490
  H      5.365098    5.152908   -3.121065

 Multiplicity           Mult            ....    1
 Number of Electrons    NEL             ....   18
 Basis Dimension        Dim             ....  172

ORBITAL ENERGIES
----------------

  NO   OCC          E(Eh)            E(eV)
   0   2.0000     -19.230090      -523.2773
   1   2.0000     -10.305254      -280.4202
   2   2.0000      -1.135349       -30.8944
   3   2.0000      -0.807674       -21.9779
   4   2.0000      -0.610405       -16.6100
   5   2.0000      -0.544980       -14.8297
   6   2.0000      -0.527297       -14.3485
   7   2.0000      -0.439773       -11.9668
   8   2.0000      -0.378721       -10.3055
   9   0.0000       0.079038         2.1507
  10   0.0000       0.119969         3.2645
  11   0.0000       0.143820         3.9135
  12   0.0000       0.175604         4.7784
  13   0.0000       0.178730         4.8635

MULLIKEN ATOMIC CHARGES
-----------------------
   0 C :    0.000685
   1 O :   -0.000030
   2 H :   -0.000004
   3 H :   -0.001071
   4 H :   -0.000415
   5 H :   -0.000026
   6 C :   -0.161816
   7 O :   -0.472541
   8 H :    0.309932
   9 H :    0.110004
  10 H :    0.101460
  11 H :    0.113823
Sum of atomic charges:   -0.0000000

LOEWDIN ATOMIC CHARGES
----------------------
   0 C :   -0.000906
   1 O :   -0.000005
   2 H :   -0.000002
   3 H :   -0.000758
   4 H :   -0.000408
   5 H :   -0.000003
   6 C :   -0.356697
   7 O :   -0.078648
   8 H :    0.152643
   9 H :    0.085319
  10 H :    0.094009
  11 H :    0.105455

  Mayer bond orders larger than 0.1
B(  6-C ,  7-O ) :   0.9984 B(  6-C ,  9-H ) :   0.9805 B(  6-C , 10-H ) :   0.9769
B(  6-C , 11-H ) :   0.9755 B(  7-O ,  8-H ) :   0.9069

Dispersion correction           -0.000239997
FINAL SINGLE POINT ENERGY      -115.731793793928

DIPOLE MOMENT
-------------
                                X             Y             Z
Electronic contribution:     -0.96849       0.65112      -1.47885
Nuclear contribution   :      0.80632      -0.70971       2.18480
                        -----------------------------------------
Total Dipole Moment    :     -0.16216      -0.05858       0.70595
                        -----------------------------------------
Magnitude (a.u.)       :      0.72670
Magnitude (Debye)      :      1.84713

Rotational constants in cm-1:     4.639252     0.806879     0.781336
Rotational constants in MHz : 139081.283893 24189.612219 23423.857840

                             ****ORCA TERMINATED NORMALLY****
TOTAL RUN TIME: 0 days 0 hours 1 minutes 0 seconds 93 msec
