                         Program Version 4.1.2  - RELEASE  -
|  1> #Run DFT-D3 single point of the dimer
|  2> ! wB97X-D3 def2-TZVP TIGHTSCF CHELPG PMODEL PAL8
|  3>
|  4> %base "4-88_DFT_AB"
|  5>
|  6> %scf
|  7> MaxIter 1000
|  8> end
|  9>
| 10> * xyz 0 1
| 11>   C                      8.138163             2.013779             8.440012
| 12>   O                      8.449880             2.296050             7.073773
| 13>   H                      8.958610             1.573154             6.754095
| 14>   H                      7.680784             2.922407             8.860548
| 15>   H                      7.458505             1.109173             8.484702
| 16>   H                      9.035666             1.771950             8.988343
| 17>   C                      7.671328             -2.158835            9.111072
| 18>   O                      6.290404             -2.550753            9.166028
| 19>   H                      6.242656             -3.411438            8.695258
| 20>   H                      8.359693             -2.896538            9.464995
| 21>   H                      8.076083             -1.876635            8.140413
| 22>   H                      7.923211             -1.289379            9.767768
| 23> *
| 24>
| 25> #Run DFT-D3 single point of the molecule with dimer basis set
| 26> $new_job
| 27> %base "4-88_DFT_A"
| 28> ! wB97X-D3 def2-TZVP TIGHTSCF CHELPG PMODEL
| 29>
| 30> %scf
| 31> MaxIter 1000
| 32> end
| 33>
| 34> * xyz 0 1
| 35>   C                      8.138163             2.013779             8.440012
| 36>   O                      8.449880             2.296050             7.073773
| 37>   H                      8.958610             1.573154             6.754095
| 38>   H                      7.680784             2.922407             8.860548
| 39>   H                      7.458505             1.109173             8.484702
| 40>   H                      9.035666             1.771950             8.988343
| 41>   C                    : 7.671328             -2.158835            9.111072
| 42>   O                    : 6.290404             -2.550753            9.166028
| 43>   H                    : 6.242656             -3.411438            8.695258
| 44>   H                    : 8.359693             -2.896538            9.464995
| 45>   H                    : 8.076083             -1.876635            8.140413
| 46>   H                    : 7.923211             -1.289379            9.767768
| 47> *
| 48>
| 49> #Run DFT-D3 single point of the particle with dimer basis set
| 50> $new_job
| 51> %base "4-88_DFT_B"
| 52> ! wB97X-D3 def2-TZVP TIGHTSCF CHELPG PMODEL
| 53>
| 54> %scf
| 55> MaxIter 1000
| 56> end
| 57>
| 58> * xyz 0 1
| 59>   C                    : 8.138163             2.013779             8.440012
| 60>   O                    : 8.449880             2.296050             7.073773
| 61>   H                    : 8.958610             1.573154             6.754095
| 62>   H                    : 7.680784             2.922407             8.860548
| 63>   H                    : 7.458505             1.109173             8.484702
| 64>   H                    : 9.035666             1.771950             8.988343
| 65>   C                      7.671328             -2.158835            9.111072
| 66>   O                      6.290404             -2.550753            9.166028
| 67>   H                      6.242656             -3.411438            8.695258
| 68>   H                      8.359693             -2.896538            9.464995
| 69>   H                      8.076083             -1.876635            8.140413
| 70>   H                      7.923211             -1.289379            9.767768
| 71> *
| 72>
| 73>                          ****END OF INPUT****
 Total Charge           Charge          ....    0
 Multiplicity           Mult            ....    1
 Number of Electrons    NEL             ....   36
Dispersion correction           -0.001304225
FINAL SINGLE POINT ENERGY      -231.466992619095
Dispersion correction           -0.000231342
FINAL SINGLE POINT ENERGY      -115.735246954506

CARTESIAN COORDINATES (ANGSTROEM)
---------------------------------
  C      8.138163    2.013779    8.440012
  O      8.449880    2.296050    7.073773
  H      8.958610    1.573154    6.754095
  H      7.680784    2.922407    8.860548
  H      7.458505    1.109173    8.484702
  H      9.035666    1.771950    8.988343
  C      7.671328   -2.158835    9.111072
  O      6.290404   -2.550753    9.166028
  H      6.242656   -3.411438    8.695258
  H      8.359693   -2.896538    9.464995
  H      8.076083   -1.876635    8.140413
  H      7.923211   -1.289379    9.767768

 Multiplicity           Mult            ....    1
 Number of Electrons    NEL             ....   18
 Basis Dimension        Dim             ....  172

ORBITAL ENERGIES
----------------

  NO   OCC          E(Eh)            E(eV)
   0   2.0000     -19.238953      -523.5185
   1   2.0000     -10.314318      -280.6669
   2   2.0000      -1.129043       -30.7228
   3   2.0000      -0.798430       -21.7264
   4   2.0000      -0.608925       -16.5697
   5   2.0000      -0.534976       -14.5574
   6   2.0000      -0.522578       -14.2201
   7   2.0000      -0.436693       -11.8830
   8   2.0000      -0.378132       -10.2895
   9   0.0000       0.085406         2.3240
  10   0.0000       0.115508         3.1431
  11   0.0000       0.150264         4.0889
  12   0.0000       0.159950         4.3525
  13   0.0000       0.194292         5.2870

MULLIKEN ATOMIC CHARGES
-----------------------
   0 C :   -0.001988
   1 O :    0.000053
   2 H :   -0.000017
   3 H :    0.000005
   4 H :    0.002040
   5 H :    0.000073
   6 C :   -0.185149
   7 O :   -0.470312
   8 H :    0.317617
   9 H :    0.115251
  10 H :    0.102399
  11 H :    0.120028
Sum of atomic charges:   -0.0000000

LOEWDIN ATOMIC CHARGES
----------------------
   0 C :   -0.001529
   1 O :   -0.000012
   2 H :   -0.000095
   3 H :   -0.000008
   4 H :   -0.001526
   5 H :   -0.000235
   6 C :   -0.383558
   7 O :   -0.095519
   8 H :    0.183800
   9 H :    0.090541
  10 H :    0.092966
  11 H :    0.115173

  Mayer bond orders larger than 0.1
B(  6-C ,  7-O ) :   1.0033 B(  6-C ,  9-H ) :   0.9733 B(  6-C , 10-H ) :   0.9722
B(  6-C , 11-H ) :   0.9748 B(  7-O ,  8-H ) :   0.8960

Dispersion correction           -0.000271716
FINAL SINGLE POINT ENERGY      -115.731220962186

DIPOLE MOMENT
-------------
                                X             Y             Z
Electronic contribution:     -1.97070      -0.43360       0.10981
Nuclear contribution   :      2.50874       0.04406      -0.41064
                        -----------------------------------------
Total Dipole Moment    :      0.53804      -0.38954      -0.30083
                        -----------------------------------------
Magnitude (a.u.)       :      0.72919
Magnitude (Debye)      :      1.85347

Rotational constants in cm-1:     4.478364     0.795387     0.764929
Rotational constants in MHz : 134257.968743 23845.088636 22931.989022

                             ****ORCA TERMINATED NORMALLY****
TOTAL RUN TIME: 0 days 0 hours 1 minutes 32 seconds 103 msec
