                         Program Version 4.1.2  - RELEASE  -
|  1> #Run DFT-D3 single point of the dimer
|  2> ! wB97X-D3 def2-TZVP TIGHTSCF CHELPG PMODEL PAL8
|  3>
|  4> %base "11-45_DFT_AB"
|  5>
|  6> %scf
|  7> MaxIter 1000
|  8> end
|  9>
| 10> * xyz 0 1
| 11>   C                      -6.809828            -7.466043            3.576054
| 12>   O                      -7.899568            -7.122431            2.761647
| 13>   H                      -8.485116            -6.571884            3.300043
| 14>   H                      -6.140757            -8.235801            3.211368
| 15>   H                      -6.195975            -6.624707            3.804071
| 16>   H                      -7.153628            -7.872314            4.553636
| 17>   C                      -6.666461            -11.123084           2.357986
| 18>   O                      -7.386653            -11.129767           3.588979
| 19>   H                      -8.308088            -11.332602           3.365048
| 20>   H                      -6.297742            -12.036097           2.084844
| 21>   H                      -7.356803            -10.933832           1.530387
| 22>   H                      -5.880869            -10.359367           2.345105
| 23> *
| 24>
| 25> #Run DFT-D3 single point of the molecule with dimer basis set
| 26> $new_job
| 27> %base "11-45_DFT_A"
| 28> ! wB97X-D3 def2-TZVP TIGHTSCF CHELPG PMODEL
| 29>
| 30> %scf
| 31> MaxIter 1000
| 32> end
| 33>
| 34> * xyz 0 1
| 35>   C                      -6.809828            -7.466043            3.576054
| 36>   O                      -7.899568            -7.122431            2.761647
| 37>   H                      -8.485116            -6.571884            3.300043
| 38>   H                      -6.140757            -8.235801            3.211368
| 39>   H                      -6.195975            -6.624707            3.804071
| 40>   H                      -7.153628            -7.872314            4.553636
| 41>   C                    : -6.666461            -11.123084           2.357986
| 42>   O                    : -7.386653            -11.129767           3.588979
| 43>   H                    : -8.308088            -11.332602           3.365048
| 44>   H                    : -6.297742            -12.036097           2.084844
| 45>   H                    : -7.356803            -10.933832           1.530387
| 46>   H                    : -5.880869            -10.359367           2.345105
| 47> *
| 48>
| 49> #Run DFT-D3 single point of the particle with dimer basis set
| 50> $new_job
| 51> %base "11-45_DFT_B"
| 52> ! wB97X-D3 def2-TZVP TIGHTSCF CHELPG PMODEL
| 53>
| 54> %scf
| 55> MaxIter 1000
| 56> end
| 57>
| 58> * xyz 0 1
| 59>   C                    : -6.809828            -7.466043            3.576054
| 60>   O                    : -7.899568            -7.122431            2.761647
| 61>   H                    : -8.485116            -6.571884            3.300043
| 62>   H                    : -6.140757            -8.235801            3.211368
| 63>   H                    : -6.195975            -6.624707            3.804071
| 64>   H                    : -7.153628            -7.872314            4.553636
| 65>   C                      -6.666461            -11.123084           2.357986
| 66>   O                      -7.386653            -11.129767           3.588979
| 67>   H                      -8.308088            -11.332602           3.365048
| 68>   H                      -6.297742            -12.036097           2.084844
| 69>   H                      -7.356803            -10.933832           1.530387
| 70>   H                      -5.880869            -10.359367           2.345105
| 71> *
| 72>
| 73>                          ****END OF INPUT****
 Total Charge           Charge          ....    0
 Multiplicity           Mult            ....    1
 Number of Electrons    NEL             ....   36
Dispersion correction           -0.001701123
FINAL SINGLE POINT ENERGY      -231.464665863253
Dispersion correction           -0.000234372
FINAL SINGLE POINT ENERGY      -115.733270928920

CARTESIAN COORDINATES (ANGSTROEM)
---------------------------------
  C     -6.809828   -7.466043    3.576054
  O     -7.899568   -7.122431    2.761647
  H     -8.485116   -6.571884    3.300043
  H     -6.140757   -8.235801    3.211368
  H     -6.195975   -6.624707    3.804071
  H     -7.153628   -7.872314    4.553636
  C     -6.666461  -11.123084    2.357986
  O     -7.386653  -11.129767    3.588979
  H     -8.308088  -11.332602    3.365048
  H     -6.297742  -12.036097    2.084844
  H     -7.356803  -10.933832    1.530387
  H     -5.880869  -10.359367    2.345105

 Multiplicity           Mult            ....    1
 Number of Electrons    NEL             ....   18
 Basis Dimension        Dim             ....  172

ORBITAL ENERGIES
----------------

  NO   OCC          E(Eh)            E(eV)
   0   2.0000     -19.231301      -523.3103
   1   2.0000     -10.307068      -280.4696
   2   2.0000      -1.131594       -30.7922
   3   2.0000      -0.801980       -21.8230
   4   2.0000      -0.612561       -16.6686
   5   2.0000      -0.543453       -14.7881
   6   2.0000      -0.527179       -14.3453
   7   2.0000      -0.435544       -11.8518
   8   2.0000      -0.375173       -10.2090
   9   0.0000       0.091086         2.4786
  10   0.0000       0.118133         3.2145
  11   0.0000       0.151994         4.1360
  12   0.0000       0.169374         4.6089
  13   0.0000       0.201706         5.4887

MULLIKEN ATOMIC CHARGES
-----------------------
   0 C :    0.000341
   1 O :   -0.000227
   2 H :   -0.000028
   3 H :    0.001432
   4 H :    0.000011
   5 H :   -0.002203
   6 C :   -0.166630
   7 O :   -0.476388
   8 H :    0.316911
   9 H :    0.113245
  10 H :    0.098784
  11 H :    0.114752
Sum of atomic charges:   -0.0000000

LOEWDIN ATOMIC CHARGES
----------------------
   0 C :   -0.004773
   1 O :   -0.000058
   2 H :   -0.000013
   3 H :   -0.004099
   4 H :   -0.000054
   5 H :   -0.001490
   6 C :   -0.366054
   7 O :   -0.085999
   8 H :    0.175760
   9 H :    0.079398
  10 H :    0.098676
  11 H :    0.108706

  Mayer bond orders larger than 0.1
B(  6-C ,  7-O ) :   0.9981 B(  6-C ,  9-H ) :   0.9726 B(  6-C , 10-H ) :   0.9936
B(  6-C , 11-H ) :   0.9784 B(  7-O ,  8-H ) :   0.8989

Dispersion correction           -0.000234499
FINAL SINGLE POINT ENERGY      -115.729949322512

DIPOLE MOMENT
-------------
                                X             Y             Z
Electronic contribution:     -0.68076      -0.02341       1.72296
Nuclear contribution   :      0.37887      -0.12651      -2.38483
                        -----------------------------------------
Total Dipole Moment    :     -0.30189      -0.14992      -0.66187
                        -----------------------------------------
Magnitude (a.u.)       :      0.74276
Magnitude (Debye)      :      1.88793

Rotational constants in cm-1:     4.452389     0.827357     0.787916
Rotational constants in MHz : 133479.278068 24803.529944 23621.137442

                             ****ORCA TERMINATED NORMALLY****
TOTAL RUN TIME: 0 days 0 hours 1 minutes 10 seconds 354 msec
