                         Program Version 4.1.2  - RELEASE  -
|  1> #Run DFT-D3 single point of the dimer
|  2> ! wB97X-D3 def2-TZVP TIGHTSCF CHELPG PMODEL PAL8
|  3>
|  4> %base "9-140_DFT_AB"
|  5>
|  6> %scf
|  7> MaxIter 1000
|  8> end
|  9>
| 10> * xyz 0 1
| 11>   C                      -0.644259            -10.288811           -0.613577
| 12>   O                      0.403820             -9.855791            0.193845
| 13>   H                      0.055486             -9.356534            0.947444
| 14>   H                      -1.065645            -11.179136           -0.133979
| 15>   H                      -1.357217            -9.505382            -0.921732
| 16>   H                      -0.289226            -10.785823           -1.502527
| 17>   C                      2.451181             -9.299457            3.753158
| 18>   O                      3.830511             -9.386070            3.338447
| 19>   H                      3.817408             -9.446326            2.382565
| 20>   H                      1.768621             -8.985972            2.933853
| 21>   H                      2.083960             -10.300967           4.012013
| 22>   H                      2.255479             -8.550594            4.616617
| 23> *
| 24>
| 25> #Run DFT-D3 single point of the molecule with dimer basis set
| 26> $new_job
| 27> %base "9-140_DFT_A"
| 28> ! wB97X-D3 def2-TZVP TIGHTSCF CHELPG PMODEL
| 29>
| 30> %scf
| 31> MaxIter 1000
| 32> end
| 33>
| 34> * xyz 0 1
| 35>   C                      -0.644259            -10.288811           -0.613577
| 36>   O                      0.403820             -9.855791            0.193845
| 37>   H                      0.055486             -9.356534            0.947444
| 38>   H                      -1.065645            -11.179136           -0.133979
| 39>   H                      -1.357217            -9.505382            -0.921732
| 40>   H                      -0.289226            -10.785823           -1.502527
| 41>   C                    : 2.451181             -9.299457            3.753158
| 42>   O                    : 3.830511             -9.386070            3.338447
| 43>   H                    : 3.817408             -9.446326            2.382565
| 44>   H                    : 1.768621             -8.985972            2.933853
| 45>   H                    : 2.083960             -10.300967           4.012013
| 46>   H                    : 2.255479             -8.550594            4.616617
| 47> *
| 48>
| 49> #Run DFT-D3 single point of the particle with dimer basis set
| 50> $new_job
| 51> %base "9-140_DFT_B"
| 52> ! wB97X-D3 def2-TZVP TIGHTSCF CHELPG PMODEL
| 53>
| 54> %scf
| 55> MaxIter 1000
| 56> end
| 57>
| 58> * xyz 0 1
| 59>   C                    : -0.644259            -10.288811           -0.613577
| 60>   O                    : 0.403820             -9.855791            0.193845
| 61>   H                    : 0.055486             -9.356534            0.947444
| 62>   H                    : -1.065645            -11.179136           -0.133979
| 63>   H                    : -1.357217            -9.505382            -0.921732
| 64>   H                    : -0.289226            -10.785823           -1.502527
| 65>   C                      2.451181             -9.299457            3.753158
| 66>   O                      3.830511             -9.386070            3.338447
| 67>   H                      3.817408             -9.446326            2.382565
| 68>   H                      1.768621             -8.985972            2.933853
| 69>   H                      2.083960             -10.300967           4.012013
| 70>   H                      2.255479             -8.550594            4.616617
| 71> *
| 72>
| 73>                          ****END OF INPUT****
 Total Charge           Charge          ....    0
 Multiplicity           Mult            ....    1
 Number of Electrons    NEL             ....   36
Dispersion correction           -0.001101219
FINAL SINGLE POINT ENERGY      -231.462677807542
Dispersion correction           -0.000240899
FINAL SINGLE POINT ENERGY      -115.730882143369

CARTESIAN COORDINATES (ANGSTROEM)
---------------------------------
  C     -0.644259  -10.288811   -0.613577
  O      0.403820   -9.855791    0.193845
  H      0.055486   -9.356534    0.947444
  H     -1.065645  -11.179136   -0.133979
  H     -1.357217   -9.505382   -0.921732
  H     -0.289226  -10.785823   -1.502527
  C      2.451181   -9.299457    3.753158
  O      3.830511   -9.386070    3.338447
  H      3.817408   -9.446326    2.382565
  H      1.768621   -8.985972    2.933853
  H      2.083960  -10.300967    4.012013
  H      2.255479   -8.550594    4.616617

 Multiplicity           Mult            ....    1
 Number of Electrons    NEL             ....   18
 Basis Dimension        Dim             ....  172

ORBITAL ENERGIES
----------------

  NO   OCC          E(Eh)            E(eV)
   0   2.0000     -19.232802      -523.3512
   1   2.0000     -10.325444      -280.9696
   2   2.0000      -1.130542       -30.7636
   3   2.0000      -0.790290       -21.5049
   4   2.0000      -0.608105       -16.5474
   5   2.0000      -0.535345       -14.5675
   6   2.0000      -0.517239       -14.0748
   7   2.0000      -0.435153       -11.8411
   8   2.0000      -0.375633       -10.2215
   9   0.0000       0.079262         2.1568
  10   0.0000       0.112388         3.0582
  11   0.0000       0.142924         3.8892
  12   0.0000       0.167940         4.5699
  13   0.0000       0.192973         5.2511

MULLIKEN ATOMIC CHARGES
-----------------------
   0 C :    0.000074
   1 O :    0.000171
   2 H :   -0.000353
   3 H :   -0.000010
   4 H :   -0.000004
   5 H :   -0.000002
   6 C :   -0.181953
   7 O :   -0.468996
   8 H :    0.315168
   9 H :    0.108742
  10 H :    0.109232
  11 H :    0.117930
Sum of atomic charges:    0.0000000

LOEWDIN ATOMIC CHARGES
----------------------
   0 C :   -0.000020
   1 O :   -0.000489
   2 H :   -0.002617
   3 H :   -0.000001
   4 H :   -0.000000
   5 H :   -0.000000
   6 C :   -0.379516
   7 O :   -0.096562
   8 H :    0.166971
   9 H :    0.099103
  10 H :    0.096605
  11 H :    0.116527

  Mayer bond orders larger than 0.1
B(  6-C ,  7-O ) :   1.0028 B(  6-C ,  9-H ) :   0.9799 B(  6-C , 10-H ) :   0.9752
B(  6-C , 11-H ) :   0.9675 B(  7-O ,  8-H ) :   0.9019

Dispersion correction           -0.000270906
FINAL SINGLE POINT ENERGY      -115.730704072622

DIPOLE MOMENT
-------------
                                X             Y             Z
Electronic contribution:      1.90258      -0.09388      -0.37152
Nuclear contribution   :     -2.47537       0.09114      -0.10105
                        -----------------------------------------
Total Dipole Moment    :     -0.57279      -0.00274      -0.47257
                        -----------------------------------------
Magnitude (a.u.)       :      0.74258
Magnitude (Debye)      :      1.88748

Rotational constants in cm-1:     4.176186     0.794087     0.766275
Rotational constants in MHz : 125198.901499 23806.136020 22972.341163

                             ****ORCA TERMINATED NORMALLY****
TOTAL RUN TIME: 0 days 0 hours 0 minutes 40 seconds 677 msec
