                         Program Version 4.1.2  - RELEASE  -
|  1> #Run DFT-D3 single point of the dimer
|  2> ! wB97X-D3 def2-TZVP TIGHTSCF CHELPG PMODEL PAL8
|  3>
|  4> %base "10-220_DFT_AB"
|  5>
|  6> %scf
|  7> MaxIter 1000
|  8> end
|  9>
| 10> * xyz 0 1
| 11>   C                      -5.166520            -2.157854            5.731922
| 12>   O                      -4.352424            -2.878573            4.845293
| 13>   H                      -4.531012            -2.479481            4.001761
| 14>   H                      -6.255409            -2.274834            5.542018
| 15>   H                      -4.978157            -2.425634            6.797351
| 16>   H                      -5.056658            -1.138531            5.729317
| 17>   C                      -5.099899            -0.314163            2.273971
| 18>   O                      -4.169031            -1.341223            2.297468
| 19>   H                      -3.967029            -1.630792            1.383608
| 20>   H                      -4.650917            0.664407             1.983989
| 21>   H                      -5.904849            -0.446509            1.523370
| 22>   H                      -5.640213            -0.184676            3.176502
| 23> *
| 24>
| 25> #Run DFT-D3 single point of the molecule with dimer basis set
| 26> $new_job
| 27> %base "10-220_DFT_A"
| 28> ! wB97X-D3 def2-TZVP TIGHTSCF CHELPG PMODEL
| 29>
| 30> %scf
| 31> MaxIter 1000
| 32> end
| 33>
| 34> * xyz 0 1
| 35>   C                      -5.166520            -2.157854            5.731922
| 36>   O                      -4.352424            -2.878573            4.845293
| 37>   H                      -4.531012            -2.479481            4.001761
| 38>   H                      -6.255409            -2.274834            5.542018
| 39>   H                      -4.978157            -2.425634            6.797351
| 40>   H                      -5.056658            -1.138531            5.729317
| 41>   C                    : -5.099899            -0.314163            2.273971
| 42>   O                    : -4.169031            -1.341223            2.297468
| 43>   H                    : -3.967029            -1.630792            1.383608
| 44>   H                    : -4.650917            0.664407             1.983989
| 45>   H                    : -5.904849            -0.446509            1.523370
| 46>   H                    : -5.640213            -0.184676            3.176502
| 47> *
| 48>
| 49> #Run DFT-D3 single point of the particle with dimer basis set
| 50> $new_job
| 51> %base "10-220_DFT_B"
| 52> ! wB97X-D3 def2-TZVP TIGHTSCF CHELPG PMODEL
| 53>
| 54> %scf
| 55> MaxIter 1000
| 56> end
| 57>
| 58> * xyz 0 1
| 59>   C                    : -5.166520            -2.157854            5.731922
| 60>   O                    : -4.352424            -2.878573            4.845293
| 61>   H                    : -4.531012            -2.479481            4.001761
| 62>   H                    : -6.255409            -2.274834            5.542018
| 63>   H                    : -4.978157            -2.425634            6.797351
| 64>   H                    : -5.056658            -1.138531            5.729317
| 65>   C                      -5.099899            -0.314163            2.273971
| 66>   O                      -4.169031            -1.341223            2.297468
| 67>   H                      -3.967029            -1.630792            1.383608
| 68>   H                      -4.650917            0.664407             1.983989
| 69>   H                      -5.904849            -0.446509            1.523370
| 70>   H                      -5.640213            -0.184676            3.176502
| 71> *
| 72>
| 73>                          ****END OF INPUT****
 Total Charge           Charge          ....    0
 Multiplicity           Mult            ....    1
 Number of Electrons    NEL             ....   36
Dispersion correction           -0.001942974
FINAL SINGLE POINT ENERGY      -231.470236574478
Dispersion correction           -0.000234008
FINAL SINGLE POINT ENERGY      -115.730407944192

CARTESIAN COORDINATES (ANGSTROEM)
---------------------------------
  C     -5.166520   -2.157854    5.731922
  O     -4.352424   -2.878573    4.845293
  H     -4.531012   -2.479481    4.001761
  H     -6.255409   -2.274834    5.542018
  H     -4.978157   -2.425634    6.797351
  H     -5.056658   -1.138531    5.729317
  C     -5.099899   -0.314163    2.273971
  O     -4.169031   -1.341223    2.297468
  H     -3.967029   -1.630792    1.383608
  H     -4.650917    0.664407    1.983989
  H     -5.904849   -0.446509    1.523370
  H     -5.640213   -0.184676    3.176502

 Multiplicity           Mult            ....    1
 Number of Electrons    NEL             ....   18
 Basis Dimension        Dim             ....  172

ORBITAL ENERGIES
----------------

  NO   OCC          E(Eh)            E(eV)
   0   2.0000     -19.235370      -523.4210
   1   2.0000     -10.310947      -280.5751
   2   2.0000      -1.141970       -31.0746
   3   2.0000      -0.796352       -21.6698
   4   2.0000      -0.617876       -16.8133
   5   2.0000      -0.543562       -14.7911
   6   2.0000      -0.530070       -14.4239
   7   2.0000      -0.430470       -11.7137
   8   2.0000      -0.371788       -10.1169
   9   0.0000       0.095277         2.5926
  10   0.0000       0.119386         3.2487
  11   0.0000       0.151593         4.1251
  12   0.0000       0.192151         5.2287
  13   0.0000       0.198156         5.3921

MULLIKEN ATOMIC CHARGES
-----------------------
   0 C :    0.001311
   1 O :    0.000178
   2 H :   -0.009190
   3 H :   -0.000386
   4 H :   -0.000003
   5 H :   -0.000017
   6 C :   -0.165028
   7 O :   -0.462984
   8 H :    0.320633
   9 H :    0.093379
  10 H :    0.096300
  11 H :    0.125808
Sum of atomic charges:   -0.0000000

LOEWDIN ATOMIC CHARGES
----------------------
   0 C :   -0.002691
   1 O :   -0.003969
   2 H :   -0.030566
   3 H :   -0.000190
   4 H :   -0.000011
   5 H :   -0.000895
   6 C :   -0.408226
   7 O :   -0.032801
   8 H :    0.185302
   9 H :    0.096924
  10 H :    0.095979
  11 H :    0.101143

  Mayer bond orders larger than 0.1
B(  6-C ,  7-O ) :   1.0028 B(  6-C ,  9-H ) :   0.9745 B(  6-C , 10-H ) :   0.9796
B(  6-C , 11-H ) :   0.9733 B(  7-O ,  8-H ) :   0.8890

Dispersion correction           -0.000248003
FINAL SINGLE POINT ENERGY      -115.733382075058

DIPOLE MOMENT
-------------
                                X             Y             Z
Electronic contribution:      1.29918      -1.44413       0.29748
Nuclear contribution   :     -1.54342       1.63744      -0.88680
                        -----------------------------------------
Total Dipole Moment    :     -0.24425       0.19331      -0.58932
                        -----------------------------------------
Magnitude (a.u.)       :      0.66658
Magnitude (Debye)      :      1.69430

Rotational constants in cm-1:     4.421525     0.842046     0.814007
Rotational constants in MHz : 132553.975818 25243.899617 24403.308023

                             ****ORCA TERMINATED NORMALLY****
TOTAL RUN TIME: 0 days 0 hours 1 minutes 8 seconds 113 msec
