                         Program Version 4.1.2  - RELEASE  -
|  1> #Run DFT-D3 single point of the dimer
|  2> ! wB97X-D3 def2-TZVP TIGHTSCF CHELPG PMODEL PAL8
|  3>
|  4> %base "4-23_DFT_AB"
|  5>
|  6> %scf
|  7> MaxIter 1000
|  8> end
|  9>
| 10> * xyz 0 1
| 11>   C                      1.278964             -10.654822           2.337766
| 12>   O                      1.975469             -10.763566           3.561013
| 13>   H                      2.763265             -11.256909           3.348373
| 14>   H                      0.900062             -11.560758           2.008515
| 15>   H                      0.551293             -9.905268            2.334664
| 16>   H                      2.032881             -10.389157           1.510708
| 17>   C                      4.283639             -8.081971            2.057118
| 18>   O                      5.025300             -7.547954            1.054794
| 19>   H                      4.501821             -7.513945            0.250803
| 20>   H                      4.811136             -8.006402            3.043688
| 21>   H                      3.350172             -7.536542            2.185531
| 22>   H                      3.992608             -9.141225            1.969269
| 23> *
| 24>
| 25> #Run DFT-D3 single point of the molecule with dimer basis set
| 26> $new_job
| 27> %base "4-23_DFT_A"
| 28> ! wB97X-D3 def2-TZVP TIGHTSCF CHELPG PMODEL
| 29>
| 30> %scf
| 31> MaxIter 1000
| 32> end
| 33>
| 34> * xyz 0 1
| 35>   C                      1.278964             -10.654822           2.337766
| 36>   O                      1.975469             -10.763566           3.561013
| 37>   H                      2.763265             -11.256909           3.348373
| 38>   H                      0.900062             -11.560758           2.008515
| 39>   H                      0.551293             -9.905268            2.334664
| 40>   H                      2.032881             -10.389157           1.510708
| 41>   C                    : 4.283639             -8.081971            2.057118
| 42>   O                    : 5.025300             -7.547954            1.054794
| 43>   H                    : 4.501821             -7.513945            0.250803
| 44>   H                    : 4.811136             -8.006402            3.043688
| 45>   H                    : 3.350172             -7.536542            2.185531
| 46>   H                    : 3.992608             -9.141225            1.969269
| 47> *
| 48>
| 49> #Run DFT-D3 single point of the particle with dimer basis set
| 50> $new_job
| 51> %base "4-23_DFT_B"
| 52> ! wB97X-D3 def2-TZVP TIGHTSCF CHELPG PMODEL
| 53>
| 54> %scf
| 55> MaxIter 1000
| 56> end
| 57>
| 58> * xyz 0 1
| 59>   C                    : 1.278964             -10.654822           2.337766
| 60>   O                    : 1.975469             -10.763566           3.561013
| 61>   H                    : 2.763265             -11.256909           3.348373
| 62>   H                    : 0.900062             -11.560758           2.008515
| 63>   H                    : 0.551293             -9.905268            2.334664
| 64>   H                    : 2.032881             -10.389157           1.510708
| 65>   C                      4.283639             -8.081971            2.057118
| 66>   O                      5.025300             -7.547954            1.054794
| 67>   H                      4.501821             -7.513945            0.250803
| 68>   H                      4.811136             -8.006402            3.043688
| 69>   H                      3.350172             -7.536542            2.185531
| 70>   H                      3.992608             -9.141225            1.969269
| 71> *
| 72>
| 73>                          ****END OF INPUT****
 Total Charge           Charge          ....    0
 Multiplicity           Mult            ....    1
 Number of Electrons    NEL             ....   36
Dispersion correction           -0.001658634
FINAL SINGLE POINT ENERGY      -231.464414671580
Dispersion correction           -0.000217317
FINAL SINGLE POINT ENERGY      -115.729536474155

CARTESIAN COORDINATES (ANGSTROEM)
---------------------------------
  C      1.278964  -10.654822    2.337766
  O      1.975469  -10.763566    3.561013
  H      2.763265  -11.256909    3.348373
  H      0.900062  -11.560758    2.008515
  H      0.551293   -9.905268    2.334664
  H      2.032881  -10.389157    1.510708
  C      4.283639   -8.081971    2.057118
  O      5.025300   -7.547954    1.054794
  H      4.501821   -7.513945    0.250803
  H      4.811136   -8.006402    3.043688
  H      3.350172   -7.536542    2.185531
  H      3.992608   -9.141225    1.969269

 Multiplicity           Mult            ....    1
 Number of Electrons    NEL             ....   18
 Basis Dimension        Dim             ....  172

ORBITAL ENERGIES
----------------

  NO   OCC          E(Eh)            E(eV)
   0   2.0000     -19.232985      -523.3561
   1   2.0000     -10.310770      -280.5703
   2   2.0000      -1.156171       -31.4610
   3   2.0000      -0.793126       -21.5820
   4   2.0000      -0.625841       -17.0300
   5   2.0000      -0.545320       -14.8389
   6   2.0000      -0.533616       -14.5204
   7   2.0000      -0.426492       -11.6054
   8   2.0000      -0.371595       -10.1116
   9   0.0000       0.082112         2.2344
  10   0.0000       0.117569         3.1992
  11   0.0000       0.155114         4.2209
  12   0.0000       0.166724         4.5368
  13   0.0000       0.185030         5.0349

MULLIKEN ATOMIC CHARGES
-----------------------
   0 C :   -0.002718
   1 O :    0.000239
   2 H :   -0.000469
   3 H :   -0.000101
   4 H :    0.000366
   5 H :    0.000373
   6 C :   -0.148864
   7 O :   -0.461708
   8 H :    0.318207
   9 H :    0.112030
  10 H :    0.091444
  11 H :    0.091201
Sum of atomic charges:    0.0000000

LOEWDIN ATOMIC CHARGES
----------------------
   0 C :   -0.004297
   1 O :   -0.000699
   2 H :   -0.001360
   3 H :   -0.000031
   4 H :   -0.000131
   5 H :   -0.004579
   6 C :   -0.436709
   7 O :   -0.028694
   8 H :    0.175543
   9 H :    0.114484
  10 H :    0.091441
  11 H :    0.095032

  Mayer bond orders larger than 0.1
B(  6-C ,  7-O ) :   1.0119 B(  6-C ,  9-H ) :   0.9682 B(  6-C , 10-H ) :   0.9846
B(  6-C , 11-H ) :   0.9710 B(  7-O ,  8-H ) :   0.8940

Dispersion correction           -0.000233414
FINAL SINGLE POINT ENERGY      -115.733756983785

DIPOLE MOMENT
-------------
                                X             Y             Z
Electronic contribution:      1.17467       0.73759      -1.38849
Nuclear contribution   :     -1.77668      -0.89031       1.23205
                        -----------------------------------------
Total Dipole Moment    :     -0.60201      -0.15272      -0.15644
                        -----------------------------------------
Magnitude (a.u.)       :      0.64048
Magnitude (Debye)      :      1.62797

Rotational constants in cm-1:     4.386190     0.876038     0.841359
Rotational constants in MHz : 131494.675531 26262.950294 25223.293530

                             ****ORCA TERMINATED NORMALLY****
TOTAL RUN TIME: 0 days 0 hours 1 minutes 32 seconds 75 msec
