                         Program Version 4.1.2  - RELEASE  -
|  1> #Run DFT-D3 single point of the dimer
|  2> ! wB97X-D3 def2-TZVP TIGHTSCF CHELPG PMODEL PAL8
|  3>
|  4> %base "11-25_DFT_AB"
|  5>
|  6> %scf
|  7> MaxIter 1000
|  8> end
|  9>
| 10> * xyz 0 1
| 11>   C                      -8.448119            2.442185             -5.118233
| 12>   O                      -7.831945            1.753476             -4.059607
| 13>   H                      -8.251878            0.862124             -3.916511
| 14>   H                      -9.518605            2.289483             -5.032777
| 15>   H                      -8.197066            3.464053             -5.152794
| 16>   H                      -8.176135            2.038059             -6.035437
| 17>   C                      -9.370355            2.982421             -1.130286
| 18>   O                      -8.060831            2.716700             -0.738364
| 19>   H                      -7.797640            1.912203             -1.195210
| 20>   H                      -9.629942            2.462840             -2.071195
| 21>   H                      -10.114855           2.628072             -0.451375
| 22>   H                      -9.582202            4.031527             -1.361701
| 23> *
| 24>
| 25> #Run DFT-D3 single point of the molecule with dimer basis set
| 26> $new_job
| 27> %base "11-25_DFT_A"
| 28> ! wB97X-D3 def2-TZVP TIGHTSCF CHELPG PMODEL
| 29>
| 30> %scf
| 31> MaxIter 1000
| 32> end
| 33>
| 34> * xyz 0 1
| 35>   C                      -8.448119            2.442185             -5.118233
| 36>   O                      -7.831945            1.753476             -4.059607
| 37>   H                      -8.251878            0.862124             -3.916511
| 38>   H                      -9.518605            2.289483             -5.032777
| 39>   H                      -8.197066            3.464053             -5.152794
| 40>   H                      -8.176135            2.038059             -6.035437
| 41>   C                    : -9.370355            2.982421             -1.130286
| 42>   O                    : -8.060831            2.716700             -0.738364
| 43>   H                    : -7.797640            1.912203             -1.195210
| 44>   H                    : -9.629942            2.462840             -2.071195
| 45>   H                    : -10.114855           2.628072             -0.451375
| 46>   H                    : -9.582202            4.031527             -1.361701
| 47> *
| 48>
| 49> #Run DFT-D3 single point of the particle with dimer basis set
| 50> $new_job
| 51> %base "11-25_DFT_B"
| 52> ! wB97X-D3 def2-TZVP TIGHTSCF CHELPG PMODEL
| 53>
| 54> %scf
| 55> MaxIter 1000
| 56> end
| 57>
| 58> * xyz 0 1
| 59>   C                    : -8.448119            2.442185             -5.118233
| 60>   O                    : -7.831945            1.753476             -4.059607
| 61>   H                    : -8.251878            0.862124             -3.916511
| 62>   H                    : -9.518605            2.289483             -5.032777
| 63>   H                    : -8.197066            3.464053             -5.152794
| 64>   H                    : -8.176135            2.038059             -6.035437
| 65>   C                      -9.370355            2.982421             -1.130286
| 66>   O                      -8.060831            2.716700             -0.738364
| 67>   H                      -7.797640            1.912203             -1.195210
| 68>   H                      -9.629942            2.462840             -2.071195
| 69>   H                      -10.114855           2.628072             -0.451375
| 70>   H                      -9.582202            4.031527             -1.361701
| 71> *
| 72>
| 73>                          ****END OF INPUT****
 Total Charge           Charge          ....    0
 Multiplicity           Mult            ....    1
 Number of Electrons    NEL             ....   36
Dispersion correction           -0.001905839
FINAL SINGLE POINT ENERGY      -231.465789534443
Dispersion correction           -0.000222118
FINAL SINGLE POINT ENERGY      -115.730528066220

CARTESIAN COORDINATES (ANGSTROEM)
---------------------------------
  C     -8.448119    2.442185   -5.118233
  O     -7.831945    1.753476   -4.059607
  H     -8.251878    0.862124   -3.916511
  H     -9.518605    2.289483   -5.032777
  H     -8.197066    3.464053   -5.152794
  H     -8.176135    2.038059   -6.035437
  C     -9.370355    2.982421   -1.130286
  O     -8.060831    2.716700   -0.738364
  H     -7.797640    1.912203   -1.195210
  H     -9.629942    2.462840   -2.071195
  H    -10.114855    2.628072   -0.451375
  H     -9.582202    4.031527   -1.361701

 Multiplicity           Mult            ....    1
 Number of Electrons    NEL             ....   18
 Basis Dimension        Dim             ....  172

ORBITAL ENERGIES
----------------

  NO   OCC          E(Eh)            E(eV)
   0   2.0000     -19.233814      -523.3787
   1   2.0000     -10.309559      -280.5374
   2   2.0000      -1.145147       -31.1610
   3   2.0000      -0.796682       -21.6788
   4   2.0000      -0.618850       -16.8398
   5   2.0000      -0.544763       -14.8238
   6   2.0000      -0.530825       -14.4445
   7   2.0000      -0.429665       -11.6918
   8   2.0000      -0.376214       -10.2373
   9   0.0000       0.073452         1.9987
  10   0.0000       0.121826         3.3151
  11   0.0000       0.151394         4.1197
  12   0.0000       0.170465         4.6386
  13   0.0000       0.193966         5.2781

MULLIKEN ATOMIC CHARGES
-----------------------
   0 C :    0.001603
   1 O :   -0.001081
   2 H :   -0.000284
   3 H :   -0.000813
   4 H :   -0.000260
   5 H :    0.000046
   6 C :   -0.169512
   7 O :   -0.464842
   8 H :    0.321238
   9 H :    0.093017
  10 H :    0.108555
  11 H :    0.112334
Sum of atomic charges:   -0.0000000

LOEWDIN ATOMIC CHARGES
----------------------
   0 C :   -0.002676
   1 O :   -0.003275
   2 H :   -0.001123
   3 H :   -0.000905
   4 H :   -0.000085
   5 H :   -0.000015
   6 C :   -0.404111
   7 O :   -0.056888
   8 H :    0.175341
   9 H :    0.098982
  10 H :    0.090141
  11 H :    0.104614

  Mayer bond orders larger than 0.1
B(  6-C ,  7-O ) :   1.0103 B(  6-C ,  9-H ) :   0.9883 B(  6-C , 10-H ) :   0.9742
B(  6-C , 11-H ) :   0.9740 B(  7-O ,  8-H ) :   0.8989

Dispersion correction           -0.000240702
FINAL SINGLE POINT ENERGY      -115.733132910601

DIPOLE MOMENT
-------------
                                X             Y             Z
Electronic contribution:      1.81960      -0.18589       0.72826
Nuclear contribution   :     -2.15162      -0.23769      -1.18912
                        -----------------------------------------
Total Dipole Moment    :     -0.33202      -0.42358      -0.46086
                        -----------------------------------------
Magnitude (a.u.)       :      0.70855
Magnitude (Debye)      :      1.80100

Rotational constants in cm-1:     4.446079     0.843757     0.813464
Rotational constants in MHz : 133290.091490 25295.204363 24387.049716

                             ****ORCA TERMINATED NORMALLY****
TOTAL RUN TIME: 0 days 0 hours 1 minutes 13 seconds 635 msec
