                         Program Version 4.1.2  - RELEASE  -
|  1> #Run DFT-D3 single point of the dimer
|  2> ! wB97X-D3 def2-TZVP TIGHTSCF CHELPG PMODEL PAL8
|  3>
|  4> %base "11-111_DFT_AB"
|  5>
|  6> %scf
|  7> MaxIter 1000
|  8> end
|  9>
| 10> * xyz 0 1
| 11>   C                      -4.783363            4.112619             -2.570429
| 12>   O                      -6.170966            4.051347             -2.271669
| 13>   H                      -6.396381            3.112215             -2.297182
| 14>   H                      -4.677063            4.150604             -3.633048
| 15>   H                      -4.392991            5.100541             -2.206898
| 16>   H                      -4.210136            3.298748             -2.150329
| 17>   C                      -5.235882            3.625782             3.629223
| 18>   O                      -5.157352            3.575601             2.260142
| 19>   H                      -5.339816            4.474139             1.905838
| 20>   H                      -4.746919            2.763487             4.126884
| 21>   H                      -4.722941            4.481456             4.022618
| 22>   H                      -6.300535            3.639498             3.943306
| 23> *
| 24>
| 25> #Run DFT-D3 single point of the molecule with dimer basis set
| 26> $new_job
| 27> %base "11-111_DFT_A"
| 28> ! wB97X-D3 def2-TZVP TIGHTSCF CHELPG PMODEL
| 29>
| 30> %scf
| 31> MaxIter 1000
| 32> end
| 33>
| 34> * xyz 0 1
| 35>   C                      -4.783363            4.112619             -2.570429
| 36>   O                      -6.170966            4.051347             -2.271669
| 37>   H                      -6.396381            3.112215             -2.297182
| 38>   H                      -4.677063            4.150604             -3.633048
| 39>   H                      -4.392991            5.100541             -2.206898
| 40>   H                      -4.210136            3.298748             -2.150329
| 41>   C                    : -5.235882            3.625782             3.629223
| 42>   O                    : -5.157352            3.575601             2.260142
| 43>   H                    : -5.339816            4.474139             1.905838
| 44>   H                    : -4.746919            2.763487             4.126884
| 45>   H                    : -4.722941            4.481456             4.022618
| 46>   H                    : -6.300535            3.639498             3.943306
| 47> *
| 48>
| 49> #Run DFT-D3 single point of the particle with dimer basis set
| 50> $new_job
| 51> %base "11-111_DFT_B"
| 52> ! wB97X-D3 def2-TZVP TIGHTSCF CHELPG PMODEL
| 53>
| 54> %scf
| 55> MaxIter 1000
| 56> end
| 57>
| 58> * xyz 0 1
| 59>   C                    : -4.783363            4.112619             -2.570429
| 60>   O                    : -6.170966            4.051347             -2.271669
| 61>   H                    : -6.396381            3.112215             -2.297182
| 62>   H                    : -4.677063            4.150604             -3.633048
| 63>   H                    : -4.392991            5.100541             -2.206898
| 64>   H                    : -4.210136            3.298748             -2.150329
| 65>   C                      -5.235882            3.625782             3.629223
| 66>   O                      -5.157352            3.575601             2.260142
| 67>   H                      -5.339816            4.474139             1.905838
| 68>   H                      -4.746919            2.763487             4.126884
| 69>   H                      -4.722941            4.481456             4.022618
| 70>   H                      -6.300535            3.639498             3.943306
| 71> *
| 72>
| 73>                          ****END OF INPUT****
 Total Charge           Charge          ....    0
 Multiplicity           Mult            ....    1
 Number of Electrons    NEL             ....   36
Dispersion correction           -0.000689066
FINAL SINGLE POINT ENERGY      -231.469302922675
Dispersion correction           -0.000231413
FINAL SINGLE POINT ENERGY      -115.734625484844

CARTESIAN COORDINATES (ANGSTROEM)
---------------------------------
  C     -4.783363    4.112619   -2.570429
  O     -6.170966    4.051347   -2.271669
  H     -6.396381    3.112215   -2.297182
  H     -4.677063    4.150604   -3.633048
  H     -4.392991    5.100541   -2.206898
  H     -4.210136    3.298748   -2.150329
  C     -5.235882    3.625782    3.629223
  O     -5.157352    3.575601    2.260142
  H     -5.339816    4.474139    1.905838
  H     -4.746919    2.763487    4.126884
  H     -4.722941    4.481456    4.022618
  H     -6.300535    3.639498    3.943306

 Multiplicity           Mult            ....    1
 Number of Electrons    NEL             ....   18
 Basis Dimension        Dim             ....  172

ORBITAL ENERGIES
----------------

  NO   OCC          E(Eh)            E(eV)
   0   2.0000     -19.231267      -523.3094
   1   2.0000     -10.309393      -280.5329
   2   2.0000      -1.145496       -31.1705
   3   2.0000      -0.790620       -21.5139
   4   2.0000      -0.615812       -16.7571
   5   2.0000      -0.548399       -14.9227
   6   2.0000      -0.532300       -14.4846
   7   2.0000      -0.425591       -11.5809
   8   2.0000      -0.370538       -10.0828
   9   0.0000       0.086074         2.3422
  10   0.0000       0.115550         3.1443
  11   0.0000       0.154135         4.1942
  12   0.0000       0.169547         4.6136
  13   0.0000       0.198568         5.4033

MULLIKEN ATOMIC CHARGES
-----------------------
   0 C :   -0.000155
   1 O :    0.000005
   2 H :   -0.000033
   3 H :   -0.000012
   4 H :   -0.000004
   5 H :   -0.000090
   6 C :   -0.158182
   7 O :   -0.466640
   8 H :    0.320941
   9 H :    0.112658
  10 H :    0.099246
  11 H :    0.092268
Sum of atomic charges:   -0.0000000

LOEWDIN ATOMIC CHARGES
----------------------
   0 C :   -0.000103
   1 O :   -0.000013
   2 H :   -0.000025
   3 H :   -0.000004
   4 H :   -0.000012
   5 H :   -0.000047
   6 C :   -0.423193
   7 O :   -0.057886
   8 H :    0.187572
   9 H :    0.110037
  10 H :    0.088417
  11 H :    0.095258

  Mayer bond orders larger than 0.1
B(  6-C ,  7-O ) :   1.0080 B(  6-C ,  9-H ) :   0.9702 B(  6-C , 10-H ) :   0.9828
B(  6-C , 11-H ) :   0.9794 B(  7-O ,  8-H ) :   0.8902

Dispersion correction           -0.000224264
FINAL SINGLE POINT ENERGY      -115.733652797204

DIPOLE MOMENT
-------------
                                X             Y             Z
Electronic contribution:      0.16727      -0.20006      -1.84231
Nuclear contribution   :     -0.28319       0.79483       2.13043
                        -----------------------------------------
Total Dipole Moment    :     -0.11592       0.59477       0.28812
                        -----------------------------------------
Magnitude (a.u.)       :      0.67097
Magnitude (Debye)      :      1.70547

Rotational constants in cm-1:     4.282854     0.865574     0.837878
Rotational constants in MHz : 128396.727408 25949.265895 25118.949162

                             ****ORCA TERMINATED NORMALLY****
TOTAL RUN TIME: 0 days 0 hours 1 minutes 3 seconds 369 msec
