                         Program Version 4.1.2  - RELEASE  -
|  1> #Run DFT-D3 single point of the dimer
|  2> ! wB97X-D3 def2-TZVP TIGHTSCF CHELPG PMODEL PAL8
|  3>
|  4> %base "10-14_DFT_AB"
|  5>
|  6> %scf
|  7> MaxIter 1000
|  8> end
|  9>
| 10> * xyz 0 1
| 11>   C                      -8.336969            -4.600054            6.961619
| 12>   O                      -7.406997            -4.718792            5.976221
| 13>   H                      -6.557219            -5.068828            6.345814
| 14>   H                      -9.026821            -3.757067            6.800029
| 15>   H                      -9.068774            -5.485411            6.969378
| 16>   H                      -7.848887            -4.496328            7.950912
| 17>   C                      -9.264148            -6.704669            3.638234
| 18>   O                      -10.321744           -6.155424            2.857024
| 19>   H                      -10.265053           -5.168115            3.047983
| 20>   H                      -8.352271            -6.800922            3.072266
| 21>   H                      -8.955576            -6.037905            4.503444
| 22>   H                      -9.506929            -7.765594            3.969996
| 23> *
| 24>
| 25> #Run DFT-D3 single point of the molecule with dimer basis set
| 26> $new_job
| 27> %base "10-14_DFT_A"
| 28> ! wB97X-D3 def2-TZVP TIGHTSCF CHELPG PMODEL
| 29>
| 30> %scf
| 31> MaxIter 1000
| 32> end
| 33>
| 34> * xyz 0 1
| 35>   C                      -8.336969            -4.600054            6.961619
| 36>   O                      -7.406997            -4.718792            5.976221
| 37>   H                      -6.557219            -5.068828            6.345814
| 38>   H                      -9.026821            -3.757067            6.800029
| 39>   H                      -9.068774            -5.485411            6.969378
| 40>   H                      -7.848887            -4.496328            7.950912
| 41>   C                    : -9.264148            -6.704669            3.638234
| 42>   O                    : -10.321744           -6.155424            2.857024
| 43>   H                    : -10.265053           -5.168115            3.047983
| 44>   H                    : -8.352271            -6.800922            3.072266
| 45>   H                    : -8.955576            -6.037905            4.503444
| 46>   H                    : -9.506929            -7.765594            3.969996
| 47> *
| 48>
| 49> #Run DFT-D3 single point of the particle with dimer basis set
| 50> $new_job
| 51> %base "10-14_DFT_B"
| 52> ! wB97X-D3 def2-TZVP TIGHTSCF CHELPG PMODEL
| 53>
| 54> %scf
| 55> MaxIter 1000
| 56> end
| 57>
| 58> * xyz 0 1
| 59>   C                    : -8.336969            -4.600054            6.961619
| 60>   O                    : -7.406997            -4.718792            5.976221
| 61>   H                    : -6.557219            -5.068828            6.345814
| 62>   H                    : -9.026821            -3.757067            6.800029
| 63>   H                    : -9.068774            -5.485411            6.969378
| 64>   H                    : -7.848887            -4.496328            7.950912
| 65>   C                      -9.264148            -6.704669            3.638234
| 66>   O                      -10.321744           -6.155424            2.857024
| 67>   H                      -10.265053           -5.168115            3.047983
| 68>   H                      -8.352271            -6.800922            3.072266
| 69>   H                      -8.955576            -6.037905            4.503444
| 70>   H                      -9.506929            -7.765594            3.969996
| 71> *
| 72>
| 73>                          ****END OF INPUT****
 Total Charge           Charge          ....    0
 Multiplicity           Mult            ....    1
 Number of Electrons    NEL             ....   36
Dispersion correction           -0.001627573
FINAL SINGLE POINT ENERGY      -231.462594531025
Dispersion correction           -0.000243979
FINAL SINGLE POINT ENERGY      -115.730794923140

CARTESIAN COORDINATES (ANGSTROEM)
---------------------------------
  C     -8.336969   -4.600054    6.961619
  O     -7.406997   -4.718792    5.976221
  H     -6.557219   -5.068828    6.345814
  H     -9.026821   -3.757067    6.800029
  H     -9.068774   -5.485411    6.969378
  H     -7.848887   -4.496328    7.950912
  C     -9.264148   -6.704669    3.638234
  O    -10.321744   -6.155424    2.857024
  H    -10.265053   -5.168115    3.047983
  H     -8.352271   -6.800922    3.072266
  H     -8.955576   -6.037905    4.503444
  H     -9.506929   -7.765594    3.969996

 Multiplicity           Mult            ....    1
 Number of Electrons    NEL             ....   18
 Basis Dimension        Dim             ....  172

ORBITAL ENERGIES
----------------

  NO   OCC          E(Eh)            E(eV)
   0   2.0000     -19.237771      -523.4864
   1   2.0000     -10.321051      -280.8501
   2   2.0000      -1.128460       -30.7069
   3   2.0000      -0.786284       -21.3959
   4   2.0000      -0.605297       -16.4710
   5   2.0000      -0.531365       -14.4592
   6   2.0000      -0.523177       -14.2364
   7   2.0000      -0.439655       -11.9636
   8   2.0000      -0.371103       -10.0982
   9   0.0000       0.076016         2.0685
  10   0.0000       0.113234         3.0813
  11   0.0000       0.148930         4.0526
  12   0.0000       0.163698         4.4545
  13   0.0000       0.187654         5.1063

MULLIKEN ATOMIC CHARGES
-----------------------
   0 C :    0.002265
   1 O :    0.000104
   2 H :   -0.000141
   3 H :   -0.000546
   4 H :   -0.000825
   5 H :    0.000147
   6 C :   -0.166543
   7 O :   -0.465603
   8 H :    0.319294
   9 H :    0.109807
  10 H :    0.088253
  11 H :    0.113787
Sum of atomic charges:   -0.0000000

LOEWDIN ATOMIC CHARGES
----------------------
   0 C :   -0.006726
   1 O :   -0.004961
   2 H :   -0.000392
   3 H :   -0.000221
   4 H :   -0.002667
   5 H :   -0.000066
   6 C :   -0.393881
   7 O :   -0.103083
   8 H :    0.198890
   9 H :    0.090633
  10 H :    0.109253
  11 H :    0.113221

  Mayer bond orders larger than 0.1
B(  6-C ,  7-O ) :   1.0124 B(  6-C ,  9-H ) :   0.9710 B(  6-C , 10-H ) :   0.9871
B(  6-C , 11-H ) :   0.9750 B(  7-O ,  8-H ) :   0.8947

Dispersion correction           -0.000257349
FINAL SINGLE POINT ENERGY      -115.729397622882

DIPOLE MOMENT
-------------
                                X             Y             Z
Electronic contribution:     -1.50309       0.56679      -1.08745
Nuclear contribution   :      1.95482      -0.16762       1.49143
                        -----------------------------------------
Total Dipole Moment    :      0.45173       0.39916       0.40398
                        -----------------------------------------
Magnitude (a.u.)       :      0.72567
Magnitude (Debye)      :      1.84450

Rotational constants in cm-1:     4.085237     0.822792     0.775658
Rotational constants in MHz : 122472.333558 24666.694997 23253.631662

                             ****ORCA TERMINATED NORMALLY****
TOTAL RUN TIME: 0 days 0 hours 1 minutes 3 seconds 566 msec
