                         Program Version 4.1.2  - RELEASE  -
|  1> #Run DFT-D3 single point of the dimer
|  2> ! wB97X-D3 def2-TZVP TIGHTSCF CHELPG PMODEL PAL8
|  3>
|  4> %base "8-54_DFT_AB"
|  5>
|  6> %scf
|  7> MaxIter 1000
|  8> end
|  9>
| 10> * xyz 0 1
| 11>   C                      10.151555            8.697992             -2.113844
| 12>   O                      8.907114             8.041381             -1.854696
| 13>   H                      8.176294             8.540252             -2.215552
| 14>   H                      10.937525            7.939530             -1.949895
| 15>   H                      10.135819            9.106653             -3.162596
| 16>   H                      10.323929            9.538655             -1.477755
| 17>   C                      11.116157            5.458915             -5.061480
| 18>   O                      10.183481            5.123485             -6.074195
| 19>   H                      9.961826             5.825867             -6.695665
| 20>   H                      10.644142            5.808335             -4.153942
| 21>   H                      11.688472            4.583739             -4.837393
| 22>   H                      11.913405            6.102827             -5.442215
| 23> *
| 24>
| 25> #Run DFT-D3 single point of the molecule with dimer basis set
| 26> $new_job
| 27> %base "8-54_DFT_A"
| 28> ! wB97X-D3 def2-TZVP TIGHTSCF CHELPG PMODEL
| 29>
| 30> %scf
| 31> MaxIter 1000
| 32> end
| 33>
| 34> * xyz 0 1
| 35>   C                      10.151555            8.697992             -2.113844
| 36>   O                      8.907114             8.041381             -1.854696
| 37>   H                      8.176294             8.540252             -2.215552
| 38>   H                      10.937525            7.939530             -1.949895
| 39>   H                      10.135819            9.106653             -3.162596
| 40>   H                      10.323929            9.538655             -1.477755
| 41>   C                    : 11.116157            5.458915             -5.061480
| 42>   O                    : 10.183481            5.123485             -6.074195
| 43>   H                    : 9.961826             5.825867             -6.695665
| 44>   H                    : 10.644142            5.808335             -4.153942
| 45>   H                    : 11.688472            4.583739             -4.837393
| 46>   H                    : 11.913405            6.102827             -5.442215
| 47> *
| 48>
| 49> #Run DFT-D3 single point of the particle with dimer basis set
| 50> $new_job
| 51> %base "8-54_DFT_B"
| 52> ! wB97X-D3 def2-TZVP TIGHTSCF CHELPG PMODEL
| 53>
| 54> %scf
| 55> MaxIter 1000
| 56> end
| 57>
| 58> * xyz 0 1
| 59>   C                    : 10.151555            8.697992             -2.113844
| 60>   O                    : 8.907114             8.041381             -1.854696
| 61>   H                    : 8.176294             8.540252             -2.215552
| 62>   H                    : 10.937525            7.939530             -1.949895
| 63>   H                    : 10.135819            9.106653             -3.162596
| 64>   H                    : 10.323929            9.538655             -1.477755
| 65>   C                      11.116157            5.458915             -5.061480
| 66>   O                      10.183481            5.123485             -6.074195
| 67>   H                      9.961826             5.825867             -6.695665
| 68>   H                      10.644142            5.808335             -4.153942
| 69>   H                      11.688472            4.583739             -4.837393
| 70>   H                      11.913405            6.102827             -5.442215
| 71> *
| 72>
| 73>                          ****END OF INPUT****
 Total Charge           Charge          ....    0
 Multiplicity           Mult            ....    1
 Number of Electrons    NEL             ....   36
Dispersion correction           -0.001133938
FINAL SINGLE POINT ENERGY      -231.467923215222
Dispersion correction           -0.000247146
FINAL SINGLE POINT ENERGY      -115.734835070939

CARTESIAN COORDINATES (ANGSTROEM)
---------------------------------
  C     10.151555    8.697992   -2.113844
  O      8.907114    8.041381   -1.854696
  H      8.176294    8.540252   -2.215552
  H     10.937525    7.939530   -1.949895
  H     10.135819    9.106653   -3.162596
  H     10.323929    9.538655   -1.477755
  C     11.116157    5.458915   -5.061480
  O     10.183481    5.123485   -6.074195
  H      9.961826    5.825867   -6.695665
  H     10.644142    5.808335   -4.153942
  H     11.688472    4.583739   -4.837393
  H     11.913405    6.102827   -5.442215

 Multiplicity           Mult            ....    1
 Number of Electrons    NEL             ....   18
 Basis Dimension        Dim             ....  172

ORBITAL ENERGIES
----------------

  NO   OCC          E(Eh)            E(eV)
   0   2.0000     -19.225495      -523.1523
   1   2.0000     -10.309098      -280.5248
   2   2.0000      -1.127772       -30.6882
   3   2.0000      -0.802263       -21.8307
   4   2.0000      -0.608750       -16.5649
   5   2.0000      -0.550797       -14.9879
   6   2.0000      -0.524102       -14.2615
   7   2.0000      -0.417891       -11.3714
   8   2.0000      -0.375610       -10.2209
   9   0.0000       0.081996         2.2312
  10   0.0000       0.118777         3.2321
  11   0.0000       0.148762         4.0480
  12   0.0000       0.166424         4.5286
  13   0.0000       0.187085         5.0908

MULLIKEN ATOMIC CHARGES
-----------------------
   0 C :    0.000191
   1 O :   -0.000013
   2 H :   -0.000001
   3 H :   -0.000798
   4 H :    0.000013
   5 H :   -0.000034
   6 C :   -0.152067
   7 O :   -0.496604
   8 H :    0.319325
   9 H :    0.107789
  10 H :    0.118009
  11 H :    0.104190
Sum of atomic charges:    0.0000000

LOEWDIN ATOMIC CHARGES
----------------------
   0 C :   -0.001451
   1 O :   -0.000066
   2 H :   -0.000012
   3 H :   -0.000786
   4 H :   -0.000135
   5 H :   -0.000016
   6 C :   -0.377368
   7 O :   -0.085047
   8 H :    0.167335
   9 H :    0.094990
  10 H :    0.103760
  11 H :    0.098795

  Mayer bond orders larger than 0.1
B(  6-C ,  7-O ) :   1.0004 B(  6-C ,  9-H ) :   0.9741 B(  6-C , 10-H ) :   0.9717
B(  6-C , 11-H ) :   0.9815 B(  7-O ,  8-H ) :   0.8932

Dispersion correction           -0.000262436
FINAL SINGLE POINT ENERGY      -115.732521890540

DIPOLE MOMENT
-------------
                                X             Y             Z
Electronic contribution:     -1.25452      -0.43993      -1.16614
Nuclear contribution   :      1.53025       1.02366       1.16610
                        -----------------------------------------
Total Dipole Moment    :      0.27573       0.58373      -0.00003
                        -----------------------------------------
Magnitude (a.u.)       :      0.64557
Magnitude (Debye)      :      1.64092

Rotational constants in cm-1:     4.490663     0.813729     0.799398
Rotational constants in MHz : 134626.697679 24394.979933 23965.342726

                             ****ORCA TERMINATED NORMALLY****
TOTAL RUN TIME: 0 days 0 hours 0 minutes 43 seconds 196 msec
