                         Program Version 4.1.2  - RELEASE  -
|  1> #Run DFT-D3 single point of the dimer
|  2> ! wB97X-D3 def2-TZVP TIGHTSCF CHELPG PMODEL PAL8
|  3>
|  4> %base "18-211_DFT_AB"
|  5>
|  6> %scf
|  7> MaxIter 1000
|  8> end
|  9>
| 10> * xyz 0 1
| 11>   C                      9.594464             4.031848             -3.485780
| 12>   O                      9.433977             3.221107             -4.602122
| 13>   H                      8.485264             3.237819             -4.857603
| 14>   H                      10.137413            4.976285             -3.732843
| 15>   H                      8.576874             4.279058             -3.077147
| 16>   H                      10.282381            3.611429             -2.695346
| 17>   C                      6.587204             1.171888             -6.954228
| 18>   O                      7.272481             1.617615             -5.820720
| 19>   H                      7.049130             0.910350             -5.201823
| 20>   H                      5.526829             0.955679             -6.689810
| 21>   H                      6.637293             1.835727             -7.818890
| 22>   H                      6.945714             0.181787             -7.332958
| 23> *
| 24>
| 25> #Run DFT-D3 single point of the molecule with dimer basis set
| 26> $new_job
| 27> %base "18-211_DFT_A"
| 28> ! wB97X-D3 def2-TZVP TIGHTSCF CHELPG PMODEL
| 29>
| 30> %scf
| 31> MaxIter 1000
| 32> end
| 33>
| 34> * xyz 0 1
| 35>   C                      9.594464             4.031848             -3.485780
| 36>   O                      9.433977             3.221107             -4.602122
| 37>   H                      8.485264             3.237819             -4.857603
| 38>   H                      10.137413            4.976285             -3.732843
| 39>   H                      8.576874             4.279058             -3.077147
| 40>   H                      10.282381            3.611429             -2.695346
| 41>   C                    : 6.587204             1.171888             -6.954228
| 42>   O                    : 7.272481             1.617615             -5.820720
| 43>   H                    : 7.049130             0.910350             -5.201823
| 44>   H                    : 5.526829             0.955679             -6.689810
| 45>   H                    : 6.637293             1.835727             -7.818890
| 46>   H                    : 6.945714             0.181787             -7.332958
| 47> *
| 48>
| 49> #Run DFT-D3 single point of the particle with dimer basis set
| 50> $new_job
| 51> %base "18-211_DFT_B"
| 52> ! wB97X-D3 def2-TZVP TIGHTSCF CHELPG PMODEL
| 53>
| 54> %scf
| 55> MaxIter 1000
| 56> end
| 57>
| 58> * xyz 0 1
| 59>   C                    : 9.594464             4.031848             -3.485780
| 60>   O                    : 9.433977             3.221107             -4.602122
| 61>   H                    : 8.485264             3.237819             -4.857603
| 62>   H                    : 10.137413            4.976285             -3.732843
| 63>   H                    : 8.576874             4.279058             -3.077147
| 64>   H                    : 10.282381            3.611429             -2.695346
| 65>   C                      6.587204             1.171888             -6.954228
| 66>   O                      7.272481             1.617615             -5.820720
| 67>   H                      7.049130             0.910350             -5.201823
| 68>   H                      5.526829             0.955679             -6.689810
| 69>   H                      6.637293             1.835727             -7.818890
| 70>   H                      6.945714             0.181787             -7.332958
| 71> *
| 72>
| 73>                          ****END OF INPUT****
 Total Charge           Charge          ....    0
 Multiplicity           Mult            ....    1
 Number of Electrons    NEL             ....   36
Dispersion correction           -0.001259260
FINAL SINGLE POINT ENERGY      -231.467137104262
Dispersion correction           -0.000250950
FINAL SINGLE POINT ENERGY      -115.730698544086

CARTESIAN COORDINATES (ANGSTROEM)
---------------------------------
  C      9.594464    4.031848   -3.485780
  O      9.433977    3.221107   -4.602122
  H      8.485264    3.237819   -4.857603
  H     10.137413    4.976285   -3.732843
  H      8.576874    4.279058   -3.077147
  H     10.282381    3.611429   -2.695346
  C      6.587204    1.171888   -6.954228
  O      7.272481    1.617615   -5.820720
  H      7.049130    0.910350   -5.201823
  H      5.526829    0.955679   -6.689810
  H      6.637293    1.835727   -7.818890
  H      6.945714    0.181787   -7.332958

 Multiplicity           Mult            ....    1
 Number of Electrons    NEL             ....   18
 Basis Dimension        Dim             ....  172

ORBITAL ENERGIES
----------------

  NO   OCC          E(Eh)            E(eV)
   0   2.0000     -19.236921      -523.4632
   1   2.0000     -10.318006      -280.7672
   2   2.0000      -1.148695       -31.2576
   3   2.0000      -0.789409       -21.4809
   4   2.0000      -0.615614       -16.7517
   5   2.0000      -0.540069       -14.6960
   6   2.0000      -0.530541       -14.4367
   7   2.0000      -0.443921       -12.0797
   8   2.0000      -0.371082       -10.0977
   9   0.0000       0.098471         2.6795
  10   0.0000       0.115483         3.1424
  11   0.0000       0.153776         4.1845
  12   0.0000       0.192767         5.2455
  13   0.0000       0.199775         5.4362

MULLIKEN ATOMIC CHARGES
-----------------------
   0 C :    0.000765
   1 O :    0.000824
   2 H :   -0.011716
   3 H :   -0.000057
   4 H :   -0.000234
   5 H :    0.000027
   6 C :   -0.173594
   7 O :   -0.442484
   8 H :    0.316912
   9 H :    0.097137
  10 H :    0.122460
  11 H :    0.089960
Sum of atomic charges:    0.0000000

LOEWDIN ATOMIC CHARGES
----------------------
   0 C :   -0.000439
   1 O :   -0.005614
   2 H :   -0.021996
   3 H :   -0.000009
   4 H :   -0.000059
   5 H :   -0.000004
   6 C :   -0.410152
   7 O :   -0.042132
   8 H :    0.182182
   9 H :    0.096982
  10 H :    0.106359
  11 H :    0.094882

  Mayer bond orders larger than 0.1
B(  6-C ,  7-O ) :   0.9957 B(  6-C ,  9-H ) :   0.9806 B(  6-C , 10-H ) :   0.9746
B(  6-C , 11-H ) :   0.9706 B(  7-O ,  8-H ) :   0.8968

Dispersion correction           -0.000220578
FINAL SINGLE POINT ENERGY      -115.732163937372

DIPOLE MOMENT
-------------
                                X             Y             Z
Electronic contribution:      1.04285       0.89228       1.43303
Nuclear contribution   :     -1.43459      -1.49090      -1.48160
                        -----------------------------------------
Total Dipole Moment    :     -0.39174      -0.59863      -0.04857
                        -----------------------------------------
Magnitude (a.u.)       :      0.71706
Magnitude (Debye)      :      1.82262

Rotational constants in cm-1:     4.220929     0.850338     0.810625
Rotational constants in MHz : 126540.268961 25492.479692 24301.921314

                             ****ORCA TERMINATED NORMALLY****
TOTAL RUN TIME: 0 days 0 hours 1 minutes 6 seconds 549 msec
