                         Program Version 4.1.2  - RELEASE  -
|  1> #Run DFT-D3 single point of the dimer
|  2> ! wB97X-D3 def2-TZVP TIGHTSCF CHELPG PMODEL PAL8
|  3>
|  4> %base "22-131_DFT_AB"
|  5>
|  6> %scf
|  7> MaxIter 1000
|  8> end
|  9>
| 10> * xyz 0 1
| 11>   C                      -0.749633            2.416253             -3.313901
| 12>   O                      -0.861180            1.452458             -2.250456
| 13>   H                      0.018248             1.215378             -2.084135
| 14>   H                      -1.723585            2.657808             -3.810069
| 15>   H                      -0.325219            3.272619             -2.879507
| 16>   H                      -0.054227            2.091398             -4.053934
| 17>   C                      2.296630             -0.274171            1.603037
| 18>   O                      1.996984             0.535547             0.414808
| 19>   H                      1.250259             1.158687             0.614377
| 20>   H                      3.130297             -1.028135            1.464270
| 21>   H                      2.630375             0.364142             2.427170
| 22>   H                      1.420406             -0.880692            1.852502
| 23> *
| 24>
| 25> #Run DFT-D3 single point of the molecule with dimer basis set
| 26> $new_job
| 27> %base "22-131_DFT_A"
| 28> ! wB97X-D3 def2-TZVP TIGHTSCF CHELPG PMODEL
| 29>
| 30> %scf
| 31> MaxIter 1000
| 32> end
| 33>
| 34> * xyz 0 1
| 35>   C                      -0.749633            2.416253             -3.313901
| 36>   O                      -0.861180            1.452458             -2.250456
| 37>   H                      0.018248             1.215378             -2.084135
| 38>   H                      -1.723585            2.657808             -3.810069
| 39>   H                      -0.325219            3.272619             -2.879507
| 40>   H                      -0.054227            2.091398             -4.053934
| 41>   C                    : 2.296630             -0.274171            1.603037
| 42>   O                    : 1.996984             0.535547             0.414808
| 43>   H                    : 1.250259             1.158687             0.614377
| 44>   H                    : 3.130297             -1.028135            1.464270
| 45>   H                    : 2.630375             0.364142             2.427170
| 46>   H                    : 1.420406             -0.880692            1.852502
| 47> *
| 48>
| 49> #Run DFT-D3 single point of the particle with dimer basis set
| 50> $new_job
| 51> %base "22-131_DFT_B"
| 52> ! wB97X-D3 def2-TZVP TIGHTSCF CHELPG PMODEL
| 53>
| 54> %scf
| 55> MaxIter 1000
| 56> end
| 57>
| 58> * xyz 0 1
| 59>   C                    : -0.749633            2.416253             -3.313901
| 60>   O                    : -0.861180            1.452458             -2.250456
| 61>   H                    : 0.018248             1.215378             -2.084135
| 62>   H                    : -1.723585            2.657808             -3.810069
| 63>   H                    : -0.325219            3.272619             -2.879507
| 64>   H                    : -0.054227            2.091398             -4.053934
| 65>   C                      2.296630             -0.274171            1.603037
| 66>   O                      1.996984             0.535547             0.414808
| 67>   H                      1.250259             1.158687             0.614377
| 68>   H                      3.130297             -1.028135            1.464270
| 69>   H                      2.630375             0.364142             2.427170
| 70>   H                      1.420406             -0.880692            1.852502
| 71> *
| 72>
| 73>                          ****END OF INPUT****
 Total Charge           Charge          ....    0
 Multiplicity           Mult            ....    1
 Number of Electrons    NEL             ....   36
Dispersion correction           -0.000959101
FINAL SINGLE POINT ENERGY      -231.463174090562
Dispersion correction           -0.000216039
FINAL SINGLE POINT ENERGY      -115.730251019331

CARTESIAN COORDINATES (ANGSTROEM)
---------------------------------
  C     -0.749633    2.416253   -3.313901
  O     -0.861180    1.452458   -2.250456
  H      0.018248    1.215378   -2.084135
  H     -1.723585    2.657808   -3.810069
  H     -0.325219    3.272619   -2.879507
  H     -0.054227    2.091398   -4.053934
  C      2.296630   -0.274171    1.603037
  O      1.996984    0.535547    0.414808
  H      1.250259    1.158687    0.614377
  H      3.130297   -1.028135    1.464270
  H      2.630375    0.364142    2.427170
  H      1.420406   -0.880692    1.852502

 Multiplicity           Mult            ....    1
 Number of Electrons    NEL             ....   18
 Basis Dimension        Dim             ....  172

ORBITAL ENERGIES
----------------

  NO   OCC          E(Eh)            E(eV)
   0   2.0000     -19.232264      -523.3365
   1   2.0000     -10.322747      -280.8962
   2   2.0000      -1.112788       -30.2805
   3   2.0000      -0.793166       -21.5831
   4   2.0000      -0.593040       -16.1374
   5   2.0000      -0.542720       -14.7682
   6   2.0000      -0.519169       -14.1273
   7   2.0000      -0.425990       -11.5918
   8   2.0000      -0.375630       -10.2214
   9   0.0000       0.087526         2.3817
  10   0.0000       0.115649         3.1470
  11   0.0000       0.143453         3.9036
  12   0.0000       0.186399         5.0722
  13   0.0000       0.198926         5.4130

MULLIKEN ATOMIC CHARGES
-----------------------
   0 C :    0.000448
   1 O :    0.000219
   2 H :   -0.004042
   3 H :    0.000008
   4 H :   -0.000048
   5 H :   -0.000032
   6 C :   -0.177355
   7 O :   -0.489838
   8 H :    0.319873
   9 H :    0.122779
  10 H :    0.114192
  11 H :    0.113795
Sum of atomic charges:   -0.0000000

LOEWDIN ATOMIC CHARGES
----------------------
   0 C :   -0.000031
   1 O :   -0.000199
   2 H :   -0.002632
   3 H :   -0.000001
   4 H :   -0.000003
   5 H :   -0.000001
   6 C :   -0.356442
   7 O :   -0.133819
   8 H :    0.183754
   9 H :    0.116197
  10 H :    0.096434
  11 H :    0.096745

  Mayer bond orders larger than 0.1
B(  6-C ,  7-O ) :   0.9887 B(  6-C ,  9-H ) :   0.9698 B(  6-C , 10-H ) :   0.9736
B(  6-C , 11-H ) :   0.9760 B(  7-O ,  8-H ) :   0.8903

Dispersion correction           -0.000277107
FINAL SINGLE POINT ENERGY      -115.730492338014

DIPOLE MOMENT
-------------
                                X             Y             Z
Electronic contribution:     -0.26690       0.95764      -1.52519
Nuclear contribution   :     -0.05974      -0.92872       2.17356
                        -----------------------------------------
Total Dipole Moment    :     -0.32664       0.02893       0.64836
                        -----------------------------------------
Magnitude (a.u.)       :      0.72657
Magnitude (Debye)      :      1.84679

Rotational constants in cm-1:     4.231105     0.768250     0.747339
Rotational constants in MHz : 126845.341093 23031.556240 22404.652749

                             ****ORCA TERMINATED NORMALLY****
TOTAL RUN TIME: 0 days 0 hours 0 minutes 54 seconds 618 msec
