                         Program Version 4.1.2  - RELEASE  -
|  1> #Run DFT-D3 single point of the dimer
|  2> ! wB97X-D3 def2-TZVP TIGHTSCF CHELPG PMODEL PAL8
|  3>
|  4> %base "22-72_DFT_AB"
|  5>
|  6> %scf
|  7> MaxIter 1000
|  8> end
|  9>
| 10> * xyz 0 1
| 11>   C                      -3.152113            -1.685180            5.511687
| 12>   O                      -3.578452            -2.644021            4.578806
| 13>   H                      -2.831220            -3.224825            4.420491
| 14>   H                      -2.231712            -1.127083            5.128433
| 15>   H                      -3.887088            -1.022022            5.889255
| 16>   H                      -2.718246            -2.180419            6.352590
| 17>   C                      -6.372342            -1.014732            6.938762
| 18>   O                      -5.634204            -1.266209            8.100461
| 19>   H                      -5.812488            -2.188515            8.332082
| 20>   H                      -7.397570            -0.775769            7.160779
| 21>   H                      -5.957204            -0.257292            6.274746
| 22>   H                      -6.374269            -1.879775            6.204587
| 23> *
| 24>
| 25> #Run DFT-D3 single point of the molecule with dimer basis set
| 26> $new_job
| 27> %base "22-72_DFT_A"
| 28> ! wB97X-D3 def2-TZVP TIGHTSCF CHELPG PMODEL
| 29>
| 30> %scf
| 31> MaxIter 1000
| 32> end
| 33>
| 34> * xyz 0 1
| 35>   C                      -3.152113            -1.685180            5.511687
| 36>   O                      -3.578452            -2.644021            4.578806
| 37>   H                      -2.831220            -3.224825            4.420491
| 38>   H                      -2.231712            -1.127083            5.128433
| 39>   H                      -3.887088            -1.022022            5.889255
| 40>   H                      -2.718246            -2.180419            6.352590
| 41>   C                    : -6.372342            -1.014732            6.938762
| 42>   O                    : -5.634204            -1.266209            8.100461
| 43>   H                    : -5.812488            -2.188515            8.332082
| 44>   H                    : -7.397570            -0.775769            7.160779
| 45>   H                    : -5.957204            -0.257292            6.274746
| 46>   H                    : -6.374269            -1.879775            6.204587
| 47> *
| 48>
| 49> #Run DFT-D3 single point of the particle with dimer basis set
| 50> $new_job
| 51> %base "22-72_DFT_B"
| 52> ! wB97X-D3 def2-TZVP TIGHTSCF CHELPG PMODEL
| 53>
| 54> %scf
| 55> MaxIter 1000
| 56> end
| 57>
| 58> * xyz 0 1
| 59>   C                    : -3.152113            -1.685180            5.511687
| 60>   O                    : -3.578452            -2.644021            4.578806
| 61>   H                    : -2.831220            -3.224825            4.420491
| 62>   H                    : -2.231712            -1.127083            5.128433
| 63>   H                    : -3.887088            -1.022022            5.889255
| 64>   H                    : -2.718246            -2.180419            6.352590
| 65>   C                      -6.372342            -1.014732            6.938762
| 66>   O                      -5.634204            -1.266209            8.100461
| 67>   H                      -5.812488            -2.188515            8.332082
| 68>   H                      -7.397570            -0.775769            7.160779
| 69>   H                      -5.957204            -0.257292            6.274746
| 70>   H                      -6.374269            -1.879775            6.204587
| 71> *
| 72>
| 73>                          ****END OF INPUT****
 Total Charge           Charge          ....    0
 Multiplicity           Mult            ....    1
 Number of Electrons    NEL             ....   36
Dispersion correction           -0.001900606
FINAL SINGLE POINT ENERGY      -231.464374921562
Dispersion correction           -0.000223718
FINAL SINGLE POINT ENERGY      -115.729931994861

CARTESIAN COORDINATES (ANGSTROEM)
---------------------------------
  C     -3.152113   -1.685180    5.511687
  O     -3.578452   -2.644021    4.578806
  H     -2.831220   -3.224825    4.420491
  H     -2.231712   -1.127083    5.128433
  H     -3.887088   -1.022022    5.889255
  H     -2.718246   -2.180419    6.352590
  C     -6.372342   -1.014732    6.938762
  O     -5.634204   -1.266209    8.100461
  H     -5.812488   -2.188515    8.332082
  H     -7.397570   -0.775769    7.160779
  H     -5.957204   -0.257292    6.274746
  H     -6.374269   -1.879775    6.204587

 Multiplicity           Mult            ....    1
 Number of Electrons    NEL             ....   18
 Basis Dimension        Dim             ....  172

ORBITAL ENERGIES
----------------

  NO   OCC          E(Eh)            E(eV)
   0   2.0000     -19.234819      -523.4060
   1   2.0000     -10.314099      -280.6609
   2   2.0000      -1.142507       -31.0892
   3   2.0000      -0.794572       -21.6214
   4   2.0000      -0.612820       -16.6757
   5   2.0000      -0.550161       -14.9707
   6   2.0000      -0.526285       -14.3209
   7   2.0000      -0.426995       -11.6191
   8   2.0000      -0.377109       -10.2616
   9   0.0000       0.086848         2.3633
  10   0.0000       0.122271         3.3272
  11   0.0000       0.149472         4.0673
  12   0.0000       0.168452         4.5838
  13   0.0000       0.202327         5.5056

MULLIKEN ATOMIC CHARGES
-----------------------
   0 C :   -0.002843
   1 O :   -0.000220
   2 H :   -0.000022
   3 H :   -0.000005
   4 H :    0.005954
   5 H :   -0.001720
   6 C :   -0.190038
   7 O :   -0.468917
   8 H :    0.321122
   9 H :    0.117409
  10 H :    0.120030
  11 H :    0.099250
Sum of atomic charges:    0.0000000

LOEWDIN ATOMIC CHARGES
----------------------
   0 C :   -0.007105
   1 O :   -0.000334
   2 H :   -0.000016
   3 H :   -0.000025
   4 H :   -0.006774
   5 H :   -0.000924
   6 C :   -0.404266
   7 O :   -0.062859
   8 H :    0.179405
   9 H :    0.091471
  10 H :    0.108567
  11 H :    0.102858

  Mayer bond orders larger than 0.1
B(  6-C ,  7-O ) :   0.9933 B(  6-C ,  9-H ) :   0.9747 B(  6-C , 10-H ) :   0.9750
B(  6-C , 11-H ) :   0.9836 B(  7-O ,  8-H ) :   0.8954

Dispersion correction           -0.000244597
FINAL SINGLE POINT ENERGY      -115.732435966315

DIPOLE MOMENT
-------------
                                X             Y             Z
Electronic contribution:      1.03458      -0.09612       1.68207
Nuclear contribution   :     -1.42040      -0.38508      -1.99018
                        -----------------------------------------
Total Dipole Moment    :     -0.38581      -0.48120      -0.30810
                        -----------------------------------------
Magnitude (a.u.)       :      0.68945
Magnitude (Debye)      :      1.75243

Rotational constants in cm-1:     4.360993     0.831575     0.808894
Rotational constants in MHz : 130739.281319 24929.988363 24250.027109

                             ****ORCA TERMINATED NORMALLY****
TOTAL RUN TIME: 0 days 0 hours 0 minutes 57 seconds 846 msec
