                         Program Version 4.1.2  - RELEASE  -
|  1> #Run DFT-D3 single point of the dimer
|  2> ! wB97X-D3 def2-TZVP TIGHTSCF CHELPG PMODEL PAL8
|  3>
|  4> %base "18-8_DFT_AB"
|  5>
|  6> %scf
|  7> MaxIter 1000
|  8> end
|  9>
| 10> * xyz 0 1
| 11>   C                      0.886549             0.822237             10.406532
| 12>   O                      -0.359793            0.971877             9.692236
| 13>   H                      -0.550626            0.048280             9.716713
| 14>   H                      1.518922             1.710716             10.116938
| 15>   H                      0.664286             0.723875             11.450918
| 16>   H                      1.397309             -0.146132            10.165140
| 17>   C                      -3.528699            -0.465896            9.810445
| 18>   O                      -2.873749            0.137173             10.908916
| 19>   H                      -2.248066            0.745809             10.522661
| 20>   H                      -2.938057            -0.482912            8.871081
| 21>   H                      -3.683485            -1.523379            9.932027
| 22>   H                      -4.535832            -0.016877            9.543679
| 23> *
| 24>
| 25> #Run DFT-D3 single point of the molecule with dimer basis set
| 26> $new_job
| 27> %base "18-8_DFT_A"
| 28> ! wB97X-D3 def2-TZVP TIGHTSCF CHELPG PMODEL
| 29>
| 30> %scf
| 31> MaxIter 1000
| 32> end
| 33>
| 34> * xyz 0 1
| 35>   C                      0.886549             0.822237             10.406532
| 36>   O                      -0.359793            0.971877             9.692236
| 37>   H                      -0.550626            0.048280             9.716713
| 38>   H                      1.518922             1.710716             10.116938
| 39>   H                      0.664286             0.723875             11.450918
| 40>   H                      1.397309             -0.146132            10.165140
| 41>   C                    : -3.528699            -0.465896            9.810445
| 42>   O                    : -2.873749            0.137173             10.908916
| 43>   H                    : -2.248066            0.745809             10.522661
| 44>   H                    : -2.938057            -0.482912            8.871081
| 45>   H                    : -3.683485            -1.523379            9.932027
| 46>   H                    : -4.535832            -0.016877            9.543679
| 47> *
| 48>
| 49> #Run DFT-D3 single point of the particle with dimer basis set
| 50> $new_job
| 51> %base "18-8_DFT_B"
| 52> ! wB97X-D3 def2-TZVP TIGHTSCF CHELPG PMODEL
| 53>
| 54> %scf
| 55> MaxIter 1000
| 56> end
| 57>
| 58> * xyz 0 1
| 59>   C                    : 0.886549             0.822237             10.406532
| 60>   O                    : -0.359793            0.971877             9.692236
| 61>   H                    : -0.550626            0.048280             9.716713
| 62>   H                    : 1.518922             1.710716             10.116938
| 63>   H                    : 0.664286             0.723875             11.450918
| 64>   H                    : 1.397309             -0.146132            10.165140
| 65>   C                      -3.528699            -0.465896            9.810445
| 66>   O                      -2.873749            0.137173             10.908916
| 67>   H                      -2.248066            0.745809             10.522661
| 68>   H                      -2.938057            -0.482912            8.871081
| 69>   H                      -3.683485            -1.523379            9.932027
| 70>   H                      -4.535832            -0.016877            9.543679
| 71> *
| 72>
| 73>                          ****END OF INPUT****
 Total Charge           Charge          ....    0
 Multiplicity           Mult            ....    1
 Number of Electrons    NEL             ....   36
Dispersion correction           -0.001789531
FINAL SINGLE POINT ENERGY      -231.465075556676
Dispersion correction           -0.000209488
FINAL SINGLE POINT ENERGY      -115.726403909687

CARTESIAN COORDINATES (ANGSTROEM)
---------------------------------
  C      0.886549    0.822237   10.406532
  O     -0.359793    0.971877    9.692236
  H     -0.550626    0.048280    9.716713
  H      1.518922    1.710716   10.116938
  H      0.664286    0.723875   11.450918
  H      1.397309   -0.146132   10.165140
  C     -3.528699   -0.465896    9.810445
  O     -2.873749    0.137173   10.908916
  H     -2.248066    0.745809   10.522661
  H     -2.938057   -0.482912    8.871081
  H     -3.683485   -1.523379    9.932027
  H     -4.535832   -0.016877    9.543679

 Multiplicity           Mult            ....    1
 Number of Electrons    NEL             ....   18
 Basis Dimension        Dim             ....  172

ORBITAL ENERGIES
----------------

  NO   OCC          E(Eh)            E(eV)
   0   2.0000     -19.237055      -523.4669
   1   2.0000     -10.317607      -280.7564
   2   2.0000      -1.142312       -31.0839
   3   2.0000      -0.795786       -21.6544
   4   2.0000      -0.615106       -16.7379
   5   2.0000      -0.538529       -14.6541
   6   2.0000      -0.526763       -14.3339
   7   2.0000      -0.433953       -11.8085
   8   2.0000      -0.378703       -10.3050
   9   0.0000       0.076901         2.0926
  10   0.0000       0.127932         3.4812
  11   0.0000       0.148069         4.0292
  12   0.0000       0.182803         4.9743
  13   0.0000       0.187336         5.0977

MULLIKEN ATOMIC CHARGES
-----------------------
   0 C :   -0.000356
   1 O :   -0.003380
   2 H :   -0.004425
   3 H :    0.000000
   4 H :   -0.001153
   5 H :    0.000188
   6 C :   -0.182948
   7 O :   -0.453759
   8 H :    0.318301
   9 H :    0.104876
  10 H :    0.119088
  11 H :    0.103567
Sum of atomic charges:   -0.0000000

LOEWDIN ATOMIC CHARGES
----------------------
   0 C :   -0.002390
   1 O :   -0.013910
   2 H :   -0.008717
   3 H :   -0.000046
   4 H :   -0.000552
   5 H :   -0.000024
   6 C :   -0.397982
   7 O :   -0.054144
   8 H :    0.174735
   9 H :    0.099910
  10 H :    0.100274
  11 H :    0.102847

  Mayer bond orders larger than 0.1
B(  6-C ,  7-O ) :   1.0079 B(  6-C ,  9-H ) :   0.9787 B(  6-C , 10-H ) :   0.9722
B(  6-C , 11-H ) :   0.9763 B(  7-O ,  8-H ) :   0.9039

Dispersion correction           -0.000266439
FINAL SINGLE POINT ENERGY      -115.732604682791

DIPOLE MOMENT
-------------
                                X             Y             Z
Electronic contribution:      0.80637       0.76588       1.68188
Nuclear contribution   :     -0.64095      -0.64505      -2.35534
                        -----------------------------------------
Total Dipole Moment    :      0.16542       0.12083      -0.67345
                        -----------------------------------------
Magnitude (a.u.)       :      0.70392
Magnitude (Debye)      :      1.78923

Rotational constants in cm-1:     4.372160     0.813447     0.792779
Rotational constants in MHz : 131074.064033 24386.523272 23766.926004

                             ****ORCA TERMINATED NORMALLY****
TOTAL RUN TIME: 0 days 0 hours 1 minutes 5 seconds 718 msec
