                         Program Version 4.1.2  - RELEASE  -
|  1> #Run DFT-D3 single point of the dimer
|  2> ! wB97X-D3 def2-TZVP TIGHTSCF CHELPG PMODEL PAL8
|  3>
|  4> %base "6-179_DFT_AB"
|  5>
|  6> %scf
|  7> MaxIter 1000
|  8> end
|  9>
| 10> * xyz 0 1
| 11>   C                      9.729221             -4.121742            -1.723665
| 12>   O                      9.536180             -4.272929            -3.104780
| 13>   H                      10.035135            -5.033447            -3.455573
| 14>   H                      10.036066            -5.072209            -1.324643
| 15>   H                      10.472148            -3.376382            -1.454949
| 16>   H                      8.885375             -3.866935            -1.091735
| 17>   C                      7.449165             -7.833267            -3.684489
| 18>   O                      8.673282             -7.312019            -3.276682
| 19>   H                      8.453897             -6.609753            -2.633320
| 20>   H                      7.556963             -8.725010            -4.270334
| 21>   H                      6.723539             -8.104884            -2.806945
| 22>   H                      6.928298             -7.117201            -4.257824
| 23> *
| 24>
| 25> #Run DFT-D3 single point of the molecule with dimer basis set
| 26> $new_job
| 27> %base "6-179_DFT_A"
| 28> ! wB97X-D3 def2-TZVP TIGHTSCF CHELPG PMODEL
| 29>
| 30> %scf
| 31> MaxIter 1000
| 32> end
| 33>
| 34> * xyz 0 1
| 35>   C                      9.729221             -4.121742            -1.723665
| 36>   O                      9.536180             -4.272929            -3.104780
| 37>   H                      10.035135            -5.033447            -3.455573
| 38>   H                      10.036066            -5.072209            -1.324643
| 39>   H                      10.472148            -3.376382            -1.454949
| 40>   H                      8.885375             -3.866935            -1.091735
| 41>   C                    : 7.449165             -7.833267            -3.684489
| 42>   O                    : 8.673282             -7.312019            -3.276682
| 43>   H                    : 8.453897             -6.609753            -2.633320
| 44>   H                    : 7.556963             -8.725010            -4.270334
| 45>   H                    : 6.723539             -8.104884            -2.806945
| 46>   H                    : 6.928298             -7.117201            -4.257824
| 47> *
| 48>
| 49> #Run DFT-D3 single point of the particle with dimer basis set
| 50> $new_job
| 51> %base "6-179_DFT_B"
| 52> ! wB97X-D3 def2-TZVP TIGHTSCF CHELPG PMODEL
| 53>
| 54> %scf
| 55> MaxIter 1000
| 56> end
| 57>
| 58> * xyz 0 1
| 59>   C                    : 9.729221             -4.121742            -1.723665
| 60>   O                    : 9.536180             -4.272929            -3.104780
| 61>   H                    : 10.035135            -5.033447            -3.455573
| 62>   H                    : 10.036066            -5.072209            -1.324643
| 63>   H                    : 10.472148            -3.376382            -1.454949
| 64>   H                    : 8.885375             -3.866935            -1.091735
| 65>   C                      7.449165             -7.833267            -3.684489
| 66>   O                      8.673282             -7.312019            -3.276682
| 67>   H                      8.453897             -6.609753            -2.633320
| 68>   H                      7.556963             -8.725010            -4.270334
| 69>   H                      6.723539             -8.104884            -2.806945
| 70>   H                      6.928298             -7.117201            -4.257824
| 71> *
| 72>
| 73>                          ****END OF INPUT****
 Total Charge           Charge          ....    0
 Multiplicity           Mult            ....    1
 Number of Electrons    NEL             ....   36
Dispersion correction           -0.001724130
FINAL SINGLE POINT ENERGY      -231.466334616487
Dispersion correction           -0.000252507
FINAL SINGLE POINT ENERGY      -115.730505437296

CARTESIAN COORDINATES (ANGSTROEM)
---------------------------------
  C      9.729221   -4.121742   -1.723665
  O      9.536180   -4.272929   -3.104780
  H     10.035135   -5.033447   -3.455573
  H     10.036066   -5.072209   -1.324643
  H     10.472148   -3.376382   -1.454949
  H      8.885375   -3.866935   -1.091735
  C      7.449165   -7.833267   -3.684489
  O      8.673282   -7.312019   -3.276682
  H      8.453897   -6.609753   -2.633320
  H      7.556963   -8.725010   -4.270334
  H      6.723539   -8.104884   -2.806945
  H      6.928298   -7.117201   -4.257824

 Multiplicity           Mult            ....    1
 Number of Electrons    NEL             ....   18
 Basis Dimension        Dim             ....  172

ORBITAL ENERGIES
----------------

  NO   OCC          E(Eh)            E(eV)
   0   2.0000     -19.235668      -523.4291
   1   2.0000     -10.312569      -280.6193
   2   2.0000      -1.143923       -31.1277
   3   2.0000      -0.793114       -21.5817
   4   2.0000      -0.613985       -16.7074
   5   2.0000      -0.543934       -14.8012
   6   2.0000      -0.531150       -14.4533
   7   2.0000      -0.436034       -11.8651
   8   2.0000      -0.372038       -10.1237
   9   0.0000       0.077578         2.1110
  10   0.0000       0.128594         3.4992
  11   0.0000       0.156740         4.2651
  12   0.0000       0.169366         4.6087
  13   0.0000       0.192964         5.2508

MULLIKEN ATOMIC CHARGES
-----------------------
   0 C :   -0.001301
   1 O :   -0.001750
   2 H :   -0.004348
   3 H :   -0.000505
   4 H :    0.000023
   5 H :    0.000039
   6 C :   -0.177096
   7 O :   -0.454752
   8 H :    0.321159
   9 H :    0.122123
  10 H :    0.089558
  11 H :    0.106850
Sum of atomic charges:   -0.0000000

LOEWDIN ATOMIC CHARGES
----------------------
   0 C :   -0.004299
   1 O :   -0.004019
   2 H :   -0.008253
   3 H :   -0.001227
   4 H :   -0.000057
   5 H :   -0.000173
   6 C :   -0.406870
   7 O :   -0.054151
   8 H :    0.187845
   9 H :    0.103027
  10 H :    0.103441
  11 H :    0.084735

  Mayer bond orders larger than 0.1
B(  6-C ,  7-O ) :   1.0065 B(  6-C ,  9-H ) :   0.9723 B(  6-C , 10-H ) :   0.9775
B(  6-C , 11-H ) :   0.9766 B(  7-O ,  8-H ) :   0.8943

Dispersion correction           -0.000231438
FINAL SINGLE POINT ENERGY      -115.731773440563

DIPOLE MOMENT
-------------
                                X             Y             Z
Electronic contribution:      1.80396       0.57049       0.34317
Nuclear contribution   :     -2.39446      -0.33661      -0.13037
                        -----------------------------------------
Total Dipole Moment    :     -0.59050       0.23388       0.21281
                        -----------------------------------------
Magnitude (a.u.)       :      0.66983
Magnitude (Debye)      :      1.70258

Rotational constants in cm-1:     4.266838     0.851277     0.815067
Rotational constants in MHz : 127916.595211 25520.646167 24435.086634

                             ****ORCA TERMINATED NORMALLY****
TOTAL RUN TIME: 0 days 0 hours 1 minutes 8 seconds 665 msec
