                         Program Version 4.1.2  - RELEASE  -
|  1> #Run DFT-D3 single point of the dimer
|  2> ! wB97X-D3 def2-TZVP TIGHTSCF CHELPG PMODEL PAL8
|  3>
|  4> %base "16-173_DFT_AB"
|  5>
|  6> %scf
|  7> MaxIter 1000
|  8> end
|  9>
| 10> * xyz 0 1
| 11>   C                      -3.362429            -10.624010           2.447087
| 12>   O                      -2.114326            -10.397029           1.861967
| 13>   H                      -1.490704            -10.338248           2.606622
| 14>   H                      -3.628185            -9.688720            2.997938
| 15>   H                      -4.220479            -10.901537           1.786681
| 16>   H                      -3.388705            -11.407834           3.232924
| 17>   C                      -1.471844            -7.273723            0.057177
| 18>   O                      -2.592648            -7.401229            0.927050
| 19>   H                      -2.462836            -8.147191            1.506804
| 20>   H                      -0.583023            -6.910695            0.610701
| 21>   H                      -1.283247            -8.174641            -0.447536
| 22>   H                      -1.621950            -6.560480            -0.744089
| 23> *
| 24>
| 25> #Run DFT-D3 single point of the molecule with dimer basis set
| 26> $new_job
| 27> %base "16-173_DFT_A"
| 28> ! wB97X-D3 def2-TZVP TIGHTSCF CHELPG PMODEL
| 29>
| 30> %scf
| 31> MaxIter 1000
| 32> end
| 33>
| 34> * xyz 0 1
| 35>   C                      -3.362429            -10.624010           2.447087
| 36>   O                      -2.114326            -10.397029           1.861967
| 37>   H                      -1.490704            -10.338248           2.606622
| 38>   H                      -3.628185            -9.688720            2.997938
| 39>   H                      -4.220479            -10.901537           1.786681
| 40>   H                      -3.388705            -11.407834           3.232924
| 41>   C                    : -1.471844            -7.273723            0.057177
| 42>   O                    : -2.592648            -7.401229            0.927050
| 43>   H                    : -2.462836            -8.147191            1.506804
| 44>   H                    : -0.583023            -6.910695            0.610701
| 45>   H                    : -1.283247            -8.174641            -0.447536
| 46>   H                    : -1.621950            -6.560480            -0.744089
| 47> *
| 48>
| 49> #Run DFT-D3 single point of the particle with dimer basis set
| 50> $new_job
| 51> %base "16-173_DFT_B"
| 52> ! wB97X-D3 def2-TZVP TIGHTSCF CHELPG PMODEL
| 53>
| 54> %scf
| 55> MaxIter 1000
| 56> end
| 57>
| 58> * xyz 0 1
| 59>   C                    : -3.362429            -10.624010           2.447087
| 60>   O                    : -2.114326            -10.397029           1.861967
| 61>   H                    : -1.490704            -10.338248           2.606622
| 62>   H                    : -3.628185            -9.688720            2.997938
| 63>   H                    : -4.220479            -10.901537           1.786681
| 64>   H                    : -3.388705            -11.407834           3.232924
| 65>   C                      -1.471844            -7.273723            0.057177
| 66>   O                      -2.592648            -7.401229            0.927050
| 67>   H                      -2.462836            -8.147191            1.506804
| 68>   H                      -0.583023            -6.910695            0.610701
| 69>   H                      -1.283247            -8.174641            -0.447536
| 70>   H                      -1.621950            -6.560480            -0.744089
| 71> *
| 72>
| 73>                          ****END OF INPUT****
 Total Charge           Charge          ....    0
 Multiplicity           Mult            ....    1
 Number of Electrons    NEL             ....   36
Dispersion correction           -0.001785348
FINAL SINGLE POINT ENERGY      -231.469869881691
Dispersion correction           -0.000238368
FINAL SINGLE POINT ENERGY      -115.730731199475

CARTESIAN COORDINATES (ANGSTROEM)
---------------------------------
  C     -3.362429  -10.624010    2.447087
  O     -2.114326  -10.397029    1.861967
  H     -1.490704  -10.338248    2.606622
  H     -3.628185   -9.688720    2.997938
  H     -4.220479  -10.901537    1.786681
  H     -3.388705  -11.407834    3.232924
  C     -1.471844   -7.273723    0.057177
  O     -2.592648   -7.401229    0.927050
  H     -2.462836   -8.147191    1.506804
  H     -0.583023   -6.910695    0.610701
  H     -1.283247   -8.174641   -0.447536
  H     -1.621950   -6.560480   -0.744089

 Multiplicity           Mult            ....    1
 Number of Electrons    NEL             ....   18
 Basis Dimension        Dim             ....  172

ORBITAL ENERGIES
----------------

  NO   OCC          E(Eh)            E(eV)
   0   2.0000     -19.229219      -523.2537
   1   2.0000     -10.309746      -280.5425
   2   2.0000      -1.132938       -30.8288
   3   2.0000      -0.801685       -21.8150
   4   2.0000      -0.608973       -16.5710
   5   2.0000      -0.546746       -14.8777
   6   2.0000      -0.529580       -14.4106
   7   2.0000      -0.429086       -11.6760
   8   2.0000      -0.375903       -10.2288
   9   0.0000       0.071119         1.9352
  10   0.0000       0.132772         3.6129
  11   0.0000       0.155739         4.2379
  12   0.0000       0.167847         4.5674
  13   0.0000       0.184825         5.0293

MULLIKEN ATOMIC CHARGES
-----------------------
   0 C :   -0.005275
   1 O :   -0.001225
   2 H :   -0.000400
   3 H :    0.000475
   4 H :    0.000576
   5 H :   -0.000031
   6 C :   -0.165654
   7 O :   -0.475385
   8 H :    0.314220
   9 H :    0.103204
  10 H :    0.109491
  11 H :    0.120003
Sum of atomic charges:   -0.0000000

LOEWDIN ATOMIC CHARGES
----------------------
   0 C :   -0.006085
   1 O :   -0.006892
   2 H :   -0.001027
   3 H :   -0.001395
   4 H :   -0.000174
   5 H :   -0.000107
   6 C :   -0.371172
   7 O :   -0.073581
   8 H :    0.166349
   9 H :    0.099737
  10 H :    0.087215
  11 H :    0.107133

  Mayer bond orders larger than 0.1
B(  6-C ,  7-O ) :   0.9943 B(  6-C ,  9-H ) :   0.9824 B(  6-C , 10-H ) :   0.9766
B(  6-C , 11-H ) :   0.9722 B(  7-O ,  8-H ) :   0.9046

Dispersion correction           -0.000244004
FINAL SINGLE POINT ENERGY      -115.734212280701

DIPOLE MOMENT
-------------
                                X             Y             Z
Electronic contribution:     -1.50029      -0.08733       1.02888
Nuclear contribution   :      2.03964      -0.33424      -1.05206
                        -----------------------------------------
Total Dipole Moment    :      0.53935      -0.42157      -0.02318
                        -----------------------------------------
Magnitude (a.u.)       :      0.68495
Magnitude (Debye)      :      1.74101

Rotational constants in cm-1:     4.472556     0.813508     0.794088
Rotational constants in MHz : 134083.859914 24388.358794 23806.152165

                             ****ORCA TERMINATED NORMALLY****
TOTAL RUN TIME: 0 days 0 hours 1 minutes 9 seconds 699 msec
