                         Program Version 4.1.2  - RELEASE  -
|  1> #Run DFT-D3 single point of the dimer
|  2> ! wB97X-D3 def2-TZVP TIGHTSCF CHELPG PMODEL PAL8
|  3>
|  4> %base "9-141_DFT_AB"
|  5>
|  6> %scf
|  7> MaxIter 1000
|  8> end
|  9>
| 10> * xyz 0 1
| 11>   C                      -0.644259            -10.288811           -0.613577
| 12>   O                      0.403820             -9.855791            0.193845
| 13>   H                      0.055486             -9.356534            0.947444
| 14>   H                      -1.065645            -11.179136           -0.133979
| 15>   H                      -1.357217            -9.505382            -0.921732
| 16>   H                      -0.289226            -10.785823           -1.502527
| 17>   C                      -4.903874            -9.442278            -0.677737
| 18>   O                      -3.989815            -9.223129            0.357628
| 19>   H                      -4.262222            -9.680427            1.180958
| 20>   H                      -5.967884            -9.465559            -0.415941
| 21>   H                      -4.794855            -8.731898            -1.421318
| 22>   H                      -4.878456            -10.406002           -1.126017
| 23> *
| 24>
| 25> #Run DFT-D3 single point of the molecule with dimer basis set
| 26> $new_job
| 27> %base "9-141_DFT_A"
| 28> ! wB97X-D3 def2-TZVP TIGHTSCF CHELPG PMODEL
| 29>
| 30> %scf
| 31> MaxIter 1000
| 32> end
| 33>
| 34> * xyz 0 1
| 35>   C                      -0.644259            -10.288811           -0.613577
| 36>   O                      0.403820             -9.855791            0.193845
| 37>   H                      0.055486             -9.356534            0.947444
| 38>   H                      -1.065645            -11.179136           -0.133979
| 39>   H                      -1.357217            -9.505382            -0.921732
| 40>   H                      -0.289226            -10.785823           -1.502527
| 41>   C                    : -4.903874            -9.442278            -0.677737
| 42>   O                    : -3.989815            -9.223129            0.357628
| 43>   H                    : -4.262222            -9.680427            1.180958
| 44>   H                    : -5.967884            -9.465559            -0.415941
| 45>   H                    : -4.794855            -8.731898            -1.421318
| 46>   H                    : -4.878456            -10.406002           -1.126017
| 47> *
| 48>
| 49> #Run DFT-D3 single point of the particle with dimer basis set
| 50> $new_job
| 51> %base "9-141_DFT_B"
| 52> ! wB97X-D3 def2-TZVP TIGHTSCF CHELPG PMODEL
| 53>
| 54> %scf
| 55> MaxIter 1000
| 56> end
| 57>
| 58> * xyz 0 1
| 59>   C                    : -0.644259            -10.288811           -0.613577
| 60>   O                    : 0.403820             -9.855791            0.193845
| 61>   H                    : 0.055486             -9.356534            0.947444
| 62>   H                    : -1.065645            -11.179136           -0.133979
| 63>   H                    : -1.357217            -9.505382            -0.921732
| 64>   H                    : -0.289226            -10.785823           -1.502527
| 65>   C                      -4.903874            -9.442278            -0.677737
| 66>   O                      -3.989815            -9.223129            0.357628
| 67>   H                      -4.262222            -9.680427            1.180958
| 68>   H                      -5.967884            -9.465559            -0.415941
| 69>   H                      -4.794855            -8.731898            -1.421318
| 70>   H                      -4.878456            -10.406002           -1.126017
| 71> *
| 72>
| 73>                          ****END OF INPUT****
 Total Charge           Charge          ....    0
 Multiplicity           Mult            ....    1
 Number of Electrons    NEL             ....   36
Dispersion correction           -0.001434982
FINAL SINGLE POINT ENERGY      -231.461586932903
Dispersion correction           -0.000240899
FINAL SINGLE POINT ENERGY      -115.730758018486

CARTESIAN COORDINATES (ANGSTROEM)
---------------------------------
  C     -0.644259  -10.288811   -0.613577
  O      0.403820   -9.855791    0.193845
  H      0.055486   -9.356534    0.947444
  H     -1.065645  -11.179136   -0.133979
  H     -1.357217   -9.505382   -0.921732
  H     -0.289226  -10.785823   -1.502527
  C     -4.903874   -9.442278   -0.677737
  O     -3.989815   -9.223129    0.357628
  H     -4.262222   -9.680427    1.180958
  H     -5.967884   -9.465559   -0.415941
  H     -4.794855   -8.731898   -1.421318
  H     -4.878456  -10.406002   -1.126017

 Multiplicity           Mult            ....    1
 Number of Electrons    NEL             ....   18
 Basis Dimension        Dim             ....  172

ORBITAL ENERGIES
----------------

  NO   OCC          E(Eh)            E(eV)
   0   2.0000     -19.235221      -523.4170
   1   2.0000     -10.301884      -280.3285
   2   2.0000      -1.136492       -30.9255
   3   2.0000      -0.805985       -21.9320
   4   2.0000      -0.622865       -16.9490
   5   2.0000      -0.540960       -14.7203
   6   2.0000      -0.526271       -14.3206
   7   2.0000      -0.437974       -11.9179
   8   2.0000      -0.371105       -10.0983
   9   0.0000       0.093861         2.5541
  10   0.0000       0.122730         3.3397
  11   0.0000       0.149391         4.0651
  12   0.0000       0.175155         4.7662
  13   0.0000       0.197713         5.3800

MULLIKEN ATOMIC CHARGES
-----------------------
   0 C :   -0.000447
   1 O :    0.000097
   2 H :   -0.000332
   3 H :   -0.002301
   4 H :   -0.000862
   5 H :   -0.000281
   6 C :   -0.159506
   7 O :   -0.475989
   8 H :    0.319174
   9 H :    0.096705
  10 H :    0.125573
  11 H :    0.098169
Sum of atomic charges:    0.0000000

LOEWDIN ATOMIC CHARGES
----------------------
   0 C :   -0.005525
   1 O :   -0.000015
   2 H :   -0.000128
   3 H :   -0.000904
   4 H :   -0.003674
   5 H :   -0.000049
   6 C :   -0.394718
   7 O :   -0.060881
   8 H :    0.183201
   9 H :    0.097669
  10 H :    0.095754
  11 H :    0.089271

  Mayer bond orders larger than 0.1
B(  6-C ,  7-O ) :   1.0012 B(  6-C ,  9-H ) :   0.9738 B(  6-C , 10-H ) :   0.9791
B(  6-C , 11-H ) :   0.9741 B(  7-O ,  8-H ) :   0.8910

Dispersion correction           -0.000255442
FINAL SINGLE POINT ENERGY      -115.729234103515

DIPOLE MOMENT
-------------
                                X             Y             Z
Electronic contribution:      1.38308       0.45183       1.29030
Nuclear contribution   :     -1.94197      -0.83095      -1.17122
                        -----------------------------------------
Total Dipole Moment    :     -0.55889      -0.37912       0.11908
                        -----------------------------------------
Magnitude (a.u.)       :      0.68576
Magnitude (Debye)      :      1.74306

Rotational constants in cm-1:     4.696232     0.836950     0.798641
Rotational constants in MHz : 140789.488047 25091.144375 23942.669767

                             ****ORCA TERMINATED NORMALLY****
TOTAL RUN TIME: 0 days 0 hours 0 minutes 43 seconds 228 msec
