                         Program Version 4.1.2  - RELEASE  -
|  1> #Run DFT-D3 single point of the dimer
|  2> ! wB97X-D3 def2-TZVP TIGHTSCF CHELPG PMODEL PAL8
|  3>
|  4> %base "4-96_DFT_AB"
|  5>
|  6> %scf
|  7> MaxIter 1000
|  8> end
|  9>
| 10> * xyz 0 1
| 11>   C                      8.304697             0.773642             -7.879795
| 12>   O                      7.697569             -0.052126            -8.879199
| 13>   H                      7.046114             -0.492704            -8.416586
| 14>   H                      8.728058             0.224718             -7.058519
| 15>   H                      9.138744             1.205424             -8.296531
| 16>   H                      7.608282             1.530593             -7.478363
| 17>   C                      10.740478            4.157672             -9.106807
| 18>   O                      10.213811            3.667993             -10.312041
| 19>   H                      10.463433            4.278892             -10.993310
| 20>   H                      10.349970            5.182423             -8.820114
| 21>   H                      10.466377            3.546653             -8.257583
| 22>   H                      11.892256            4.233591             -9.176246
| 23> *
| 24>
| 25> #Run DFT-D3 single point of the molecule with dimer basis set
| 26> $new_job
| 27> %base "4-96_DFT_A"
| 28> ! wB97X-D3 def2-TZVP TIGHTSCF CHELPG PMODEL
| 29>
| 30> %scf
| 31> MaxIter 1000
| 32> end
| 33>
| 34> * xyz 0 1
| 35>   C                      8.304697             0.773642             -7.879795
| 36>   O                      7.697569             -0.052126            -8.879199
| 37>   H                      7.046114             -0.492704            -8.416586
| 38>   H                      8.728058             0.224718             -7.058519
| 39>   H                      9.138744             1.205424             -8.296531
| 40>   H                      7.608282             1.530593             -7.478363
| 41>   C                    : 10.740478            4.157672             -9.106807
| 42>   O                    : 10.213811            3.667993             -10.312041
| 43>   H                    : 10.463433            4.278892             -10.993310
| 44>   H                    : 10.349970            5.182423             -8.820114
| 45>   H                    : 10.466377            3.546653             -8.257583
| 46>   H                    : 11.892256            4.233591             -9.176246
| 47> *
| 48>
| 49> #Run DFT-D3 single point of the particle with dimer basis set
| 50> $new_job
| 51> %base "4-96_DFT_B"
| 52> ! wB97X-D3 def2-TZVP TIGHTSCF CHELPG PMODEL
| 53>
| 54> %scf
| 55> MaxIter 1000
| 56> end
| 57>
| 58> * xyz 0 1
| 59>   C                    : 8.304697             0.773642             -7.879795
| 60>   O                    : 7.697569             -0.052126            -8.879199
| 61>   H                    : 7.046114             -0.492704            -8.416586
| 62>   H                    : 8.728058             0.224718             -7.058519
| 63>   H                    : 9.138744             1.205424             -8.296531
| 64>   H                    : 7.608282             1.530593             -7.478363
| 65>   C                      10.740478            4.157672             -9.106807
| 66>   O                      10.213811            3.667993             -10.312041
| 67>   H                      10.463433            4.278892             -10.993310
| 68>   H                      10.349970            5.182423             -8.820114
| 69>   H                      10.466377            3.546653             -8.257583
| 70>   H                      11.892256            4.233591             -9.176246
| 71> *
| 72>
| 73>                          ****END OF INPUT****
 Total Charge           Charge          ....    0
 Multiplicity           Mult            ....    1
 Number of Electrons    NEL             ....   36
Dispersion correction           -0.001209476
FINAL SINGLE POINT ENERGY      -231.463490379232
Dispersion correction           -0.000227093
FINAL SINGLE POINT ENERGY      -115.729961742057

CARTESIAN COORDINATES (ANGSTROEM)
---------------------------------
  C      8.304697    0.773642   -7.879795
  O      7.697569   -0.052126   -8.879199
  H      7.046114   -0.492704   -8.416586
  H      8.728058    0.224718   -7.058519
  H      9.138744    1.205424   -8.296531
  H      7.608282    1.530593   -7.478363
  C     10.740478    4.157672   -9.106807
  O     10.213811    3.667993  -10.312041
  H     10.463433    4.278892  -10.993310
  H     10.349970    5.182423   -8.820114
  H     10.466377    3.546653   -8.257583
  H     11.892256    4.233591   -9.176246

 Multiplicity           Mult            ....    1
 Number of Electrons    NEL             ....   18
 Basis Dimension        Dim             ....  172

ORBITAL ENERGIES
----------------

  NO   OCC          E(Eh)            E(eV)
   0   2.0000     -19.233091      -523.3590
   1   2.0000     -10.322255      -280.8829
   2   2.0000      -1.144564       -31.1452
   3   2.0000      -0.791119       -21.5274
   4   2.0000      -0.612060       -16.6550
   5   2.0000      -0.539837       -14.6897
   6   2.0000      -0.528660       -14.3856
   7   2.0000      -0.433815       -11.8047
   8   2.0000      -0.372854       -10.1459
   9   0.0000       0.091706         2.4954
  10   0.0000       0.117744         3.2040
  11   0.0000       0.150393         4.0924
  12   0.0000       0.172424         4.6919
  13   0.0000       0.194940         5.3046

MULLIKEN ATOMIC CHARGES
-----------------------
   0 C :   -0.001836
   1 O :    0.000043
   2 H :    0.000001
   3 H :    0.000145
   4 H :    0.001955
   5 H :   -0.000083
   6 C :   -0.173823
   7 O :   -0.458763
   8 H :    0.314294
   9 H :    0.095144
  10 H :    0.125420
  11 H :    0.097502
Sum of atomic charges:   -0.0000000

LOEWDIN ATOMIC CHARGES
----------------------
   0 C :   -0.001229
   1 O :   -0.000016
   2 H :   -0.000002
   3 H :   -0.000013
   4 H :   -0.001190
   5 H :   -0.000060
   6 C :   -0.405132
   7 O :   -0.060979
   8 H :    0.164404
   9 H :    0.097454
  10 H :    0.104155
  11 H :    0.102608

  Mayer bond orders larger than 0.1
B(  6-C ,  7-O ) :   1.0048 B(  6-C ,  9-H ) :   0.9719 B(  6-C , 10-H ) :   0.9716
B(  6-C , 11-H ) :   0.9776 B(  7-O ,  8-H ) :   0.9005

Dispersion correction           -0.000250579
FINAL SINGLE POINT ENERGY      -115.733498130879

DIPOLE MOMENT
-------------
                                X             Y             Z
Electronic contribution:     -0.82336      -0.85644      -1.54625
Nuclear contribution   :      1.15519       1.41463       1.57728
                        -----------------------------------------
Total Dipole Moment    :      0.33182       0.55819       0.03103
                        -----------------------------------------
Magnitude (a.u.)       :      0.65011
Magnitude (Debye)      :      1.65245

Rotational constants in cm-1:     4.175210     0.829293     0.804228
Rotational constants in MHz : 125169.642995 24861.573495 24110.155937

                             ****ORCA TERMINATED NORMALLY****
TOTAL RUN TIME: 0 days 0 hours 1 minutes 32 seconds 776 msec
