                         Program Version 4.1.2  - RELEASE  -
|  1> #Run DFT-D3 single point of the dimer
|  2> ! wB97X-D3 def2-TZVP TIGHTSCF CHELPG PMODEL PAL8
|  3>
|  4> %base "7-184_DFT_AB"
|  5>
|  6> %scf
|  7> MaxIter 1000
|  8> end
|  9>
| 10> * xyz 0 1
| 11>   C                      -9.951513            -10.281393           7.497342
| 12>   O                      -9.276138            -9.266810            6.843790
| 13>   H                      -8.815560            -8.762262            7.546139
| 14>   H                      -11.039121           -10.246626           7.273744
| 15>   H                      -9.426906            -11.213108           7.173774
| 16>   H                      -9.783525            -10.291402           8.602816
| 17>   C                      -6.519036            -7.512564            9.177170
| 18>   O                      -7.307728            -7.397217            8.009092
| 19>   H                      -7.724737            -6.538943            8.143415
| 20>   H                      -6.581418            -8.454105            9.709755
| 21>   H                      -5.418856            -7.311625            8.858509
| 22>   H                      -6.842534            -6.728893            9.824663
| 23> *
| 24>
| 25> #Run DFT-D3 single point of the molecule with dimer basis set
| 26> $new_job
| 27> %base "7-184_DFT_A"
| 28> ! wB97X-D3 def2-TZVP TIGHTSCF CHELPG PMODEL
| 29>
| 30> %scf
| 31> MaxIter 1000
| 32> end
| 33>
| 34> * xyz 0 1
| 35>   C                      -9.951513            -10.281393           7.497342
| 36>   O                      -9.276138            -9.266810            6.843790
| 37>   H                      -8.815560            -8.762262            7.546139
| 38>   H                      -11.039121           -10.246626           7.273744
| 39>   H                      -9.426906            -11.213108           7.173774
| 40>   H                      -9.783525            -10.291402           8.602816
| 41>   C                    : -6.519036            -7.512564            9.177170
| 42>   O                    : -7.307728            -7.397217            8.009092
| 43>   H                    : -7.724737            -6.538943            8.143415
| 44>   H                    : -6.581418            -8.454105            9.709755
| 45>   H                    : -5.418856            -7.311625            8.858509
| 46>   H                    : -6.842534            -6.728893            9.824663
| 47> *
| 48>
| 49> #Run DFT-D3 single point of the particle with dimer basis set
| 50> $new_job
| 51> %base "7-184_DFT_B"
| 52> ! wB97X-D3 def2-TZVP TIGHTSCF CHELPG PMODEL
| 53>
| 54> %scf
| 55> MaxIter 1000
| 56> end
| 57>
| 58> * xyz 0 1
| 59>   C                    : -9.951513            -10.281393           7.497342
| 60>   O                    : -9.276138            -9.266810            6.843790
| 61>   H                    : -8.815560            -8.762262            7.546139
| 62>   H                    : -11.039121           -10.246626           7.273744
| 63>   H                    : -9.426906            -11.213108           7.173774
| 64>   H                    : -9.783525            -10.291402           8.602816
| 65>   C                      -6.519036            -7.512564            9.177170
| 66>   O                      -7.307728            -7.397217            8.009092
| 67>   H                      -7.724737            -6.538943            8.143415
| 68>   H                      -6.581418            -8.454105            9.709755
| 69>   H                      -5.418856            -7.311625            8.858509
| 70>   H                      -6.842534            -6.728893            9.824663
| 71> *
| 72>
| 73>                          ****END OF INPUT****
 Total Charge           Charge          ....    0
 Multiplicity           Mult            ....    1
 Number of Electrons    NEL             ....   36
Dispersion correction           -0.001474930
FINAL SINGLE POINT ENERGY      -231.464719059456
Dispersion correction           -0.000233007
FINAL SINGLE POINT ENERGY      -115.730169550495

CARTESIAN COORDINATES (ANGSTROEM)
---------------------------------
  C     -9.951513  -10.281393    7.497342
  O     -9.276138   -9.266810    6.843790
  H     -8.815560   -8.762262    7.546139
  H    -11.039121  -10.246626    7.273744
  H     -9.426906  -11.213108    7.173774
  H     -9.783525  -10.291402    8.602816
  C     -6.519036   -7.512564    9.177170
  O     -7.307728   -7.397217    8.009092
  H     -7.724737   -6.538943    8.143415
  H     -6.581418   -8.454105    9.709755
  H     -5.418856   -7.311625    8.858509
  H     -6.842534   -6.728893    9.824663

 Multiplicity           Mult            ....    1
 Number of Electrons    NEL             ....   18
 Basis Dimension        Dim             ....  172

ORBITAL ENERGIES
----------------

  NO   OCC          E(Eh)            E(eV)
   0   2.0000     -19.231456      -523.3145
   1   2.0000     -10.317250      -280.7467
   2   2.0000      -1.141381       -31.0586
   3   2.0000      -0.789216       -21.4757
   4   2.0000      -0.614016       -16.7082
   5   2.0000      -0.541706       -14.7406
   6   2.0000      -0.527790       -14.3619
   7   2.0000      -0.438278       -11.9261
   8   2.0000      -0.371741       -10.1156
   9   0.0000       0.095503         2.5988
  10   0.0000       0.115863         3.1528
  11   0.0000       0.152969         4.1625
  12   0.0000       0.187189         5.0937
  13   0.0000       0.194362         5.2889

MULLIKEN ATOMIC CHARGES
-----------------------
   0 C :    0.002097
   1 O :    0.001599
   2 H :   -0.017043
   3 H :   -0.000067
   4 H :   -0.000097
   5 H :   -0.000522
   6 C :   -0.173709
   7 O :   -0.450415
   8 H :    0.315306
   9 H :    0.123071
  10 H :    0.098733
  11 H :    0.101047
Sum of atomic charges:    0.0000000

LOEWDIN ATOMIC CHARGES
----------------------
   0 C :   -0.000772
   1 O :   -0.005075
   2 H :   -0.034506
   3 H :   -0.000011
   4 H :   -0.000014
   5 H :   -0.000116
   6 C :   -0.386857
   7 O :   -0.048589
   8 H :    0.176185
   9 H :    0.099403
  10 H :    0.109734
  11 H :    0.090618

  Mayer bond orders larger than 0.1
B(  6-C ,  7-O ) :   0.9960 B(  6-C ,  9-H ) :   0.9710 B(  6-C , 10-H ) :   0.9724
B(  6-C , 11-H ) :   0.9933 B(  7-O ,  8-H ) :   0.9020

Dispersion correction           -0.000229450
FINAL SINGLE POINT ENERGY      -115.728555162058

DIPOLE MOMENT
-------------
                                X             Y             Z
Electronic contribution:     -1.05810      -0.11017      -1.48546
Nuclear contribution   :      1.06921       0.61806       2.03881
                        -----------------------------------------
Total Dipole Moment    :      0.01111       0.50789       0.55335
                        -----------------------------------------
Magnitude (a.u.)       :      0.75118
Magnitude (Debye)      :      1.90934

Rotational constants in cm-1:     4.136107     0.838292     0.813129
Rotational constants in MHz : 123997.371445 25131.372200 24377.008302

                             ****ORCA TERMINATED NORMALLY****
TOTAL RUN TIME: 0 days 0 hours 1 minutes 12 seconds 250 msec
