                         Program Version 4.1.2  - RELEASE  -
|  1> #Run DFT geometry optimization
|  2> ! wB97X-D3 def2-TZVP TIGHTSCF Grid5 FinalGrid6 Opt CHELPG PAL4
|  3>
|  4> %base "3_geo_opt"
|  5> %geom MaxIter 500
|  6> end
|  7>
|  8> %geom
|  9>   Constraints
| 10>     { B 0 1 C }
| 11>   end
| 12> end
| 13>
| 14>
| 15> * xyz 0 1
| 16>   C                    3.011112             -1.180905            0.598453
| 17>   O                    4.394869             -1.128043            0.874347
| 18>   H                    4.772392             -0.379014            0.412532
| 19>   H                    2.806238             -1.318972            -0.469389
| 20>   H                    2.611436             -2.040272            1.135859
| 21>   H                    2.484561             -0.284499            0.945620
| 22> *
| 23>
| 24>                          ****END OF INPUT****
 Total Charge           Charge          ....    0
 Multiplicity           Mult            ....    1
 Number of Electrons    NEL             ....   18
Dispersion correction           -0.000239462
FINAL SINGLE POINT ENERGY      -115.738051234895
Dispersion correction            ... done
                    ***********************HURRAY********************

CARTESIAN COORDINATES (ANGSTROEM)
---------------------------------
  C      3.011128   -1.180938    0.598477
  O      4.394890   -1.128042    0.874337
  H      4.772305   -0.378982    0.412508
  H      2.806295   -1.318970   -0.469361
  H      2.611355   -2.040265    1.135841
  H      2.484634   -0.284508    0.945621

 Multiplicity           Mult            ....    1
 Number of Electrons    NEL             ....   18
 Basis Dimension        Dim             ....   86

ORBITAL ENERGIES
----------------

  NO   OCC          E(Eh)            E(eV)
   0   2.0000     -19.228086      -523.2228
   1   2.0000     -10.315148      -280.6894
   2   2.0000      -1.136678       -30.9306
   3   2.0000      -0.795364       -21.6429
   4   2.0000      -0.611517       -16.6402
   5   2.0000      -0.541732       -14.7413
   6   2.0000      -0.526280       -14.3208
   7   2.0000      -0.433833       -11.8052
   8   2.0000      -0.373627       -10.1669
   9   0.0000       0.116644         3.1740
  10   0.0000       0.156647         4.2626
  11   0.0000       0.202566         5.5121
  12   0.0000       0.205103         5.5811
  13   0.0000       0.226327         6.1587

MULLIKEN ATOMIC CHARGES
-----------------------
   0 C :   -0.150951
   1 O :   -0.477707
   2 H :    0.312995
   3 H :    0.098693
   4 H :    0.118274
   5 H :    0.098697
Sum of atomic charges:   -0.0000000

LOEWDIN ATOMIC CHARGES
----------------------
   0 C :   -0.384855
   1 O :   -0.076393
   2 H :    0.165740
   3 H :    0.093412
   4 H :    0.108685
   5 H :    0.093411

  Mayer bond orders larger than 0.1
B(  0-C ,  1-O ) :   0.9986 B(  0-C ,  3-H ) :   0.9755 B(  0-C ,  4-H ) :   0.9749
B(  0-C ,  5-H ) :   0.9755 B(  1-O ,  2-H ) :   0.9002

Dispersion correction           -0.000239429
FINAL SINGLE POINT ENERGY      -115.738051243863

DIPOLE MOMENT
-------------
                                X             Y             Z
Electronic contribution:      1.75576      -0.02832       0.41980
Nuclear contribution   :     -2.06617       0.47588      -0.81756
                        -----------------------------------------
Total Dipole Moment    :     -0.31040       0.44756      -0.39775
                        -----------------------------------------
Magnitude (a.u.)       :      0.67444
Magnitude (Debye)      :      1.71429

Rotational constants in cm-1:     4.292880     0.833412     0.804546
Rotational constants in MHz : 128697.319229 24985.075750 24119.694516

                             ****ORCA TERMINATED NORMALLY****
TOTAL RUN TIME: 0 days 0 hours 0 minutes 37 seconds 318 msec
