                         Program Version 4.1.2  - RELEASE  -
|  1> #Run DFT-D3 single point of the dimer
|  2> ! wB97X-D3 def2-TZVP TIGHTSCF CHELPG PMODEL PAL8
|  3>
|  4> %base "14-5_DFT_AB"
|  5>
|  6> %scf
|  7> MaxIter 1000
|  8> end
|  9>
| 10> * xyz 0 1
| 11>   C                      2.263257             -4.148155            5.412082
| 12>   O                      2.954997             -4.750595            6.535683
| 13>   H                      3.854224             -4.751128            6.203519
| 14>   H                      2.189910             -3.055356            5.686844
| 15>   H                      2.686634             -4.323060            4.395248
| 16>   H                      1.297417             -4.690642            5.387383
| 17>   C                      4.898371             -1.962017            6.955031
| 18>   O                      5.353528             -3.235246            7.236126
| 19>   H                      6.273889             -3.235262            6.952434
| 20>   H                      5.704569             -1.200926            6.878714
| 21>   H                      4.482514             -1.952890            5.944179
| 22>   H                      4.303638             -1.589694            7.732996
| 23> *
| 24>
| 25> #Run DFT-D3 single point of the molecule with dimer basis set
| 26> $new_job
| 27> %base "14-5_DFT_A"
| 28> ! wB97X-D3 def2-TZVP TIGHTSCF CHELPG PMODEL
| 29>
| 30> %scf
| 31> MaxIter 1000
| 32> end
| 33>
| 34> * xyz 0 1
| 35>   C                      2.263257             -4.148155            5.412082
| 36>   O                      2.954997             -4.750595            6.535683
| 37>   H                      3.854224             -4.751128            6.203519
| 38>   H                      2.189910             -3.055356            5.686844
| 39>   H                      2.686634             -4.323060            4.395248
| 40>   H                      1.297417             -4.690642            5.387383
| 41>   C                    : 4.898371             -1.962017            6.955031
| 42>   O                    : 5.353528             -3.235246            7.236126
| 43>   H                    : 6.273889             -3.235262            6.952434
| 44>   H                    : 5.704569             -1.200926            6.878714
| 45>   H                    : 4.482514             -1.952890            5.944179
| 46>   H                    : 4.303638             -1.589694            7.732996
| 47> *
| 48>
| 49> #Run DFT-D3 single point of the particle with dimer basis set
| 50> $new_job
| 51> %base "14-5_DFT_B"
| 52> ! wB97X-D3 def2-TZVP TIGHTSCF CHELPG PMODEL
| 53>
| 54> %scf
| 55> MaxIter 1000
| 56> end
| 57>
| 58> * xyz 0 1
| 59>   C                    : 2.263257             -4.148155            5.412082
| 60>   O                    : 2.954997             -4.750595            6.535683
| 61>   H                    : 3.854224             -4.751128            6.203519
| 62>   H                    : 2.189910             -3.055356            5.686844
| 63>   H                    : 2.686634             -4.323060            4.395248
| 64>   H                    : 1.297417             -4.690642            5.387383
| 65>   C                      4.898371             -1.962017            6.955031
| 66>   O                      5.353528             -3.235246            7.236126
| 67>   H                      6.273889             -3.235262            6.952434
| 68>   H                      5.704569             -1.200926            6.878714
| 69>   H                      4.482514             -1.952890            5.944179
| 70>   H                      4.303638             -1.589694            7.732996
| 71> *
| 72>
| 73>                          ****END OF INPUT****
 Total Charge           Charge          ....    0
 Multiplicity           Mult            ....    1
 Number of Electrons    NEL             ....   36
Dispersion correction           -0.002123156
FINAL SINGLE POINT ENERGY      -231.460945516002
Dispersion correction           -0.000245725
FINAL SINGLE POINT ENERGY      -115.729008471941

CARTESIAN COORDINATES (ANGSTROEM)
---------------------------------
  C      2.263257   -4.148155    5.412082
  O      2.954997   -4.750595    6.535683
  H      3.854224   -4.751128    6.203519
  H      2.189910   -3.055356    5.686844
  H      2.686634   -4.323060    4.395248
  H      1.297417   -4.690642    5.387383
  C      4.898371   -1.962017    6.955031
  O      5.353528   -3.235246    7.236126
  H      6.273889   -3.235262    6.952434
  H      5.704569   -1.200926    6.878714
  H      4.482514   -1.952890    5.944179
  H      4.303638   -1.589694    7.732996

 Multiplicity           Mult            ....    1
 Number of Electrons    NEL             ....   18
 Basis Dimension        Dim             ....  172

ORBITAL ENERGIES
----------------

  NO   OCC          E(Eh)            E(eV)
   0   2.0000     -19.231232      -523.3084
   1   2.0000     -10.306459      -280.4530
   2   2.0000      -1.149012       -31.2662
   3   2.0000      -0.795249       -21.6398
   4   2.0000      -0.619136       -16.8476
   5   2.0000      -0.559438       -15.2231
   6   2.0000      -0.521959       -14.2032
   7   2.0000      -0.432044       -11.7565
   8   2.0000      -0.373421       -10.1613
   9   0.0000       0.094262         2.5650
  10   0.0000       0.121899         3.3171
  11   0.0000       0.156676         4.2634
  12   0.0000       0.184119         5.0101
  13   0.0000       0.194548         5.2939

MULLIKEN ATOMIC CHARGES
-----------------------
   0 C :    0.001911
   1 O :    0.002637
   2 H :   -0.009937
   3 H :    0.000002
   4 H :   -0.000362
   5 H :    0.000098
   6 C :   -0.174308
   7 O :   -0.457243
   8 H :    0.317963
   9 H :    0.096188
  10 H :    0.100979
  11 H :    0.122073
Sum of atomic charges:   -0.0000000

LOEWDIN ATOMIC CHARGES
----------------------
   0 C :   -0.003938
   1 O :   -0.005149
   2 H :   -0.017331
   3 H :   -0.002847
   4 H :   -0.000116
   5 H :   -0.000016
   6 C :   -0.407119
   7 O :   -0.034450
   8 H :    0.177109
   9 H :    0.098119
  10 H :    0.099661
  11 H :    0.096077

  Mayer bond orders larger than 0.1
B(  6-C ,  7-O ) :   1.0006 B(  6-C ,  9-H ) :   0.9807 B(  6-C , 10-H ) :   0.9779
B(  6-C , 11-H ) :   0.9740 B(  7-O ,  8-H ) :   0.8982

Dispersion correction           -0.000215865
FINAL SINGLE POINT ENERGY      -115.730199003938

DIPOLE MOMENT
-------------
                                X             Y             Z
Electronic contribution:      0.33452      -1.77714       0.51778
Nuclear contribution   :      0.11043       2.26919      -0.78020
                        -----------------------------------------
Total Dipole Moment    :      0.44495       0.49205      -0.26242
                        -----------------------------------------
Magnitude (a.u.)       :      0.71341
Magnitude (Debye)      :      1.81335

Rotational constants in cm-1:     4.332197     0.866010     0.840044
Rotational constants in MHz : 129875.989522 25962.328323 25183.884031

                             ****ORCA TERMINATED NORMALLY****
TOTAL RUN TIME: 0 days 0 hours 1 minutes 4 seconds 454 msec
