                         Program Version 4.1.2  - RELEASE  -
|  1> #Run DFT-D3 single point of the dimer
|  2> ! wB97X-D3 def2-TZVP TIGHTSCF CHELPG PMODEL PAL8
|  3>
|  4> %base "7-109_DFT_AB"
|  5>
|  6> %scf
|  7> MaxIter 1000
|  8> end
|  9>
| 10> * xyz 0 1
| 11>   C                      0.729532             5.280987             0.792221
| 12>   O                      0.011848             4.968392             -0.373084
| 13>   H                      -0.194236            5.859441             -0.599549
| 14>   H                      1.347677             4.466694             1.117791
| 15>   H                      1.488634             6.100130             0.576506
| 16>   H                      -0.035568            5.478909             1.575330
| 17>   C                      3.721256             2.865454             0.278842
| 18>   O                      3.810652             4.224513             0.718855
| 19>   H                      3.847158             4.251311             1.654711
| 20>   H                      4.630489             2.337793             0.330650
| 21>   H                      3.118835             2.213713             0.975832
| 22>   H                      3.309772             2.784025             -0.718189
| 23> *
| 24>
| 25> #Run DFT-D3 single point of the molecule with dimer basis set
| 26> $new_job
| 27> %base "7-109_DFT_A"
| 28> ! wB97X-D3 def2-TZVP TIGHTSCF CHELPG PMODEL
| 29>
| 30> %scf
| 31> MaxIter 1000
| 32> end
| 33>
| 34> * xyz 0 1
| 35>   C                      0.729532             5.280987             0.792221
| 36>   O                      0.011848             4.968392             -0.373084
| 37>   H                      -0.194236            5.859441             -0.599549
| 38>   H                      1.347677             4.466694             1.117791
| 39>   H                      1.488634             6.100130             0.576506
| 40>   H                      -0.035568            5.478909             1.575330
| 41>   C                    : 3.721256             2.865454             0.278842
| 42>   O                    : 3.810652             4.224513             0.718855
| 43>   H                    : 3.847158             4.251311             1.654711
| 44>   H                    : 4.630489             2.337793             0.330650
| 45>   H                    : 3.118835             2.213713             0.975832
| 46>   H                    : 3.309772             2.784025             -0.718189
| 47> *
| 48>
| 49> #Run DFT-D3 single point of the particle with dimer basis set
| 50> $new_job
| 51> %base "7-109_DFT_B"
| 52> ! wB97X-D3 def2-TZVP TIGHTSCF CHELPG PMODEL
| 53>
| 54> %scf
| 55> MaxIter 1000
| 56> end
| 57>
| 58> * xyz 0 1
| 59>   C                    : 0.729532             5.280987             0.792221
| 60>   O                    : 0.011848             4.968392             -0.373084
| 61>   H                    : -0.194236            5.859441             -0.599549
| 62>   H                    : 1.347677             4.466694             1.117791
| 63>   H                    : 1.488634             6.100130             0.576506
| 64>   H                    : -0.035568            5.478909             1.575330
| 65>   C                      3.721256             2.865454             0.278842
| 66>   O                      3.810652             4.224513             0.718855
| 67>   H                      3.847158             4.251311             1.654711
| 68>   H                      4.630489             2.337793             0.330650
| 69>   H                      3.118835             2.213713             0.975832
| 70>   H                      3.309772             2.784025             -0.718189
| 71> *
| 72>
| 73>                          ****END OF INPUT****
 Total Charge           Charge          ....    0
 Multiplicity           Mult            ....    1
 Number of Electrons    NEL             ....   36
Dispersion correction           -0.001845765
FINAL SINGLE POINT ENERGY      -231.459709898571
Dispersion correction           -0.000201953
FINAL SINGLE POINT ENERGY      -115.727092122025

CARTESIAN COORDINATES (ANGSTROEM)
---------------------------------
  C      0.729532    5.280987    0.792221
  O      0.011848    4.968392   -0.373084
  H     -0.194236    5.859441   -0.599549
  H      1.347677    4.466694    1.117791
  H      1.488634    6.100130    0.576506
  H     -0.035568    5.478909    1.575330
  C      3.721256    2.865454    0.278842
  O      3.810652    4.224513    0.718855
  H      3.847158    4.251311    1.654711
  H      4.630489    2.337793    0.330650
  H      3.118835    2.213713    0.975832
  H      3.309772    2.784025   -0.718189

 Multiplicity           Mult            ....    1
 Number of Electrons    NEL             ....   18
 Basis Dimension        Dim             ....  172

ORBITAL ENERGIES
----------------

  NO   OCC          E(Eh)            E(eV)
   0   2.0000     -19.230747      -523.2952
   1   2.0000     -10.313923      -280.6561
   2   2.0000      -1.135906       -30.9096
   3   2.0000      -0.803409       -21.8619
   4   2.0000      -0.617701       -16.8085
   5   2.0000      -0.536857       -14.6086
   6   2.0000      -0.525719       -14.3055
   7   2.0000      -0.438940       -11.9442
   8   2.0000      -0.374305       -10.1853
   9   0.0000       0.093778         2.5518
  10   0.0000       0.126073         3.4306
  11   0.0000       0.148165         4.0318
  12   0.0000       0.180913         4.9229
  13   0.0000       0.202952         5.5226

MULLIKEN ATOMIC CHARGES
-----------------------
   0 C :    0.013004
   1 O :   -0.000917
   2 H :   -0.000093
   3 H :   -0.018795
   4 H :   -0.003739
   5 H :   -0.000522
   6 C :   -0.173402
   7 O :   -0.469117
   8 H :    0.311553
   9 H :    0.115887
  10 H :    0.098235
  11 H :    0.127906
Sum of atomic charges:   -0.0000000

LOEWDIN ATOMIC CHARGES
----------------------
   0 C :   -0.011785
   1 O :   -0.000041
   2 H :   -0.000024
   3 H :   -0.011082
   4 H :   -0.003437
   5 H :   -0.000105
   6 C :   -0.368948
   7 O :   -0.055678
   8 H :    0.153697
   9 H :    0.087688
  10 H :    0.102177
  11 H :    0.107536

  Mayer bond orders larger than 0.1
B(  6-C ,  7-O ) :   0.9841 B(  6-C ,  9-H ) :   0.9698 B(  6-C , 10-H ) :   0.9815
B(  6-C , 11-H ) :   0.9764 B(  7-O ,  8-H ) :   0.9038

Dispersion correction           -0.000256119
FINAL SINGLE POINT ENERGY      -115.731677625940

DIPOLE MOMENT
-------------
                                X             Y             Z
Electronic contribution:      0.16526       1.87492       0.32216
Nuclear contribution   :     -0.14944      -2.43403       0.10305
                        -----------------------------------------
Total Dipole Moment    :      0.01581      -0.55911       0.42521
                        -----------------------------------------
Magnitude (a.u.)       :      0.70261
Magnitude (Debye)      :      1.78589

Rotational constants in cm-1:     4.494721     0.812288     0.774331
Rotational constants in MHz : 134748.352578 24351.777133 23213.854575

                             ****ORCA TERMINATED NORMALLY****
TOTAL RUN TIME: 0 days 0 hours 1 minutes 10 seconds 817 msec
