                         Program Version 4.1.2  - RELEASE  -
|  1> #Run DFT-D3 single point of the dimer
|  2> ! wB97X-D3 def2-TZVP TIGHTSCF CHELPG PMODEL PAL8
|  3>
|  4> %base "9-3_DFT_AB"
|  5>
|  6> %scf
|  7> MaxIter 1000
|  8> end
|  9>
| 10> * xyz 0 1
| 11>   C                      5.326910             4.806322             -3.533113
| 12>   O                      6.034877             3.972360             -4.447765
| 13>   H                      6.237275             3.163824             -3.960999
| 14>   H                      6.014065             5.326131             -2.833834
| 15>   H                      4.817935             5.581777             -4.157801
| 16>   H                      4.623172             4.233674             -2.922331
| 17>   C                      8.271127             3.178132             -6.755067
| 18>   O                      9.593530             3.281223             -7.167820
| 19>   H                      9.967296             4.074480             -6.738436
| 20>   H                      7.716275             4.038205             -7.136075
| 21>   H                      7.796655             2.343239             -7.270622
| 22>   H                      8.064296             3.159911             -5.722429
| 23> *
| 24>
| 25> #Run DFT-D3 single point of the molecule with dimer basis set
| 26> $new_job
| 27> %base "9-3_DFT_A"
| 28> ! wB97X-D3 def2-TZVP TIGHTSCF CHELPG PMODEL
| 29>
| 30> %scf
| 31> MaxIter 1000
| 32> end
| 33>
| 34> * xyz 0 1
| 35>   C                      5.326910             4.806322             -3.533113
| 36>   O                      6.034877             3.972360             -4.447765
| 37>   H                      6.237275             3.163824             -3.960999
| 38>   H                      6.014065             5.326131             -2.833834
| 39>   H                      4.817935             5.581777             -4.157801
| 40>   H                      4.623172             4.233674             -2.922331
| 41>   C                    : 8.271127             3.178132             -6.755067
| 42>   O                    : 9.593530             3.281223             -7.167820
| 43>   H                    : 9.967296             4.074480             -6.738436
| 44>   H                    : 7.716275             4.038205             -7.136075
| 45>   H                    : 7.796655             2.343239             -7.270622
| 46>   H                    : 8.064296             3.159911             -5.722429
| 47> *
| 48>
| 49> #Run DFT-D3 single point of the particle with dimer basis set
| 50> $new_job
| 51> %base "9-3_DFT_B"
| 52> ! wB97X-D3 def2-TZVP TIGHTSCF CHELPG PMODEL
| 53>
| 54> %scf
| 55> MaxIter 1000
| 56> end
| 57>
| 58> * xyz 0 1
| 59>   C                    : 5.326910             4.806322             -3.533113
| 60>   O                    : 6.034877             3.972360             -4.447765
| 61>   H                    : 6.237275             3.163824             -3.960999
| 62>   H                    : 6.014065             5.326131             -2.833834
| 63>   H                    : 4.817935             5.581777             -4.157801
| 64>   H                    : 4.623172             4.233674             -2.922331
| 65>   C                      8.271127             3.178132             -6.755067
| 66>   O                      9.593530             3.281223             -7.167820
| 67>   H                      9.967296             4.074480             -6.738436
| 68>   H                      7.716275             4.038205             -7.136075
| 69>   H                      7.796655             2.343239             -7.270622
| 70>   H                      8.064296             3.159911             -5.722429
| 71> *
| 72>
| 73>                          ****END OF INPUT****
 Total Charge           Charge          ....    0
 Multiplicity           Mult            ....    1
 Number of Electrons    NEL             ....   36
Dispersion correction           -0.001399563
FINAL SINGLE POINT ENERGY      -231.470337585696
Dispersion correction           -0.000242129
FINAL SINGLE POINT ENERGY      -115.736179092427

CARTESIAN COORDINATES (ANGSTROEM)
---------------------------------
  C      5.326910    4.806322   -3.533113
  O      6.034877    3.972360   -4.447765
  H      6.237275    3.163824   -3.960999
  H      6.014065    5.326131   -2.833834
  H      4.817935    5.581777   -4.157801
  H      4.623172    4.233674   -2.922331
  C      8.271127    3.178132   -6.755067
  O      9.593530    3.281223   -7.167820
  H      9.967296    4.074480   -6.738436
  H      7.716275    4.038205   -7.136075
  H      7.796655    2.343239   -7.270622
  H      8.064296    3.159911   -5.722429

 Multiplicity           Mult            ....    1
 Number of Electrons    NEL             ....   18
 Basis Dimension        Dim             ....  172

ORBITAL ENERGIES
----------------

  NO   OCC          E(Eh)            E(eV)
   0   2.0000     -19.232716      -523.3488
   1   2.0000     -10.304821      -280.4084
   2   2.0000      -1.142029       -31.0762
   3   2.0000      -0.797226       -21.6936
   4   2.0000      -0.618794       -16.8382
   5   2.0000      -0.543388       -14.7863
   6   2.0000      -0.529130       -14.3984
   7   2.0000      -0.435943       -11.8626
   8   2.0000      -0.370932       -10.0936
   9   0.0000       0.081666         2.2222
  10   0.0000       0.115186         3.1344
  11   0.0000       0.145963         3.9719
  12   0.0000       0.172800         4.7021
  13   0.0000       0.191715         5.2168

MULLIKEN ATOMIC CHARGES
-----------------------
   0 C :   -0.000438
   1 O :   -0.000630
   2 H :   -0.000819
   3 H :   -0.000016
   4 H :    0.000013
   5 H :    0.000009
   6 C :   -0.159064
   7 O :   -0.470970
   8 H :    0.316206
   9 H :    0.093947
  10 H :    0.116591
  11 H :    0.105172
Sum of atomic charges:   -0.0000000

LOEWDIN ATOMIC CHARGES
----------------------
   0 C :   -0.000351
   1 O :   -0.005447
   2 H :   -0.002664
   3 H :   -0.000014
   4 H :   -0.000018
   5 H :   -0.000005
   6 C :   -0.404542
   7 O :   -0.062192
   8 H :    0.181539
   9 H :    0.095326
  10 H :    0.110965
  11 H :    0.087404

  Mayer bond orders larger than 0.1
B(  6-C ,  7-O ) :   1.0044 B(  6-C ,  9-H ) :   0.9866 B(  6-C , 10-H ) :   0.9709
B(  6-C , 11-H ) :   0.9713 B(  7-O ,  8-H ) :   0.8958

Dispersion correction           -0.000225937
FINAL SINGLE POINT ENERGY      -115.732847835588

DIPOLE MOMENT
-------------
                                X             Y             Z
Electronic contribution:      1.81492      -0.08848      -0.47334
Nuclear contribution   :     -2.09104       0.54799       0.89552
                        -----------------------------------------
Total Dipole Moment    :     -0.27613       0.45952       0.42218
                        -----------------------------------------
Magnitude (a.u.)       :      0.68237
Magnitude (Debye)      :      1.73446

Rotational constants in cm-1:     4.430432     0.857455     0.820090
Rotational constants in MHz : 132821.001953 25705.859122 24585.674890

                             ****ORCA TERMINATED NORMALLY****
TOTAL RUN TIME: 0 days 0 hours 0 minutes 40 seconds 926 msec
