                         Program Version 4.1.2  - RELEASE  -
|  1> #Run DFT-D3 single point of the dimer
|  2> ! wB97X-D3 def2-TZVP TIGHTSCF CHELPG PMODEL PAL8
|  3>
|  4> %base "15-57_DFT_AB"
|  5>
|  6> %scf
|  7> MaxIter 1000
|  8> end
|  9>
| 10> * xyz 0 1
| 11>   C                      6.149197             0.279348             -9.433511
| 12>   O                      5.689921             -0.889510            -10.169131
| 13>   H                      5.935280             -1.668389            -9.656727
| 14>   H                      7.211657             0.500550             -9.393534
| 15>   H                      5.712407             1.245952             -9.815995
| 16>   H                      5.875382             0.154037             -8.369263
| 17>   C                      10.483143            0.757925             -9.776347
| 18>   O                      11.320490            1.672200             -10.467025
| 19>   H                      11.979120            1.212257             -11.012882
| 20>   H                      9.533921             0.538275             -10.405251
| 21>   H                      11.047946            -0.147032            -9.629805
| 22>   H                      10.170085            1.207232             -8.779197
| 23> *
| 24>
| 25> #Run DFT-D3 single point of the molecule with dimer basis set
| 26> $new_job
| 27> %base "15-57_DFT_A"
| 28> ! wB97X-D3 def2-TZVP TIGHTSCF CHELPG PMODEL
| 29>
| 30> %scf
| 31> MaxIter 1000
| 32> end
| 33>
| 34> * xyz 0 1
| 35>   C                      6.149197             0.279348             -9.433511
| 36>   O                      5.689921             -0.889510            -10.169131
| 37>   H                      5.935280             -1.668389            -9.656727
| 38>   H                      7.211657             0.500550             -9.393534
| 39>   H                      5.712407             1.245952             -9.815995
| 40>   H                      5.875382             0.154037             -8.369263
| 41>   C                    : 10.483143            0.757925             -9.776347
| 42>   O                    : 11.320490            1.672200             -10.467025
| 43>   H                    : 11.979120            1.212257             -11.012882
| 44>   H                    : 9.533921             0.538275             -10.405251
| 45>   H                    : 11.047946            -0.147032            -9.629805
| 46>   H                    : 10.170085            1.207232             -8.779197
| 47> *
| 48>
| 49> #Run DFT-D3 single point of the particle with dimer basis set
| 50> $new_job
| 51> %base "15-57_DFT_B"
| 52> ! wB97X-D3 def2-TZVP TIGHTSCF CHELPG PMODEL
| 53>
| 54> %scf
| 55> MaxIter 1000
| 56> end
| 57>
| 58> * xyz 0 1
| 59>   C                    : 6.149197             0.279348             -9.433511
| 60>   O                    : 5.689921             -0.889510            -10.169131
| 61>   H                    : 5.935280             -1.668389            -9.656727
| 62>   H                    : 7.211657             0.500550             -9.393534
| 63>   H                    : 5.712407             1.245952             -9.815995
| 64>   H                    : 5.875382             0.154037             -8.369263
| 65>   C                      10.483143            0.757925             -9.776347
| 66>   O                      11.320490            1.672200             -10.467025
| 67>   H                      11.979120            1.212257             -11.012882
| 68>   H                      9.533921             0.538275             -10.405251
| 69>   H                      11.047946            -0.147032            -9.629805
| 70>   H                      10.170085            1.207232             -8.779197
| 71> *
| 72>
| 73>                          ****END OF INPUT****
 Total Charge           Charge          ....    0
 Multiplicity           Mult            ....    1
 Number of Electrons    NEL             ....   36
Dispersion correction           -0.001175857
FINAL SINGLE POINT ENERGY      -231.462619786928
Dispersion correction           -0.000278538
FINAL SINGLE POINT ENERGY      -115.730592332210

CARTESIAN COORDINATES (ANGSTROEM)
---------------------------------
  C      6.149197    0.279348   -9.433511
  O      5.689921   -0.889510  -10.169131
  H      5.935280   -1.668389   -9.656727
  H      7.211657    0.500550   -9.393534
  H      5.712407    1.245952   -9.815995
  H      5.875382    0.154037   -8.369263
  C     10.483143    0.757925   -9.776347
  O     11.320490    1.672200  -10.467025
  H     11.979120    1.212257  -11.012882
  H      9.533921    0.538275  -10.405251
  H     11.047946   -0.147032   -9.629805
  H     10.170085    1.207232   -8.779197

 Multiplicity           Mult            ....    1
 Number of Electrons    NEL             ....   18
 Basis Dimension        Dim             ....  172

ORBITAL ENERGIES
----------------

  NO   OCC          E(Eh)            E(eV)
   0   2.0000     -19.227648      -523.2109
   1   2.0000     -10.323327      -280.9120
   2   2.0000      -1.129927       -30.7469
   3   2.0000      -0.787642       -21.4328
   4   2.0000      -0.608485       -16.5577
   5   2.0000      -0.533410       -14.5148
   6   2.0000      -0.526877       -14.3371
   7   2.0000      -0.427619       -11.6361
   8   2.0000      -0.369283       -10.0487
   9   0.0000       0.086549         2.3551
  10   0.0000       0.112416         3.0590
  11   0.0000       0.150321         4.0904
  12   0.0000       0.165283         4.4976
  13   0.0000       0.181011         4.9256

MULLIKEN ATOMIC CHARGES
-----------------------
   0 C :    0.001533
   1 O :   -0.000007
   2 H :   -0.000019
   3 H :   -0.002986
   4 H :   -0.000116
   5 H :   -0.000082
   6 C :   -0.156355
   7 O :   -0.478403
   8 H :    0.317304
   9 H :    0.098160
  10 H :    0.105912
  11 H :    0.115058
Sum of atomic charges:    0.0000000

LOEWDIN ATOMIC CHARGES
----------------------
   0 C :   -0.001497
   1 O :   -0.000005
   2 H :   -0.000009
   3 H :   -0.003662
   4 H :   -0.000024
   5 H :   -0.000010
   6 C :   -0.386614
   7 O :   -0.092638
   8 H :    0.172866
   9 H :    0.106425
  10 H :    0.091031
  11 H :    0.114138

  Mayer bond orders larger than 0.1
B(  6-C ,  7-O ) :   0.9980 B(  6-C ,  9-H ) :   0.9690 B(  6-C , 10-H ) :   0.9814
B(  6-C , 11-H ) :   0.9694 B(  7-O ,  8-H ) :   0.8948

Dispersion correction           -0.000255118
FINAL SINGLE POINT ENERGY      -115.731486609585

DIPOLE MOMENT
-------------
                                X             Y             Z
Electronic contribution:      1.03764       1.21519      -0.75963
Nuclear contribution   :     -0.90831      -1.88749       0.69748
                        -----------------------------------------
Total Dipole Moment    :      0.12934      -0.67230      -0.06216
                        -----------------------------------------
Magnitude (a.u.)       :      0.68744
Magnitude (Debye)      :      1.74734

Rotational constants in cm-1:     4.061349     0.820239     0.794680
Rotational constants in MHz : 121756.170288 24590.137640 23823.909381

                             ****ORCA TERMINATED NORMALLY****
TOTAL RUN TIME: 0 days 0 hours 0 minutes 50 seconds 607 msec
