                         Program Version 4.1.2  - RELEASE  -
|  1> #Run DFT-D3 single point of the dimer
|  2> ! wB97X-D3 def2-TZVP TIGHTSCF CHELPG PMODEL PAL8
|  3>
|  4> %base "21-166_DFT_AB"
|  5>
|  6> %scf
|  7> MaxIter 1000
|  8> end
|  9>
| 10> * xyz 0 1
| 11>   C                      -0.476332            5.228080             -3.863871
| 12>   O                      0.558869             4.308490             -3.545075
| 13>   H                      0.259840             3.888630             -2.740243
| 14>   H                      -0.393640            5.740900             -4.847753
| 15>   H                      -1.548750            4.885884             -3.895985
| 16>   H                      -0.448631            6.086702             -3.136892
| 17>   C                      0.717877             3.743836             0.867789
| 18>   O                      0.164363             4.019188             -0.425646
| 19>   H                      -0.707830            4.373202             -0.283996
| 20>   H                      0.209102             2.871142             1.298025
| 21>   H                      1.781979             3.422874             0.875334
| 22>   H                      0.556332             4.543657             1.505800
| 23> *
| 24>
| 25> #Run DFT-D3 single point of the molecule with dimer basis set
| 26> $new_job
| 27> %base "21-166_DFT_A"
| 28> ! wB97X-D3 def2-TZVP TIGHTSCF CHELPG PMODEL
| 29>
| 30> %scf
| 31> MaxIter 1000
| 32> end
| 33>
| 34> * xyz 0 1
| 35>   C                      -0.476332            5.228080             -3.863871
| 36>   O                      0.558869             4.308490             -3.545075
| 37>   H                      0.259840             3.888630             -2.740243
| 38>   H                      -0.393640            5.740900             -4.847753
| 39>   H                      -1.548750            4.885884             -3.895985
| 40>   H                      -0.448631            6.086702             -3.136892
| 41>   C                    : 0.717877             3.743836             0.867789
| 42>   O                    : 0.164363             4.019188             -0.425646
| 43>   H                    : -0.707830            4.373202             -0.283996
| 44>   H                    : 0.209102             2.871142             1.298025
| 45>   H                    : 1.781979             3.422874             0.875334
| 46>   H                    : 0.556332             4.543657             1.505800
| 47> *
| 48>
| 49> #Run DFT-D3 single point of the particle with dimer basis set
| 50> $new_job
| 51> %base "21-166_DFT_B"
| 52> ! wB97X-D3 def2-TZVP TIGHTSCF CHELPG PMODEL
| 53>
| 54> %scf
| 55> MaxIter 1000
| 56> end
| 57>
| 58> * xyz 0 1
| 59>   C                    : -0.476332            5.228080             -3.863871
| 60>   O                    : 0.558869             4.308490             -3.545075
| 61>   H                    : 0.259840             3.888630             -2.740243
| 62>   H                    : -0.393640            5.740900             -4.847753
| 63>   H                    : -1.548750            4.885884             -3.895985
| 64>   H                    : -0.448631            6.086702             -3.136892
| 65>   C                      0.717877             3.743836             0.867789
| 66>   O                      0.164363             4.019188             -0.425646
| 67>   H                      -0.707830            4.373202             -0.283996
| 68>   H                      0.209102             2.871142             1.298025
| 69>   H                      1.781979             3.422874             0.875334
| 70>   H                      0.556332             4.543657             1.505800
| 71> *
| 72>
| 73>                          ****END OF INPUT****
 Total Charge           Charge          ....    0
 Multiplicity           Mult            ....    1
 Number of Electrons    NEL             ....   36
Dispersion correction           -0.001499110
FINAL SINGLE POINT ENERGY      -231.466787851281
Dispersion correction           -0.000272320
FINAL SINGLE POINT ENERGY      -115.730320483479

CARTESIAN COORDINATES (ANGSTROEM)
---------------------------------
  C     -0.476332    5.228080   -3.863871
  O      0.558869    4.308490   -3.545075
  H      0.259840    3.888630   -2.740243
  H     -0.393640    5.740900   -4.847753
  H     -1.548750    4.885884   -3.895985
  H     -0.448631    6.086702   -3.136892
  C      0.717877    3.743836    0.867789
  O      0.164363    4.019188   -0.425646
  H     -0.707830    4.373202   -0.283996
  H      0.209102    2.871142    1.298025
  H      1.781979    3.422874    0.875334
  H      0.556332    4.543657    1.505800

 Multiplicity           Mult            ....    1
 Number of Electrons    NEL             ....   18
 Basis Dimension        Dim             ....  172

ORBITAL ENERGIES
----------------

  NO   OCC          E(Eh)            E(eV)
   0   2.0000     -19.229504      -523.2614
   1   2.0000     -10.311264      -280.5838
   2   2.0000      -1.132783       -30.8246
   3   2.0000      -0.800401       -21.7800
   4   2.0000      -0.610349       -16.6084
   5   2.0000      -0.545470       -14.8430
   6   2.0000      -0.526017       -14.3137
   7   2.0000      -0.436622       -11.8811
   8   2.0000      -0.373022       -10.1505
   9   0.0000       0.093462         2.5432
  10   0.0000       0.125113         3.4045
  11   0.0000       0.154014         4.1909
  12   0.0000       0.186250         5.0681
  13   0.0000       0.203697         5.5429

MULLIKEN ATOMIC CHARGES
-----------------------
   0 C :    0.001172
   1 O :    0.000683
   2 H :   -0.009408
   3 H :   -0.000143
   4 H :   -0.000167
   5 H :   -0.002395
   6 C :   -0.172452
   7 O :   -0.468312
   8 H :    0.314470
   9 H :    0.099971
  10 H :    0.122502
  11 H :    0.114080
Sum of atomic charges:    0.0000000

LOEWDIN ATOMIC CHARGES
----------------------
   0 C :   -0.002279
   1 O :   -0.002358
   2 H :   -0.019197
   3 H :   -0.000024
   4 H :   -0.000042
   5 H :   -0.000979
   6 C :   -0.364904
   7 O :   -0.069511
   8 H :    0.164744
   9 H :    0.096967
  10 H :    0.114195
  11 H :    0.083390

  Mayer bond orders larger than 0.1
B(  6-C ,  7-O ) :   0.9893 B(  6-C ,  9-H ) :   0.9798 B(  6-C , 10-H ) :   0.9729
B(  6-C , 11-H ) :   0.9770 B(  7-O ,  8-H ) :   0.8979

Dispersion correction           -0.000234698
FINAL SINGLE POINT ENERGY      -115.731453132539

DIPOLE MOMENT
-------------
                                X             Y             Z
Electronic contribution:     -0.50951       0.43170      -1.69824
Nuclear contribution   :      0.18724      -0.32085       2.35174
                        -----------------------------------------
Total Dipole Moment    :     -0.32227       0.11085       0.65350
                        -----------------------------------------
Magnitude (a.u.)       :      0.73703
Magnitude (Debye)      :      1.87337

Rotational constants in cm-1:     4.441938     0.814403     0.782760
Rotational constants in MHz : 133165.938636 24415.191734 23466.566767

                             ****ORCA TERMINATED NORMALLY****
TOTAL RUN TIME: 0 days 0 hours 1 minutes 6 seconds 470 msec
