                         Program Version 4.1.2  - RELEASE  -
|  1> #Run DFT-D3 single point of the dimer
|  2> ! wB97X-D3 def2-TZVP TIGHTSCF CHELPG PMODEL PAL8
|  3>
|  4> %base "18-166_DFT_AB"
|  5>
|  6> %scf
|  7> MaxIter 1000
|  8> end
|  9>
| 10> * xyz 0 1
| 11>   C                      -1.267022            2.911247             -8.681025
| 12>   O                      -0.268756            3.705032             -8.117566
| 13>   H                      0.171322             4.219488             -8.783694
| 14>   H                      -1.871073            2.471587             -7.931495
| 15>   H                      -1.980089            3.506477             -9.290469
| 16>   H                      -0.813840            2.129485             -9.302339
| 17>   C                      2.532536             4.250372             -10.407954
| 18>   O                      2.136680             4.887346             -9.218160
| 19>   H                      1.826532             5.753218             -9.459123
| 20>   H                      3.161165             4.848346             -11.093476
| 21>   H                      3.211371             3.370717             -10.306538
| 22>   H                      1.683900             3.943087             -11.048109
| 23> *
| 24>
| 25> #Run DFT-D3 single point of the molecule with dimer basis set
| 26> $new_job
| 27> %base "18-166_DFT_A"
| 28> ! wB97X-D3 def2-TZVP TIGHTSCF CHELPG PMODEL
| 29>
| 30> %scf
| 31> MaxIter 1000
| 32> end
| 33>
| 34> * xyz 0 1
| 35>   C                      -1.267022            2.911247             -8.681025
| 36>   O                      -0.268756            3.705032             -8.117566
| 37>   H                      0.171322             4.219488             -8.783694
| 38>   H                      -1.871073            2.471587             -7.931495
| 39>   H                      -1.980089            3.506477             -9.290469
| 40>   H                      -0.813840            2.129485             -9.302339
| 41>   C                    : 2.532536             4.250372             -10.407954
| 42>   O                    : 2.136680             4.887346             -9.218160
| 43>   H                    : 1.826532             5.753218             -9.459123
| 44>   H                    : 3.161165             4.848346             -11.093476
| 45>   H                    : 3.211371             3.370717             -10.306538
| 46>   H                    : 1.683900             3.943087             -11.048109
| 47> *
| 48>
| 49> #Run DFT-D3 single point of the particle with dimer basis set
| 50> $new_job
| 51> %base "18-166_DFT_B"
| 52> ! wB97X-D3 def2-TZVP TIGHTSCF CHELPG PMODEL
| 53>
| 54> %scf
| 55> MaxIter 1000
| 56> end
| 57>
| 58> * xyz 0 1
| 59>   C                    : -1.267022            2.911247             -8.681025
| 60>   O                    : -0.268756            3.705032             -8.117566
| 61>   H                    : 0.171322             4.219488             -8.783694
| 62>   H                    : -1.871073            2.471587             -7.931495
| 63>   H                    : -1.980089            3.506477             -9.290469
| 64>   H                    : -0.813840            2.129485             -9.302339
| 65>   C                      2.532536             4.250372             -10.407954
| 66>   O                      2.136680             4.887346             -9.218160
| 67>   H                      1.826532             5.753218             -9.459123
| 68>   H                      3.161165             4.848346             -11.093476
| 69>   H                      3.211371             3.370717             -10.306538
| 70>   H                      1.683900             3.943087             -11.048109
| 71> *
| 72>
| 73>                          ****END OF INPUT****
 Total Charge           Charge          ....    0
 Multiplicity           Mult            ....    1
 Number of Electrons    NEL             ....   36
Dispersion correction           -0.001689732
FINAL SINGLE POINT ENERGY      -231.470303135827
Dispersion correction           -0.000233162
FINAL SINGLE POINT ENERGY      -115.736058135862

CARTESIAN COORDINATES (ANGSTROEM)
---------------------------------
  C     -1.267022    2.911247   -8.681025
  O     -0.268756    3.705032   -8.117566
  H      0.171322    4.219488   -8.783694
  H     -1.871073    2.471587   -7.931495
  H     -1.980089    3.506477   -9.290469
  H     -0.813840    2.129485   -9.302339
  C      2.532536    4.250372  -10.407954
  O      2.136680    4.887346   -9.218160
  H      1.826532    5.753218   -9.459123
  H      3.161165    4.848346  -11.093476
  H      3.211371    3.370717  -10.306538
  H      1.683900    3.943087  -11.048109

 Multiplicity           Mult            ....    1
 Number of Electrons    NEL             ....   18
 Basis Dimension        Dim             ....  172

ORBITAL ENERGIES
----------------

  NO   OCC          E(Eh)            E(eV)
   0   2.0000     -19.237648      -523.4830
   1   2.0000     -10.318573      -280.7827
   2   2.0000      -1.145029       -31.1578
   3   2.0000      -0.796359       -21.6700
   4   2.0000      -0.619080       -16.8460
   5   2.0000      -0.541235       -14.7278
   6   2.0000      -0.525101       -14.2887
   7   2.0000      -0.431894       -11.7524
   8   2.0000      -0.377487       -10.2720
   9   0.0000       0.092083         2.5057
  10   0.0000       0.124413         3.3854
  11   0.0000       0.145479         3.9587
  12   0.0000       0.188788         5.1372
  13   0.0000       0.198810         5.4099

MULLIKEN ATOMIC CHARGES
-----------------------
   0 C :    0.003327
   1 O :    0.006013
   2 H :   -0.025805
   3 H :   -0.000009
   4 H :   -0.000214
   5 H :   -0.000103
   6 C :   -0.183103
   7 O :   -0.452758
   8 H :    0.321195
   9 H :    0.104492
  10 H :    0.120793
  11 H :    0.106170
Sum of atomic charges:   -0.0000000

LOEWDIN ATOMIC CHARGES
----------------------
   0 C :   -0.000732
   1 O :   -0.006989
   2 H :   -0.030244
   3 H :   -0.000014
   4 H :   -0.000020
   5 H :   -0.000090
   6 C :   -0.407318
   7 O :   -0.030665
   8 H :    0.169747
   9 H :    0.096475
  10 H :    0.113087
  11 H :    0.096763

  Mayer bond orders larger than 0.1
B(  6-C ,  7-O ) :   0.9987 B(  6-C ,  9-H ) :   0.9755 B(  6-C , 10-H ) :   0.9715
B(  6-C , 11-H ) :   0.9745 B(  7-O ,  8-H ) :   0.8949

Dispersion correction           -0.000262362
FINAL SINGLE POINT ENERGY      -115.732043419701

DIPOLE MOMENT
-------------
                                X             Y             Z
Electronic contribution:     -0.54613       0.75924       1.82689
Nuclear contribution   :      0.53622      -0.43976      -2.44636
                        -----------------------------------------
Total Dipole Moment    :     -0.00991       0.31947      -0.61946
                        -----------------------------------------
Magnitude (a.u.)       :      0.69706
Magnitude (Debye)      :      1.77179

Rotational constants in cm-1:     4.447542     0.816923     0.791080
Rotational constants in MHz : 133333.965835 24490.748925 23715.985201

                             ****ORCA TERMINATED NORMALLY****
TOTAL RUN TIME: 0 days 0 hours 1 minutes 7 seconds 53 msec
