                         Program Version 4.1.2  - RELEASE  -
|  1> #Run DFT-D3 single point of the dimer
|  2> ! wB97X-D3 def2-TZVP TIGHTSCF CHELPG PMODEL PAL8
|  3>
|  4> %base "13-124_DFT_AB"
|  5>
|  6> %scf
|  7> MaxIter 1000
|  8> end
|  9>
| 10> * xyz 0 1
| 11>   C                      -4.441860            0.252273             -10.388572
| 12>   O                      -5.831980            0.272758             -10.110588
| 13>   H                      -6.199616            0.251479             -11.006176
| 14>   H                      -4.139284            1.101493             -11.007962
| 15>   H                      -3.881177            0.211888             -9.421861
| 16>   H                      -4.225145            -0.703041            -10.844103
| 17>   C                      -6.945636            3.312507             -8.402463
| 18>   O                      -6.953330            2.354367             -7.433523
| 19>   H                      -6.634259            1.523126             -7.842062
| 20>   H                      -7.547421            3.051407             -9.268377
| 21>   H                      -7.182945            4.348131             -8.049637
| 22>   H                      -5.994893            3.351768             -8.844000
| 23> *
| 24>
| 25> #Run DFT-D3 single point of the molecule with dimer basis set
| 26> $new_job
| 27> %base "13-124_DFT_A"
| 28> ! wB97X-D3 def2-TZVP TIGHTSCF CHELPG PMODEL
| 29>
| 30> %scf
| 31> MaxIter 1000
| 32> end
| 33>
| 34> * xyz 0 1
| 35>   C                      -4.441860            0.252273             -10.388572
| 36>   O                      -5.831980            0.272758             -10.110588
| 37>   H                      -6.199616            0.251479             -11.006176
| 38>   H                      -4.139284            1.101493             -11.007962
| 39>   H                      -3.881177            0.211888             -9.421861
| 40>   H                      -4.225145            -0.703041            -10.844103
| 41>   C                    : -6.945636            3.312507             -8.402463
| 42>   O                    : -6.953330            2.354367             -7.433523
| 43>   H                    : -6.634259            1.523126             -7.842062
| 44>   H                    : -7.547421            3.051407             -9.268377
| 45>   H                    : -7.182945            4.348131             -8.049637
| 46>   H                    : -5.994893            3.351768             -8.844000
| 47> *
| 48>
| 49> #Run DFT-D3 single point of the particle with dimer basis set
| 50> $new_job
| 51> %base "13-124_DFT_B"
| 52> ! wB97X-D3 def2-TZVP TIGHTSCF CHELPG PMODEL
| 53>
| 54> %scf
| 55> MaxIter 1000
| 56> end
| 57>
| 58> * xyz 0 1
| 59>   C                    : -4.441860            0.252273             -10.388572
| 60>   O                    : -5.831980            0.272758             -10.110588
| 61>   H                    : -6.199616            0.251479             -11.006176
| 62>   H                    : -4.139284            1.101493             -11.007962
| 63>   H                    : -3.881177            0.211888             -9.421861
| 64>   H                    : -4.225145            -0.703041            -10.844103
| 65>   C                      -6.945636            3.312507             -8.402463
| 66>   O                      -6.953330            2.354367             -7.433523
| 67>   H                      -6.634259            1.523126             -7.842062
| 68>   H                      -7.547421            3.051407             -9.268377
| 69>   H                      -7.182945            4.348131             -8.049637
| 70>   H                      -5.994893            3.351768             -8.844000
| 71> *
| 72>
| 73>                          ****END OF INPUT****
 Total Charge           Charge          ....    0
 Multiplicity           Mult            ....    1
 Number of Electrons    NEL             ....   36
Dispersion correction           -0.001671302
FINAL SINGLE POINT ENERGY      -231.468365363562
Dispersion correction           -0.000213209
FINAL SINGLE POINT ENERGY      -115.733810611664

CARTESIAN COORDINATES (ANGSTROEM)
---------------------------------
  C     -4.441860    0.252273  -10.388572
  O     -5.831980    0.272758  -10.110588
  H     -6.199616    0.251479  -11.006176
  H     -4.139284    1.101493  -11.007962
  H     -3.881177    0.211888   -9.421861
  H     -4.225145   -0.703041  -10.844103
  C     -6.945636    3.312507   -8.402463
  O     -6.953330    2.354367   -7.433523
  H     -6.634259    1.523126   -7.842062
  H     -7.547421    3.051407   -9.268377
  H     -7.182945    4.348131   -8.049637
  H     -5.994893    3.351768   -8.844000

 Multiplicity           Mult            ....    1
 Number of Electrons    NEL             ....   18
 Basis Dimension        Dim             ....  172

ORBITAL ENERGIES
----------------

  NO   OCC          E(Eh)            E(eV)
   0   2.0000     -19.232168      -523.3339
   1   2.0000     -10.304680      -280.4046
   2   2.0000      -1.150682       -31.3116
   3   2.0000      -0.793750       -21.5990
   4   2.0000      -0.625150       -17.0112
   5   2.0000      -0.542607       -14.7651
   6   2.0000      -0.535705       -14.5773
   7   2.0000      -0.433366       -11.7925
   8   2.0000      -0.366440        -9.9713
   9   0.0000       0.065951         1.7946
  10   0.0000       0.125924         3.4266
  11   0.0000       0.147315         4.0086
  12   0.0000       0.158703         4.3185
  13   0.0000       0.191185         5.2024

MULLIKEN ATOMIC CHARGES
-----------------------
   0 C :   -0.000057
   1 O :   -0.000432
   2 H :   -0.000076
   3 H :   -0.000281
   4 H :   -0.000102
   5 H :    0.000003
   6 C :   -0.165585
   7 O :   -0.461798
   8 H :    0.319270
   9 H :    0.092286
  10 H :    0.118067
  11 H :    0.098707
Sum of atomic charges:   -0.0000000

LOEWDIN ATOMIC CHARGES
----------------------
   0 C :   -0.000926
   1 O :   -0.002464
   2 H :   -0.000163
   3 H :   -0.000127
   4 H :   -0.000127
   5 H :   -0.000013
   6 C :   -0.429220
   7 O :   -0.043930
   8 H :    0.187599
   9 H :    0.090794
  10 H :    0.114651
  11 H :    0.083927

  Mayer bond orders larger than 0.1
B(  6-C ,  7-O ) :   1.0003 B(  6-C ,  9-H ) :   0.9798 B(  6-C , 10-H ) :   0.9696
B(  6-C , 11-H ) :   0.9867 B(  7-O ,  8-H ) :   0.8946

Dispersion correction           -0.000208708
FINAL SINGLE POINT ENERGY      -115.728923912926

DIPOLE MOMENT
-------------
                                X             Y             Z
Electronic contribution:     -0.12670      -1.16337       1.50844
Nuclear contribution   :      0.36110       0.98859      -2.13153
                        -----------------------------------------
Total Dipole Moment    :      0.23440      -0.17477      -0.62309
                        -----------------------------------------
Magnitude (a.u.)       :      0.68828
Magnitude (Debye)      :      1.74947

Rotational constants in cm-1:     4.408927     0.886657     0.837283
Rotational constants in MHz : 132176.293302 26581.306424 25101.112520

                             ****ORCA TERMINATED NORMALLY****
TOTAL RUN TIME: 0 days 0 hours 1 minutes 5 seconds 634 msec
