                         Program Version 4.1.2  - RELEASE  -
|  1> #Run DFT-D3 single point of the dimer
|  2> ! wB97X-D3 def2-TZVP TIGHTSCF CHELPG PMODEL PAL8
|  3>
|  4> %base "7-95_DFT_AB"
|  5>
|  6> %scf
|  7> MaxIter 1000
|  8> end
|  9>
| 10> * xyz 0 1
| 11>   C                      -4.531715            -3.327488            3.855180
| 12>   O                      -5.285925            -4.508734            4.030222
| 13>   H                      -4.623814            -5.225967            3.998889
| 14>   H                      -4.056107            -3.085744            4.805620
| 15>   H                      -3.844368            -3.437728            3.013197
| 16>   H                      -5.163979            -2.483007            3.642173
| 17>   C                      -8.587811            -5.711729            1.015743
| 18>   O                      -8.651256            -4.413905            1.663705
| 19>   H                      -9.360045            -4.427384            2.373298
| 20>   H                      -8.050251            -6.443600            1.630989
| 21>   H                      -9.606779            -6.084682            0.823730
| 22>   H                      -8.036534            -5.691645            0.135173
| 23> *
| 24>
| 25> #Run DFT-D3 single point of the molecule with dimer basis set
| 26> $new_job
| 27> %base "7-95_DFT_A"
| 28> ! wB97X-D3 def2-TZVP TIGHTSCF CHELPG PMODEL
| 29>
| 30> %scf
| 31> MaxIter 1000
| 32> end
| 33>
| 34> * xyz 0 1
| 35>   C                      -4.531715            -3.327488            3.855180
| 36>   O                      -5.285925            -4.508734            4.030222
| 37>   H                      -4.623814            -5.225967            3.998889
| 38>   H                      -4.056107            -3.085744            4.805620
| 39>   H                      -3.844368            -3.437728            3.013197
| 40>   H                      -5.163979            -2.483007            3.642173
| 41>   C                    : -8.587811            -5.711729            1.015743
| 42>   O                    : -8.651256            -4.413905            1.663705
| 43>   H                    : -9.360045            -4.427384            2.373298
| 44>   H                    : -8.050251            -6.443600            1.630989
| 45>   H                    : -9.606779            -6.084682            0.823730
| 46>   H                    : -8.036534            -5.691645            0.135173
| 47> *
| 48>
| 49> #Run DFT-D3 single point of the particle with dimer basis set
| 50> $new_job
| 51> %base "7-95_DFT_B"
| 52> ! wB97X-D3 def2-TZVP TIGHTSCF CHELPG PMODEL
| 53>
| 54> %scf
| 55> MaxIter 1000
| 56> end
| 57>
| 58> * xyz 0 1
| 59>   C                    : -4.531715            -3.327488            3.855180
| 60>   O                    : -5.285925            -4.508734            4.030222
| 61>   H                    : -4.623814            -5.225967            3.998889
| 62>   H                    : -4.056107            -3.085744            4.805620
| 63>   H                    : -3.844368            -3.437728            3.013197
| 64>   H                    : -5.163979            -2.483007            3.642173
| 65>   C                      -8.587811            -5.711729            1.015743
| 66>   O                      -8.651256            -4.413905            1.663705
| 67>   H                      -9.360045            -4.427384            2.373298
| 68>   H                      -8.050251            -6.443600            1.630989
| 69>   H                      -9.606779            -6.084682            0.823730
| 70>   H                      -8.036534            -5.691645            0.135173
| 71> *
| 72>
| 73>                          ****END OF INPUT****
 Total Charge           Charge          ....    0
 Multiplicity           Mult            ....    1
 Number of Electrons    NEL             ....   36
Dispersion correction           -0.000839034
FINAL SINGLE POINT ENERGY      -231.465091578984
Dispersion correction           -0.000221102
FINAL SINGLE POINT ENERGY      -115.734660664683

CARTESIAN COORDINATES (ANGSTROEM)
---------------------------------
  C     -4.531715   -3.327488    3.855180
  O     -5.285925   -4.508734    4.030222
  H     -4.623814   -5.225967    3.998889
  H     -4.056107   -3.085744    4.805620
  H     -3.844368   -3.437728    3.013197
  H     -5.163979   -2.483007    3.642173
  C     -8.587811   -5.711729    1.015743
  O     -8.651256   -4.413905    1.663705
  H     -9.360045   -4.427384    2.373298
  H     -8.050251   -6.443600    1.630989
  H     -9.606779   -6.084682    0.823730
  H     -8.036534   -5.691645    0.135173

 Multiplicity           Mult            ....    1
 Number of Electrons    NEL             ....   18
 Basis Dimension        Dim             ....  172

ORBITAL ENERGIES
----------------

  NO   OCC          E(Eh)            E(eV)
   0   2.0000     -19.232394      -523.3400
   1   2.0000     -10.311773      -280.5976
   2   2.0000      -1.115204       -30.3462
   3   2.0000      -0.799368       -21.7519
   4   2.0000      -0.597137       -16.2489
   5   2.0000      -0.538346       -14.6491
   6   2.0000      -0.529292       -14.4028
   7   2.0000      -0.432840       -11.7782
   8   2.0000      -0.372169       -10.1272
   9   0.0000       0.091788         2.4977
  10   0.0000       0.111864         3.0440
  11   0.0000       0.148909         4.0520
  12   0.0000       0.171730         4.6730
  13   0.0000       0.200444         5.4544

MULLIKEN ATOMIC CHARGES
-----------------------
   0 C :   -0.000760
   1 O :   -0.000112
   2 H :    0.000006
   3 H :   -0.000013
   4 H :    0.000085
   5 H :   -0.000178
   6 C :   -0.159286
   7 O :   -0.489675
   8 H :    0.318291
   9 H :    0.102067
  10 H :    0.103088
  11 H :    0.126486
Sum of atomic charges:   -0.0000000

LOEWDIN ATOMIC CHARGES
----------------------
   0 C :   -0.000394
   1 O :   -0.000336
   2 H :   -0.000020
   3 H :   -0.000011
   4 H :   -0.000002
   5 H :   -0.000121
   6 C :   -0.353892
   7 O :   -0.125129
   8 H :    0.190263
   9 H :    0.096284
  10 H :    0.098794
  11 H :    0.094565

  Mayer bond orders larger than 0.1
B(  6-C ,  7-O ) :   0.9963 B(  6-C ,  9-H ) :   0.9753 B(  6-C , 10-H ) :   0.9818
B(  6-C , 11-H ) :   0.9734 B(  7-O ,  8-H ) :   0.8926

Dispersion correction           -0.000260540
FINAL SINGLE POINT ENERGY      -115.731011839008

DIPOLE MOMENT
-------------
                                X             Y             Z
Electronic contribution:      0.04956       1.70076       0.61738
Nuclear contribution   :     -0.45729      -2.25861      -0.47147
                        -----------------------------------------
Total Dipole Moment    :     -0.40772      -0.55785       0.14591
                        -----------------------------------------
Magnitude (a.u.)       :      0.70621
Magnitude (Debye)      :      1.79503

Rotational constants in cm-1:     4.350946     0.792759     0.764196
Rotational constants in MHz : 130438.093396 23766.310732 22910.020856

                             ****ORCA TERMINATED NORMALLY****
TOTAL RUN TIME: 0 days 0 hours 0 minutes 50 seconds 246 msec
