                         Program Version 4.1.2  - RELEASE  -
|  1> #Run DFT-D3 single point of the dimer
|  2> ! wB97X-D3 def2-TZVP TIGHTSCF CHELPG PMODEL PAL8
|  3>
|  4> %base "20-141_DFT_AB"
|  5>
|  6> %scf
|  7> MaxIter 1000
|  8> end
|  9>
| 10> * xyz 0 1
| 11>   C                      -4.905139            5.262568             -10.301868
| 12>   O                      -4.333922            5.021783             -9.019390
| 13>   H                      -4.942635            5.445550             -8.437080
| 14>   H                      -4.087589            5.285542             -11.069867
| 15>   H                      -5.760049            4.649201             -10.628340
| 16>   H                      -5.338715            6.228068             -10.267397
| 17>   C                      -7.360046            7.106617             -6.792917
| 18>   O                      -6.498099            6.228392             -7.526867
| 19>   H                      -6.779358            5.342378             -7.266171
| 20>   H                      -7.479947            8.148388             -7.126850
| 21>   H                      -8.260560            6.529696             -6.851699
| 22>   H                      -7.000143            7.184007             -5.732038
| 23> *
| 24>
| 25> #Run DFT-D3 single point of the molecule with dimer basis set
| 26> $new_job
| 27> %base "20-141_DFT_A"
| 28> ! wB97X-D3 def2-TZVP TIGHTSCF CHELPG PMODEL
| 29>
| 30> %scf
| 31> MaxIter 1000
| 32> end
| 33>
| 34> * xyz 0 1
| 35>   C                      -4.905139            5.262568             -10.301868
| 36>   O                      -4.333922            5.021783             -9.019390
| 37>   H                      -4.942635            5.445550             -8.437080
| 38>   H                      -4.087589            5.285542             -11.069867
| 39>   H                      -5.760049            4.649201             -10.628340
| 40>   H                      -5.338715            6.228068             -10.267397
| 41>   C                    : -7.360046            7.106617             -6.792917
| 42>   O                    : -6.498099            6.228392             -7.526867
| 43>   H                    : -6.779358            5.342378             -7.266171
| 44>   H                    : -7.479947            8.148388             -7.126850
| 45>   H                    : -8.260560            6.529696             -6.851699
| 46>   H                    : -7.000143            7.184007             -5.732038
| 47> *
| 48>
| 49> #Run DFT-D3 single point of the particle with dimer basis set
| 50> $new_job
| 51> %base "20-141_DFT_B"
| 52> ! wB97X-D3 def2-TZVP TIGHTSCF CHELPG PMODEL
| 53>
| 54> %scf
| 55> MaxIter 1000
| 56> end
| 57>
| 58> * xyz 0 1
| 59>   C                    : -4.905139            5.262568             -10.301868
| 60>   O                    : -4.333922            5.021783             -9.019390
| 61>   H                    : -4.942635            5.445550             -8.437080
| 62>   H                    : -4.087589            5.285542             -11.069867
| 63>   H                    : -5.760049            4.649201             -10.628340
| 64>   H                    : -5.338715            6.228068             -10.267397
| 65>   C                      -7.360046            7.106617             -6.792917
| 66>   O                      -6.498099            6.228392             -7.526867
| 67>   H                      -6.779358            5.342378             -7.266171
| 68>   H                      -7.479947            8.148388             -7.126850
| 69>   H                      -8.260560            6.529696             -6.851699
| 70>   H                      -7.000143            7.184007             -5.732038
| 71> *
| 72>
| 73>                          ****END OF INPUT****
 Total Charge           Charge          ....    0
 Multiplicity           Mult            ....    1
 Number of Electrons    NEL             ....   36
Dispersion correction           -0.001652308
FINAL SINGLE POINT ENERGY      -231.463625536426
Dispersion correction           -0.000237191
FINAL SINGLE POINT ENERGY      -115.730462534459

CARTESIAN COORDINATES (ANGSTROEM)
---------------------------------
  C     -4.905139    5.262568  -10.301868
  O     -4.333922    5.021783   -9.019390
  H     -4.942635    5.445550   -8.437080
  H     -4.087589    5.285542  -11.069867
  H     -5.760049    4.649201  -10.628340
  H     -5.338715    6.228068  -10.267397
  C     -7.360046    7.106617   -6.792917
  O     -6.498099    6.228392   -7.526867
  H     -6.779358    5.342378   -7.266171
  H     -7.479947    8.148388   -7.126850
  H     -8.260560    6.529696   -6.851699
  H     -7.000143    7.184007   -5.732038

 Multiplicity           Mult            ....    1
 Number of Electrons    NEL             ....   18
 Basis Dimension        Dim             ....  172

ORBITAL ENERGIES
----------------

  NO   OCC          E(Eh)            E(eV)
   0   2.0000     -19.229381      -523.2580
   1   2.0000     -10.317240      -280.7464
   2   2.0000      -1.133327       -30.8394
   3   2.0000      -0.791674       -21.5425
   4   2.0000      -0.603739       -16.4286
   5   2.0000      -0.550088       -14.9687
   6   2.0000      -0.531118       -14.4525
   7   2.0000      -0.429476       -11.6866
   8   2.0000      -0.370236       -10.0746
   9   0.0000       0.096835         2.6350
  10   0.0000       0.123912         3.3718
  11   0.0000       0.153351         4.1729
  12   0.0000       0.192749         5.2450
  13   0.0000       0.199251         5.4219

MULLIKEN ATOMIC CHARGES
-----------------------
   0 C :    0.006217
   1 O :    0.001246
   2 H :   -0.016472
   3 H :   -0.000407
   4 H :   -0.001283
   5 H :   -0.006067
   6 C :   -0.175943
   7 O :   -0.453428
   8 H :    0.317609
   9 H :    0.127014
  10 H :    0.102082
  11 H :    0.099431
Sum of atomic charges:   -0.0000000

LOEWDIN ATOMIC CHARGES
----------------------
   0 C :   -0.007441
   1 O :   -0.004140
   2 H :   -0.037150
   3 H :   -0.000087
   4 H :   -0.000486
   5 H :   -0.003192
   6 C :   -0.370764
   7 O :   -0.059455
   8 H :    0.177506
   9 H :    0.108408
  10 H :    0.096604
  11 H :    0.100196

  Mayer bond orders larger than 0.1
B(  6-C ,  7-O ) :   0.9876 B(  6-C ,  9-H ) :   0.9701 B(  6-C , 10-H ) :   0.9959
B(  6-C , 11-H ) :   0.9703 B(  7-O ,  8-H ) :   0.8951

Dispersion correction           -0.000225251
FINAL SINGLE POINT ENERGY      -115.725632479515

DIPOLE MOMENT
-------------
                                X             Y             Z
Electronic contribution:      1.12552      -0.82477      -1.07217
Nuclear contribution   :     -1.67414       0.63748       1.52958
                        -----------------------------------------
Total Dipole Moment    :     -0.54862      -0.18730       0.45741
                        -----------------------------------------
Magnitude (a.u.)       :      0.73844
Magnitude (Debye)      :      1.87697

Rotational constants in cm-1:     4.253712     0.821623     0.792166
Rotational constants in MHz : 127523.076515 24631.652219 23748.553748

                             ****ORCA TERMINATED NORMALLY****
TOTAL RUN TIME: 0 days 0 hours 1 minutes 6 seconds 831 msec
