                         Program Version 4.1.2  - RELEASE  -
|  1> #Run DFT-D3 single point of the dimer
|  2> ! wB97X-D3 def2-TZVP TIGHTSCF CHELPG PMODEL PAL8
|  3>
|  4> %base "16-85_DFT_AB"
|  5>
|  6> %scf
|  7> MaxIter 1000
|  8> end
|  9>
| 10> * xyz 0 1
| 11>   C                      1.485028             2.866668             11.191932
| 12>   O                      1.771618             3.996363             10.331948
| 13>   H                      2.698560             4.135901             10.339584
| 14>   H                      1.582231             2.996211             12.246738
| 15>   H                      0.440987             2.521089             11.096234
| 16>   H                      2.100099             1.998036             10.935745
| 17>   C                      3.782099             -1.689490            9.960566
| 18>   O                      4.097755             -0.392329            10.347687
| 19>   H                      4.260584             -0.359440            11.272077
| 20>   H                      4.633895             -2.380026            10.094149
| 21>   H                      3.013281             -2.018610            10.629541
| 22>   H                      3.443816             -1.794672            8.939361
| 23> *
| 24>
| 25> #Run DFT-D3 single point of the molecule with dimer basis set
| 26> $new_job
| 27> %base "16-85_DFT_A"
| 28> ! wB97X-D3 def2-TZVP TIGHTSCF CHELPG PMODEL
| 29>
| 30> %scf
| 31> MaxIter 1000
| 32> end
| 33>
| 34> * xyz 0 1
| 35>   C                      1.485028             2.866668             11.191932
| 36>   O                      1.771618             3.996363             10.331948
| 37>   H                      2.698560             4.135901             10.339584
| 38>   H                      1.582231             2.996211             12.246738
| 39>   H                      0.440987             2.521089             11.096234
| 40>   H                      2.100099             1.998036             10.935745
| 41>   C                    : 3.782099             -1.689490            9.960566
| 42>   O                    : 4.097755             -0.392329            10.347687
| 43>   H                    : 4.260584             -0.359440            11.272077
| 44>   H                    : 4.633895             -2.380026            10.094149
| 45>   H                    : 3.013281             -2.018610            10.629541
| 46>   H                    : 3.443816             -1.794672            8.939361
| 47> *
| 48>
| 49> #Run DFT-D3 single point of the particle with dimer basis set
| 50> $new_job
| 51> %base "16-85_DFT_B"
| 52> ! wB97X-D3 def2-TZVP TIGHTSCF CHELPG PMODEL
| 53>
| 54> %scf
| 55> MaxIter 1000
| 56> end
| 57>
| 58> * xyz 0 1
| 59>   C                    : 1.485028             2.866668             11.191932
| 60>   O                    : 1.771618             3.996363             10.331948
| 61>   H                    : 2.698560             4.135901             10.339584
| 62>   H                    : 1.582231             2.996211             12.246738
| 63>   H                    : 0.440987             2.521089             11.096234
| 64>   H                    : 2.100099             1.998036             10.935745
| 65>   C                      3.782099             -1.689490            9.960566
| 66>   O                      4.097755             -0.392329            10.347687
| 67>   H                      4.260584             -0.359440            11.272077
| 68>   H                      4.633895             -2.380026            10.094149
| 69>   H                      3.013281             -2.018610            10.629541
| 70>   H                      3.443816             -1.794672            8.939361
| 71> *
| 72>
| 73>                          ****END OF INPUT****
 Total Charge           Charge          ....    0
 Multiplicity           Mult            ....    1
 Number of Electrons    NEL             ....   36
Dispersion correction           -0.000991669
FINAL SINGLE POINT ENERGY      -231.466696088757
Dispersion correction           -0.000271295
FINAL SINGLE POINT ENERGY      -115.732329263586

CARTESIAN COORDINATES (ANGSTROEM)
---------------------------------
  C      1.485028    2.866668   11.191932
  O      1.771618    3.996363   10.331948
  H      2.698560    4.135901   10.339584
  H      1.582231    2.996211   12.246738
  H      0.440987    2.521089   11.096234
  H      2.100099    1.998036   10.935745
  C      3.782099   -1.689490    9.960566
  O      4.097755   -0.392329   10.347687
  H      4.260584   -0.359440   11.272077
  H      4.633895   -2.380026   10.094149
  H      3.013281   -2.018610   10.629541
  H      3.443816   -1.794672    8.939361

 Multiplicity           Mult            ....    1
 Number of Electrons    NEL             ....   18
 Basis Dimension        Dim             ....  172

ORBITAL ENERGIES
----------------

  NO   OCC          E(Eh)            E(eV)
   0   2.0000     -19.226218      -523.1720
   1   2.0000     -10.308602      -280.5113
   2   2.0000      -1.146387       -31.1948
   3   2.0000      -0.799255       -21.7488
   4   2.0000      -0.618160       -16.8210
   5   2.0000      -0.546304       -14.8657
   6   2.0000      -0.537661       -14.6305
   7   2.0000      -0.429627       -11.6907
   8   2.0000      -0.369992       -10.0680
   9   0.0000       0.092177         2.5083
  10   0.0000       0.120062         3.2671
  11   0.0000       0.157252         4.2790
  12   0.0000       0.170014         4.6263
  13   0.0000       0.203054         5.5254

MULLIKEN ATOMIC CHARGES
-----------------------
   0 C :    0.003993
   1 O :   -0.000046
   2 H :   -0.000070
   3 H :   -0.000140
   4 H :   -0.000119
   5 H :   -0.009988
   6 C :   -0.155764
   7 O :   -0.468574
   8 H :    0.315285
   9 H :    0.092666
  10 H :    0.101075
  11 H :    0.121682
Sum of atomic charges:   -0.0000000

LOEWDIN ATOMIC CHARGES
----------------------
   0 C :   -0.000817
   1 O :   -0.000014
   2 H :   -0.000011
   3 H :   -0.000009
   4 H :   -0.000007
   5 H :   -0.004612
   6 C :   -0.395514
   7 O :   -0.049269
   8 H :    0.158149
   9 H :    0.094557
  10 H :    0.091407
  11 H :    0.106139

  Mayer bond orders larger than 0.1
B(  6-C ,  7-O ) :   0.9909 B(  6-C ,  9-H ) :   0.9727 B(  6-C , 10-H ) :   0.9913
B(  6-C , 11-H ) :   0.9712 B(  7-O ,  8-H ) :   0.8990

Dispersion correction           -0.000219134
FINAL SINGLE POINT ENERGY      -115.733322045247

DIPOLE MOMENT
-------------
                                X             Y             Z
Electronic contribution:      0.37742       1.75106       0.27004
Nuclear contribution   :     -0.40620      -2.25278       0.17326
                        -----------------------------------------
Total Dipole Moment    :     -0.02878      -0.50172       0.44330
                        -----------------------------------------
Magnitude (a.u.)       :      0.67013
Magnitude (Debye)      :      1.70333

Rotational constants in cm-1:     4.445734     0.854842     0.824147
Rotational constants in MHz : 133279.751844 25627.523093 24707.308621

                             ****ORCA TERMINATED NORMALLY****
TOTAL RUN TIME: 0 days 0 hours 0 minutes 49 seconds 307 msec
