                         Program Version 4.1.2  - RELEASE  -
|  1> #Run DFT-D3 single point of the dimer
|  2> ! wB97X-D3 def2-TZVP TIGHTSCF CHELPG PMODEL PAL8
|  3>
|  4> %base "16-73_DFT_AB"
|  5>
|  6> %scf
|  7> MaxIter 1000
|  8> end
|  9>
| 10> * xyz 0 1
| 11>   C                      1.882657             -5.473259            -4.311445
| 12>   O                      1.200089             -6.616802            -4.829966
| 13>   H                      0.588911             -6.281126            -5.540718
| 14>   H                      2.877696             -5.712606            -3.843402
| 15>   H                      2.170245             -4.752331            -5.142988
| 16>   H                      1.250145             -4.869591            -3.657311
| 17>   C                      0.745206             -3.975291            -0.579764
| 18>   O                      0.307130             -2.700104            -0.591971
| 19>   H                      0.261849             -2.321639            0.278129
| 20>   H                      1.456053             -4.077456            0.239534
| 21>   H                      -0.000700            -4.631247            -0.176744
| 22>   H                      1.118313             -4.411004            -1.534896
| 23> *
| 24>
| 25> #Run DFT-D3 single point of the molecule with dimer basis set
| 26> $new_job
| 27> %base "16-73_DFT_A"
| 28> ! wB97X-D3 def2-TZVP TIGHTSCF CHELPG PMODEL
| 29>
| 30> %scf
| 31> MaxIter 1000
| 32> end
| 33>
| 34> * xyz 0 1
| 35>   C                      1.882657             -5.473259            -4.311445
| 36>   O                      1.200089             -6.616802            -4.829966
| 37>   H                      0.588911             -6.281126            -5.540718
| 38>   H                      2.877696             -5.712606            -3.843402
| 39>   H                      2.170245             -4.752331            -5.142988
| 40>   H                      1.250145             -4.869591            -3.657311
| 41>   C                    : 0.745206             -3.975291            -0.579764
| 42>   O                    : 0.307130             -2.700104            -0.591971
| 43>   H                    : 0.261849             -2.321639            0.278129
| 44>   H                    : 1.456053             -4.077456            0.239534
| 45>   H                    : -0.000700            -4.631247            -0.176744
| 46>   H                    : 1.118313             -4.411004            -1.534896
| 47> *
| 48>
| 49> #Run DFT-D3 single point of the particle with dimer basis set
| 50> $new_job
| 51> %base "16-73_DFT_B"
| 52> ! wB97X-D3 def2-TZVP TIGHTSCF CHELPG PMODEL
| 53>
| 54> %scf
| 55> MaxIter 1000
| 56> end
| 57>
| 58> * xyz 0 1
| 59>   C                    : 1.882657             -5.473259            -4.311445
| 60>   O                    : 1.200089             -6.616802            -4.829966
| 61>   H                    : 0.588911             -6.281126            -5.540718
| 62>   H                    : 2.877696             -5.712606            -3.843402
| 63>   H                    : 2.170245             -4.752331            -5.142988
| 64>   H                    : 1.250145             -4.869591            -3.657311
| 65>   C                      0.745206             -3.975291            -0.579764
| 66>   O                      0.307130             -2.700104            -0.591971
| 67>   H                      0.261849             -2.321639            0.278129
| 68>   H                      1.456053             -4.077456            0.239534
| 69>   H                      -0.000700            -4.631247            -0.176744
| 70>   H                      1.118313             -4.411004            -1.534896
| 71> *
| 72>
| 73>                          ****END OF INPUT****
 Total Charge           Charge          ....    0
 Multiplicity           Mult            ....    1
 Number of Electrons    NEL             ....   36
Dispersion correction           -0.001168555
FINAL SINGLE POINT ENERGY      -231.456686722650
Dispersion correction           -0.000260539
FINAL SINGLE POINT ENERGY      -115.731194558638

CARTESIAN COORDINATES (ANGSTROEM)
---------------------------------
  C      1.882657   -5.473259   -4.311445
  O      1.200089   -6.616802   -4.829966
  H      0.588911   -6.281126   -5.540718
  H      2.877696   -5.712606   -3.843402
  H      2.170245   -4.752331   -5.142988
  H      1.250145   -4.869591   -3.657311
  C      0.745206   -3.975291   -0.579764
  O      0.307130   -2.700104   -0.591971
  H      0.261849   -2.321639    0.278129
  H      1.456053   -4.077456    0.239534
  H     -0.000700   -4.631247   -0.176744
  H      1.118313   -4.411004   -1.534896

 Multiplicity           Mult            ....    1
 Number of Electrons    NEL             ....   18
 Basis Dimension        Dim             ....  172

ORBITAL ENERGIES
----------------

  NO   OCC          E(Eh)            E(eV)
   0   2.0000     -19.226474      -523.1790
   1   2.0000     -10.307668      -280.4859
   2   2.0000      -1.157443       -31.4956
   3   2.0000      -0.797296       -21.6955
   4   2.0000      -0.632349       -17.2071
   5   2.0000      -0.545392       -14.8409
   6   2.0000      -0.538350       -14.6492
   7   2.0000      -0.427266       -11.6265
   8   2.0000      -0.361528        -9.8377
   9   0.0000       0.088730         2.4145
  10   0.0000       0.113842         3.0978
  11   0.0000       0.152910         4.1609
  12   0.0000       0.173537         4.7222
  13   0.0000       0.192242         5.2312

MULLIKEN ATOMIC CHARGES
-----------------------
   0 C :   -0.002247
   1 O :    0.000048
   2 H :    0.000017
   3 H :   -0.000457
   4 H :    0.000090
   5 H :    0.004526
   6 C :   -0.154013
   7 O :   -0.468457
   8 H :    0.321311
   9 H :    0.089480
  10 H :    0.091106
  11 H :    0.118596
Sum of atomic charges:    0.0000000

LOEWDIN ATOMIC CHARGES
----------------------
   0 C :   -0.003828
   1 O :   -0.000009
   2 H :   -0.000002
   3 H :   -0.000251
   4 H :   -0.000021
   5 H :   -0.005732
   6 C :   -0.434021
   7 O :   -0.024384
   8 H :    0.170212
   9 H :    0.093003
  10 H :    0.087811
  11 H :    0.117223

  Mayer bond orders larger than 0.1
B(  6-C ,  7-O ) :   1.0116 B(  6-C ,  9-H ) :   0.9969 B(  6-C , 10-H ) :   0.9803
B(  6-C , 11-H ) :   0.9642 B(  7-O ,  8-H ) :   0.8920

Dispersion correction           -0.000210894
FINAL SINGLE POINT ENERGY      -115.725020350152

DIPOLE MOMENT
-------------
                                X             Y             Z
Electronic contribution:     -0.57073       1.78175      -0.34942
Nuclear contribution   :      0.69851      -2.00308       0.94496
                        -----------------------------------------
Total Dipole Moment    :      0.12778      -0.22133       0.59554
                        -----------------------------------------
Magnitude (a.u.)       :      0.64806
Magnitude (Debye)      :      1.64725

Rotational constants in cm-1:     4.484570     0.898157     0.846940
Rotational constants in MHz : 134444.012927 26926.060408 25390.611120

                             ****ORCA TERMINATED NORMALLY****
TOTAL RUN TIME: 0 days 0 hours 1 minutes 0 seconds 157 msec
