                         Program Version 4.1.2  - RELEASE  -
|  1> #Run DFT-D3 single point of the dimer
|  2> ! wB97X-D3 def2-TZVP TIGHTSCF  CHELPG PAL8
|  3>
|  4> %base "9_charges"
|  5>
|  6> %scf
|  7> MaxIter 1000
|  8> end
|  9> %output
| 10>   Print[ P_Mayer ] 1
| 11>   Print[ P_NatPop ] 1
| 12>   Print[ P_Hirshfeld ] 1
| 13>   Print[ P_Mulliken ] 1
| 14>   Print [ P_Loewdin ] 1
| 15> end
| 16>
| 17> * xyz 0 1
| 18>   C                      -7.214228            -11.575751           5.219818
| 19>   O                      -8.100878            -10.534637           4.850895
| 20>   H                      -7.878710            -9.863122            5.484422
| 21>   H                      -7.820722            -12.348117           5.734426
| 22>   H                      -6.724882            -11.972702           4.342793
| 23>   H                      -6.504638            -11.155293           5.889680
| 24> *
| 25>
| 26>                          ****END OF INPUT****

CARTESIAN COORDINATES (ANGSTROEM)
---------------------------------
  C     -7.214228  -11.575751    5.219818
  O     -8.100878  -10.534637    4.850895
  H     -7.878710   -9.863122    5.484422
  H     -7.820722  -12.348117    5.734426
  H     -6.724882  -11.972702    4.342793
  H     -6.504638  -11.155293    5.889680

 Total Charge           Charge          ....    0
 Multiplicity           Mult            ....    1
 Number of Electrons    NEL             ....   18
 Basis Dimension        Dim             ....   86

ORBITAL ENERGIES
----------------

  NO   OCC          E(Eh)            E(eV)
   0   2.0000     -19.225587      -523.1548
   1   2.0000     -10.309683      -280.5407
   2   2.0000      -1.140723       -31.0407
   3   2.0000      -0.792897       -21.5758
   4   2.0000      -0.613724       -16.7003
   5   2.0000      -0.545326       -14.8391
   6   2.0000      -0.526553       -14.3282
   7   2.0000      -0.440610       -11.9896
   8   2.0000      -0.371458       -10.1079
   9   0.0000       0.112098         3.0503
  10   0.0000       0.161909         4.4058
  11   0.0000       0.195272         5.3136
  12   0.0000       0.207752         5.6532
  13   0.0000       0.238040         6.4774

MULLIKEN ATOMIC CHARGES
-----------------------
   0 C :   -0.163995
   1 O :   -0.464843
   2 H :    0.309897
   3 H :    0.103615
   4 H :    0.113064
   5 H :    0.102262
Sum of atomic charges:    0.0000000

LOEWDIN ATOMIC CHARGES
----------------------
   0 C :   -0.375805
   1 O :   -0.079640
   2 H :    0.163588
   3 H :    0.101835
   4 H :    0.099739
   5 H :    0.090282

  Mayer bond orders larger than 0.1
B(  0-C ,  1-O ) :   1.0053 B(  0-C ,  3-H ) :   0.9765 B(  0-C ,  4-H ) :   0.9744
B(  0-C ,  5-H ) :   0.9934 B(  1-O ,  2-H ) :   0.9096

Dispersion correction           -0.000211546
FINAL SINGLE POINT ENERGY      -115.731865654613

DIPOLE MOMENT
-------------
                                X             Y             Z
Electronic contribution:     -1.08942       1.18892      -0.61075
Nuclear contribution   :      1.59577      -1.15315       1.15743
                        -----------------------------------------
Total Dipole Moment    :      0.50635       0.03577       0.54668
                        -----------------------------------------
Magnitude (a.u.)       :      0.74602
Magnitude (Debye)      :      1.89622

Rotational constants in cm-1:     4.202346     0.849733     0.820865
Rotational constants in MHz : 125983.154269 25474.352463 24608.910633

                             ****ORCA TERMINATED NORMALLY****
TOTAL RUN TIME: 0 days 0 hours 0 minutes 41 seconds 223 msec
