                         Program Version 4.1.2  - RELEASE  -
|  1> #Run DFT-D3 single point of the dimer
|  2> ! wB97X-D3 def2-TZVP TIGHTSCF CHELPG PMODEL PAL8
|  3>
|  4> %base "5-103_DFT_AB"
|  5>
|  6> %scf
|  7> MaxIter 1000
|  8> end
|  9>
| 10> * xyz 0 1
| 11>   C                      10.099755            -8.391832            7.426089
| 12>   O                      8.932273             -9.123837            7.036020
| 13>   H                      9.240936             -10.078565           7.004083
| 14>   H                      10.500209            -8.720719            8.378348
| 15>   H                      10.929111            -8.689775            6.786376
| 16>   H                      9.978572             -7.339789            7.447551
| 17>   C                      6.029280             -9.175350            9.917710
| 18>   O                      7.212876             -8.355816            9.850832
| 19>   H                      7.738320             -8.490723            9.042693
| 20>   H                      6.303231             -10.242801           9.700826
| 21>   H                      5.373470             -9.245646            10.809039
| 22>   H                      5.365920             -8.959489            9.043971
| 23> *
| 24>
| 25> #Run DFT-D3 single point of the molecule with dimer basis set
| 26> $new_job
| 27> %base "5-103_DFT_A"
| 28> ! wB97X-D3 def2-TZVP TIGHTSCF CHELPG PMODEL
| 29>
| 30> %scf
| 31> MaxIter 1000
| 32> end
| 33>
| 34> * xyz 0 1
| 35>   C                      10.099755            -8.391832            7.426089
| 36>   O                      8.932273             -9.123837            7.036020
| 37>   H                      9.240936             -10.078565           7.004083
| 38>   H                      10.500209            -8.720719            8.378348
| 39>   H                      10.929111            -8.689775            6.786376
| 40>   H                      9.978572             -7.339789            7.447551
| 41>   C                    : 6.029280             -9.175350            9.917710
| 42>   O                    : 7.212876             -8.355816            9.850832
| 43>   H                    : 7.738320             -8.490723            9.042693
| 44>   H                    : 6.303231             -10.242801           9.700826
| 45>   H                    : 5.373470             -9.245646            10.809039
| 46>   H                    : 5.365920             -8.959489            9.043971
| 47> *
| 48>
| 49> #Run DFT-D3 single point of the particle with dimer basis set
| 50> $new_job
| 51> %base "5-103_DFT_B"
| 52> ! wB97X-D3 def2-TZVP TIGHTSCF CHELPG PMODEL
| 53>
| 54> %scf
| 55> MaxIter 1000
| 56> end
| 57>
| 58> * xyz 0 1
| 59>   C                    : 10.099755            -8.391832            7.426089
| 60>   O                    : 8.932273             -9.123837            7.036020
| 61>   H                    : 9.240936             -10.078565           7.004083
| 62>   H                    : 10.500209            -8.720719            8.378348
| 63>   H                    : 10.929111            -8.689775            6.786376
| 64>   H                    : 9.978572             -7.339789            7.447551
| 65>   C                      6.029280             -9.175350            9.917710
| 66>   O                      7.212876             -8.355816            9.850832
| 67>   H                      7.738320             -8.490723            9.042693
| 68>   H                      6.303231             -10.242801           9.700826
| 69>   H                      5.373470             -9.245646            10.809039
| 70>   H                      5.365920             -8.959489            9.043971
| 71> *
| 72>
| 73>                          ****END OF INPUT****
 Total Charge           Charge          ....    0
 Multiplicity           Mult            ....    1
 Number of Electrons    NEL             ....   36
Dispersion correction           -0.001599343
FINAL SINGLE POINT ENERGY      -231.460198066728
Dispersion correction           -0.000228026
FINAL SINGLE POINT ENERGY      -115.729994112185

CARTESIAN COORDINATES (ANGSTROEM)
---------------------------------
  C     10.099755   -8.391832    7.426089
  O      8.932273   -9.123837    7.036020
  H      9.240936  -10.078565    7.004083
  H     10.500209   -8.720719    8.378348
  H     10.929111   -8.689775    6.786376
  H      9.978572   -7.339789    7.447551
  C      6.029280   -9.175350    9.917710
  O      7.212876   -8.355816    9.850832
  H      7.738320   -8.490723    9.042693
  H      6.303231  -10.242801    9.700826
  H      5.373470   -9.245646   10.809039
  H      5.365920   -8.959489    9.043971

 Multiplicity           Mult            ....    1
 Number of Electrons    NEL             ....   18
 Basis Dimension        Dim             ....  172

ORBITAL ENERGIES
----------------

  NO   OCC          E(Eh)            E(eV)
   0   2.0000     -19.232251      -523.3362
   1   2.0000     -10.325318      -280.9662
   2   2.0000      -1.123629       -30.5755
   3   2.0000      -0.795412       -21.6443
   4   2.0000      -0.608978       -16.5711
   5   2.0000      -0.534292       -14.5388
   6   2.0000      -0.523497       -14.2451
   7   2.0000      -0.425018       -11.5653
   8   2.0000      -0.369543       -10.0558
   9   0.0000       0.068417         1.8617
  10   0.0000       0.127920         3.4809
  11   0.0000       0.143363         3.9011
  12   0.0000       0.163235         4.4419
  13   0.0000       0.189487         5.1562

MULLIKEN ATOMIC CHARGES
-----------------------
   0 C :    0.000690
   1 O :   -0.001099
   2 H :   -0.000137
   3 H :   -0.001072
   4 H :    0.000092
   5 H :   -0.000345
   6 C :   -0.182581
   7 O :   -0.488119
   8 H :    0.322674
   9 H :    0.103412
  10 H :    0.139273
  11 H :    0.107212
Sum of atomic charges:   -0.0000000

LOEWDIN ATOMIC CHARGES
----------------------
   0 C :   -0.004214
   1 O :   -0.004827
   2 H :   -0.000420
   3 H :   -0.000678
   4 H :   -0.000042
   5 H :   -0.000277
   6 C :   -0.379980
   7 O :   -0.101855
   8 H :    0.179967
   9 H :    0.099244
  10 H :    0.114029
  11 H :    0.099053

  Mayer bond orders larger than 0.1
B(  6-C ,  7-O ) :   0.9778 B(  6-C ,  9-H ) :   0.9800 B(  6-C , 10-H ) :   0.9639
B(  6-C , 11-H ) :   0.9797 B(  7-O ,  8-H ) :   0.8935

Dispersion correction           -0.000280646
FINAL SINGLE POINT ENERGY      -115.723947789959

DIPOLE MOMENT
-------------
                                X             Y             Z
Electronic contribution:      1.50039       1.27698       0.26266
Nuclear contribution   :     -1.66492      -1.72403      -0.75575
                        -----------------------------------------
Total Dipole Moment    :     -0.16454      -0.44704      -0.49309
                        -----------------------------------------
Magnitude (a.u.)       :      0.68561
Magnitude (Debye)      :      1.74267

Rotational constants in cm-1:     4.425499     0.781747     0.753191
Rotational constants in MHz : 132673.108542 23436.197818 22580.093590

                             ****ORCA TERMINATED NORMALLY****
TOTAL RUN TIME: 0 days 0 hours 0 minutes 59 seconds 686 msec
