                         Program Version 4.1.2  - RELEASE  -
|  1> #Run DFT-D3 single point of the dimer
|  2> ! wB97X-D3 def2-TZVP TIGHTSCF CHELPG PMODEL PAL8
|  3>
|  4> %base "20-13_DFT_AB"
|  5>
|  6> %scf
|  7> MaxIter 1000
|  8> end
|  9>
| 10> * xyz 0 1
| 11>   C                      -3.541612            8.218738             -6.097579
| 12>   O                      -2.500026            7.841059             -5.165467
| 13>   H                      -2.808424            8.091062             -4.276652
| 14>   H                      -4.504519            8.175344             -5.636522
| 15>   H                      -3.270904            9.255707             -6.480989
| 16>   H                      -3.586497            7.616042             -6.948879
| 17>   C                      -1.761067            5.722091             -2.002277
| 18>   O                      -1.949604            4.450320             -2.319201
| 19>   H                      -2.743328            3.992807             -2.075747
| 20>   H                      -2.692750            6.144057             -1.678658
| 21>   H                      -0.954174            5.871586             -1.341224
| 22>   H                      -1.561292            6.309232             -2.952997
| 23> *
| 24>
| 25> #Run DFT-D3 single point of the molecule with dimer basis set
| 26> $new_job
| 27> %base "20-13_DFT_A"
| 28> ! wB97X-D3 def2-TZVP TIGHTSCF CHELPG PMODEL
| 29>
| 30> %scf
| 31> MaxIter 1000
| 32> end
| 33>
| 34> * xyz 0 1
| 35>   C                      -3.541612            8.218738             -6.097579
| 36>   O                      -2.500026            7.841059             -5.165467
| 37>   H                      -2.808424            8.091062             -4.276652
| 38>   H                      -4.504519            8.175344             -5.636522
| 39>   H                      -3.270904            9.255707             -6.480989
| 40>   H                      -3.586497            7.616042             -6.948879
| 41>   C                    : -1.761067            5.722091             -2.002277
| 42>   O                    : -1.949604            4.450320             -2.319201
| 43>   H                    : -2.743328            3.992807             -2.075747
| 44>   H                    : -2.692750            6.144057             -1.678658
| 45>   H                    : -0.954174            5.871586             -1.341224
| 46>   H                    : -1.561292            6.309232             -2.952997
| 47> *
| 48>
| 49> #Run DFT-D3 single point of the particle with dimer basis set
| 50> $new_job
| 51> %base "20-13_DFT_B"
| 52> ! wB97X-D3 def2-TZVP TIGHTSCF CHELPG PMODEL
| 53>
| 54> %scf
| 55> MaxIter 1000
| 56> end
| 57>
| 58> * xyz 0 1
| 59>   C                    : -3.541612            8.218738             -6.097579
| 60>   O                    : -2.500026            7.841059             -5.165467
| 61>   H                    : -2.808424            8.091062             -4.276652
| 62>   H                    : -4.504519            8.175344             -5.636522
| 63>   H                    : -3.270904            9.255707             -6.480989
| 64>   H                    : -3.586497            7.616042             -6.948879
| 65>   C                      -1.761067            5.722091             -2.002277
| 66>   O                      -1.949604            4.450320             -2.319201
| 67>   H                      -2.743328            3.992807             -2.075747
| 68>   H                      -2.692750            6.144057             -1.678658
| 69>   H                      -0.954174            5.871586             -1.341224
| 70>   H                      -1.561292            6.309232             -2.952997
| 71> *
| 72>
| 73>                          ****END OF INPUT****
 Total Charge           Charge          ....    0
 Multiplicity           Mult            ....    1
 Number of Electrons    NEL             ....   36
Dispersion correction           -0.001206242
FINAL SINGLE POINT ENERGY      -231.454020197721
Dispersion correction           -0.000249729
FINAL SINGLE POINT ENERGY      -115.730952677611

CARTESIAN COORDINATES (ANGSTROEM)
---------------------------------
  C     -3.541612    8.218738   -6.097579
  O     -2.500026    7.841059   -5.165467
  H     -2.808424    8.091062   -4.276652
  H     -4.504519    8.175344   -5.636522
  H     -3.270904    9.255707   -6.480989
  H     -3.586497    7.616042   -6.948879
  C     -1.761067    5.722091   -2.002277
  O     -1.949604    4.450320   -2.319201
  H     -2.743328    3.992807   -2.075747
  H     -2.692750    6.144057   -1.678658
  H     -0.954174    5.871586   -1.341224
  H     -1.561292    6.309232   -2.952997

 Multiplicity           Mult            ....    1
 Number of Electrons    NEL             ....   18
 Basis Dimension        Dim             ....  172

ORBITAL ENERGIES
----------------

  NO   OCC          E(Eh)            E(eV)
   0   2.0000     -19.220802      -523.0246
   1   2.0000     -10.303231      -280.3652
   2   2.0000      -1.159327       -31.5469
   3   2.0000      -0.801900       -21.8208
   4   2.0000      -0.630970       -17.1696
   5   2.0000      -0.561952       -15.2915
   6   2.0000      -0.536029       -14.5861
   7   2.0000      -0.407488       -11.0883
   8   2.0000      -0.365390        -9.9428
   9   0.0000       0.088077         2.3967
  10   0.0000       0.117505         3.1975
  11   0.0000       0.147157         4.0043
  12   0.0000       0.187327         5.0974
  13   0.0000       0.191952         5.2233

MULLIKEN ATOMIC CHARGES
-----------------------
   0 C :    0.000496
   1 O :    0.000792
   2 H :   -0.002285
   3 H :   -0.000052
   4 H :   -0.000021
   5 H :   -0.000013
   6 C :   -0.120576
   7 O :   -0.482626
   8 H :    0.327420
   9 H :    0.089486
  10 H :    0.099329
  11 H :    0.088048
Sum of atomic charges:   -0.0000000

LOEWDIN ATOMIC CHARGES
----------------------
   0 C :   -0.000123
   1 O :   -0.002513
   2 H :   -0.003719
   3 H :   -0.000005
   4 H :   -0.000004
   5 H :   -0.000005
   6 C :   -0.444022
   7 O :   -0.005733
   8 H :    0.166101
   9 H :    0.092218
  10 H :    0.088729
  11 H :    0.109077

  Mayer bond orders larger than 0.1
B(  6-C ,  7-O ) :   1.0184 B(  6-C ,  9-H ) :   0.9965 B(  6-C , 10-H ) :   0.9717
B(  6-C , 11-H ) :   0.9739 B(  7-O ,  8-H ) :   0.8860

Dispersion correction           -0.000226593
FINAL SINGLE POINT ENERGY      -115.723056287631

DIPOLE MOMENT
-------------
                                X             Y             Z
Electronic contribution:     -0.12441      -1.77039      -0.25792
Nuclear contribution   :     -0.39177       1.90583       0.55911
                        -----------------------------------------
Total Dipole Moment    :     -0.51618       0.13544       0.30119
                        -----------------------------------------
Magnitude (a.u.)       :      0.61279
Magnitude (Debye)      :      1.55758

Rotational constants in cm-1:     4.539101     0.908095     0.884886
Rotational constants in MHz : 136078.831873 27223.993243 26528.227337

                             ****ORCA TERMINATED NORMALLY****
TOTAL RUN TIME: 0 days 0 hours 0 minutes 55 seconds 86 msec
