                         Program Version 4.1.2  - RELEASE  -
|  1> #Run DFT-D3 single point of the dimer
|  2> ! wB97X-D3 def2-TZVP TIGHTSCF CHELPG PMODEL PAL8
|  3>
|  4> %base "4-6_DFT_AB"
|  5>
|  6> %scf
|  7> MaxIter 1000
|  8> end
|  9>
| 10> * xyz 0 1
| 11>   C                      9.510002             3.753170             -5.325528
| 12>   O                      9.876401             4.225670             -4.068210
| 13>   H                      10.364098            5.018810             -4.265636
| 14>   H                      8.978419             2.857762             -5.197583
| 15>   H                      8.779346             4.325251             -5.874902
| 16>   H                      10.363160            3.582555             -6.031037
| 17>   C                      10.740478            4.157672             -9.106807
| 18>   O                      10.213811            3.667993             -10.312041
| 19>   H                      10.463433            4.278892             -10.993310
| 20>   H                      10.349970            5.182423             -8.820114
| 21>   H                      10.466377            3.546653             -8.257583
| 22>   H                      11.892256            4.233591             -9.176246
| 23> *
| 24>
| 25> #Run DFT-D3 single point of the molecule with dimer basis set
| 26> $new_job
| 27> %base "4-6_DFT_A"
| 28> ! wB97X-D3 def2-TZVP TIGHTSCF CHELPG PMODEL
| 29>
| 30> %scf
| 31> MaxIter 1000
| 32> end
| 33>
| 34> * xyz 0 1
| 35>   C                      9.510002             3.753170             -5.325528
| 36>   O                      9.876401             4.225670             -4.068210
| 37>   H                      10.364098            5.018810             -4.265636
| 38>   H                      8.978419             2.857762             -5.197583
| 39>   H                      8.779346             4.325251             -5.874902
| 40>   H                      10.363160            3.582555             -6.031037
| 41>   C                    : 10.740478            4.157672             -9.106807
| 42>   O                    : 10.213811            3.667993             -10.312041
| 43>   H                    : 10.463433            4.278892             -10.993310
| 44>   H                    : 10.349970            5.182423             -8.820114
| 45>   H                    : 10.466377            3.546653             -8.257583
| 46>   H                    : 11.892256            4.233591             -9.176246
| 47> *
| 48>
| 49> #Run DFT-D3 single point of the particle with dimer basis set
| 50> $new_job
| 51> %base "4-6_DFT_B"
| 52> ! wB97X-D3 def2-TZVP TIGHTSCF CHELPG PMODEL
| 53>
| 54> %scf
| 55> MaxIter 1000
| 56> end
| 57>
| 58> * xyz 0 1
| 59>   C                    : 9.510002             3.753170             -5.325528
| 60>   O                    : 9.876401             4.225670             -4.068210
| 61>   H                    : 10.364098            5.018810             -4.265636
| 62>   H                    : 8.978419             2.857762             -5.197583
| 63>   H                    : 8.779346             4.325251             -5.874902
| 64>   H                    : 10.363160            3.582555             -6.031037
| 65>   C                      10.740478            4.157672             -9.106807
| 66>   O                      10.213811            3.667993             -10.312041
| 67>   H                      10.463433            4.278892             -10.993310
| 68>   H                      10.349970            5.182423             -8.820114
| 69>   H                      10.466377            3.546653             -8.257583
| 70>   H                      11.892256            4.233591             -9.176246
| 71> *
| 72>
| 73>                          ****END OF INPUT****
 Total Charge           Charge          ....    0
 Multiplicity           Mult            ....    1
 Number of Electrons    NEL             ....   36
Dispersion correction           -0.001356147
FINAL SINGLE POINT ENERGY      -231.465766338925
Dispersion correction           -0.000233802
FINAL SINGLE POINT ENERGY      -115.732198237476

CARTESIAN COORDINATES (ANGSTROEM)
---------------------------------
  C      9.510002    3.753170   -5.325528
  O      9.876401    4.225670   -4.068210
  H     10.364098    5.018810   -4.265636
  H      8.978419    2.857762   -5.197583
  H      8.779346    4.325251   -5.874902
  H     10.363160    3.582555   -6.031037
  C     10.740478    4.157672   -9.106807
  O     10.213811    3.667993  -10.312041
  H     10.463433    4.278892  -10.993310
  H     10.349970    5.182423   -8.820114
  H     10.466377    3.546653   -8.257583
  H     11.892256    4.233591   -9.176246

 Multiplicity           Mult            ....    1
 Number of Electrons    NEL             ....   18
 Basis Dimension        Dim             ....  172

ORBITAL ENERGIES
----------------

  NO   OCC          E(Eh)            E(eV)
   0   2.0000     -19.232892      -523.3536
   1   2.0000     -10.322232      -280.8822
   2   2.0000      -1.144415       -31.1411
   3   2.0000      -0.791057       -21.5257
   4   2.0000      -0.611957       -16.6522
   5   2.0000      -0.539756       -14.6875
   6   2.0000      -0.528574       -14.3832
   7   2.0000      -0.433701       -11.8016
   8   2.0000      -0.372726       -10.1424
   9   0.0000       0.084123         2.2891
  10   0.0000       0.116540         3.1712
  11   0.0000       0.154414         4.2018
  12   0.0000       0.163663         4.4535
  13   0.0000       0.188991         5.1427

MULLIKEN ATOMIC CHARGES
-----------------------
   0 C :   -0.000428
   1 O :    0.000007
   2 H :    0.000003
   3 H :   -0.000109
   4 H :   -0.000162
   5 H :   -0.000194
   6 C :   -0.172780
   7 O :   -0.459265
   8 H :    0.315656
   9 H :    0.093162
  10 H :    0.129142
  11 H :    0.094968
Sum of atomic charges:   -0.0000000

LOEWDIN ATOMIC CHARGES
----------------------
   0 C :   -0.003615
   1 O :   -0.000017
   2 H :   -0.000003
   3 H :   -0.000059
   4 H :   -0.000463
   5 H :   -0.005099
   6 C :   -0.402875
   7 O :   -0.061345
   8 H :    0.164333
   9 H :    0.098505
  10 H :    0.107690
  11 H :    0.102950

  Mayer bond orders larger than 0.1
B(  6-C ,  7-O ) :   1.0138 B(  6-C ,  9-H ) :   0.9715 B(  6-C , 10-H ) :   0.9711
B(  6-C , 11-H ) :   0.9743 B(  7-O ,  8-H ) :   0.9004

Dispersion correction           -0.000250579
FINAL SINGLE POINT ENERGY      -115.733407827928

DIPOLE MOMENT
-------------
                                X             Y             Z
Electronic contribution:     -0.82383      -0.85727      -1.54537
Nuclear contribution   :      1.15519       1.41463       1.57728
                        -----------------------------------------
Total Dipole Moment    :      0.33136       0.55736       0.03190
                        -----------------------------------------
Magnitude (a.u.)       :      0.64920
Magnitude (Debye)      :      1.65015

Rotational constants in cm-1:     4.175210     0.829293     0.804228
Rotational constants in MHz : 125169.642995 24861.573495 24110.155937

                             ****ORCA TERMINATED NORMALLY****
TOTAL RUN TIME: 0 days 0 hours 1 minutes 36 seconds 958 msec
