                         Program Version 4.1.2  - RELEASE  -
|  1> #Run DFT-D3 single point of the dimer
|  2> ! wB97X-D3 def2-TZVP TIGHTSCF  CHELPG PAL8
|  3>
|  4> %base "98_charges"
|  5>
|  6> %scf
|  7> MaxIter 1000
|  8> end
|  9> %output
| 10>   Print[ P_Mayer ] 1
| 11>   Print[ P_NatPop ] 1
| 12>   Print[ P_Hirshfeld ] 1
| 13>   Print[ P_Mulliken ] 1
| 14>   Print [ P_Loewdin ] 1
| 15> end
| 16>
| 17> * xyz 0 1
| 18>   C                      -11.284682           -6.517864            10.674109
| 19>   O                      -10.787645           -6.178029            9.384619
| 20>   H                      -9.912990            -6.622411            9.379816
| 21>   H                      -10.889296           -5.775538            11.418939
| 22>   H                      -12.425488           -6.396045            10.754429
| 23>   H                      -11.028370           -7.533740            10.897922
| 24> *
| 25>
| 26>                          ****END OF INPUT****

CARTESIAN COORDINATES (ANGSTROEM)
---------------------------------
  C    -11.284682   -6.517864   10.674109
  O    -10.787645   -6.178029    9.384619
  H     -9.912990   -6.622411    9.379816
  H    -10.889296   -5.775538   11.418939
  H    -12.425488   -6.396045   10.754429
  H    -11.028370   -7.533740   10.897922

 Total Charge           Charge          ....    0
 Multiplicity           Mult            ....    1
 Number of Electrons    NEL             ....   18
 Basis Dimension        Dim             ....   86

ORBITAL ENERGIES
----------------

  NO   OCC          E(Eh)            E(eV)
   0   2.0000     -19.233191      -523.3617
   1   2.0000     -10.320210      -280.8272
   2   2.0000      -1.133865       -30.8540
   3   2.0000      -0.785828       -21.3835
   4   2.0000      -0.605474       -16.4758
   5   2.0000      -0.543492       -14.7892
   6   2.0000      -0.521593       -14.1933
   7   2.0000      -0.435649       -11.8546
   8   2.0000      -0.372189       -10.1278
   9   0.0000       0.111469         3.0332
  10   0.0000       0.152641         4.1536
  11   0.0000       0.197898         5.3851
  12   0.0000       0.198601         5.4042
  13   0.0000       0.223200         6.0736

MULLIKEN ATOMIC CHARGES
-----------------------
   0 C :   -0.176527
   1 O :   -0.464461
   2 H :    0.315588
   3 H :    0.102743
   4 H :    0.114879
   5 H :    0.107778
Sum of atomic charges:    0.0000000

LOEWDIN ATOMIC CHARGES
----------------------
   0 C :   -0.393062
   1 O :   -0.095799
   2 H :    0.183794
   3 H :    0.099954
   4 H :    0.115617
   5 H :    0.089496

  Mayer bond orders larger than 0.1
B(  0-C ,  1-O ) :   1.0026 B(  0-C ,  3-H ) :   0.9746 B(  0-C ,  4-H ) :   0.9711
B(  0-C ,  5-H ) :   0.9811 B(  1-O ,  2-H ) :   0.8990

Dispersion correction           -0.000235559
FINAL SINGLE POINT ENERGY      -115.730900852094

DIPOLE MOMENT
-------------
                                X             Y             Z
Electronic contribution:      0.54670       0.42299      -1.71362
Nuclear contribution   :     -0.20424      -0.84432       2.20558
                        -----------------------------------------
Total Dipole Moment    :      0.34246      -0.42133       0.49196
                        -----------------------------------------
Magnitude (a.u.)       :      0.73268
Magnitude (Debye)      :      1.86233

Rotational constants in cm-1:     4.073295     0.825787     0.794785
Rotational constants in MHz : 122114.325350 24756.476432 23827.040079

                             ****ORCA TERMINATED NORMALLY****
TOTAL RUN TIME: 0 days 0 hours 0 minutes 21 seconds 31 msec
