                         Program Version 4.1.2  - RELEASE  -
|  1> #Run DFT-D3 single point of the dimer
|  2> ! wB97X-D3 def2-TZVP TIGHTSCF CHELPG PMODEL PAL8
|  3>
|  4> %base "17-1_DFT_AB"
|  5>
|  6> %scf
|  7> MaxIter 1000
|  8> end
|  9>
| 10> * xyz 0 1
| 11>   C                      4.197069             -5.731458            9.963804
| 12>   O                      3.094894             -5.843376            9.191124
| 13>   H                      2.638128             -4.976491            9.044959
| 14>   H                      4.671865             -6.648630            10.240441
| 15>   H                      4.946971             -5.153106            9.403973
| 16>   H                      3.975430             -5.220114            10.891315
| 17>   C                      6.769801             -2.772796            10.995444
| 18>   O                      6.182778             -1.999344            9.977291
| 19>   H                      6.396164             -1.025833            10.069774
| 20>   H                      6.127645             -2.585203            11.827728
| 21>   H                      6.563956             -3.867153            10.783993
| 22>   H                      7.803646             -2.444573            11.191624
| 23> *
| 24>
| 25> #Run DFT-D3 single point of the molecule with dimer basis set
| 26> $new_job
| 27> %base "17-1_DFT_A"
| 28> ! wB97X-D3 def2-TZVP TIGHTSCF CHELPG PMODEL
| 29>
| 30> %scf
| 31> MaxIter 1000
| 32> end
| 33>
| 34> * xyz 0 1
| 35>   C                      4.197069             -5.731458            9.963804
| 36>   O                      3.094894             -5.843376            9.191124
| 37>   H                      2.638128             -4.976491            9.044959
| 38>   H                      4.671865             -6.648630            10.240441
| 39>   H                      4.946971             -5.153106            9.403973
| 40>   H                      3.975430             -5.220114            10.891315
| 41>   C                    : 6.769801             -2.772796            10.995444
| 42>   O                    : 6.182778             -1.999344            9.977291
| 43>   H                    : 6.396164             -1.025833            10.069774
| 44>   H                    : 6.127645             -2.585203            11.827728
| 45>   H                    : 6.563956             -3.867153            10.783993
| 46>   H                    : 7.803646             -2.444573            11.191624
| 47> *
| 48>
| 49> #Run DFT-D3 single point of the particle with dimer basis set
| 50> $new_job
| 51> %base "17-1_DFT_B"
| 52> ! wB97X-D3 def2-TZVP TIGHTSCF CHELPG PMODEL
| 53>
| 54> %scf
| 55> MaxIter 1000
| 56> end
| 57>
| 58> * xyz 0 1
| 59>   C                    : 4.197069             -5.731458            9.963804
| 60>   O                    : 3.094894             -5.843376            9.191124
| 61>   H                    : 2.638128             -4.976491            9.044959
| 62>   H                    : 4.671865             -6.648630            10.240441
| 63>   H                    : 4.946971             -5.153106            9.403973
| 64>   H                    : 3.975430             -5.220114            10.891315
| 65>   C                      6.769801             -2.772796            10.995444
| 66>   O                      6.182778             -1.999344            9.977291
| 67>   H                      6.396164             -1.025833            10.069774
| 68>   H                      6.127645             -2.585203            11.827728
| 69>   H                      6.563956             -3.867153            10.783993
| 70>   H                      7.803646             -2.444573            11.191624
| 71> *
| 72>
| 73>                          ****END OF INPUT****
 Total Charge           Charge          ....    0
 Multiplicity           Mult            ....    1
 Number of Electrons    NEL             ....   36
Dispersion correction           -0.001406803
FINAL SINGLE POINT ENERGY      -231.458076068553
Dispersion correction           -0.000216573
FINAL SINGLE POINT ENERGY      -115.730140379594

CARTESIAN COORDINATES (ANGSTROEM)
---------------------------------
  C      4.197069   -5.731458    9.963804
  O      3.094894   -5.843376    9.191124
  H      2.638128   -4.976491    9.044959
  H      4.671865   -6.648630   10.240441
  H      4.946971   -5.153106    9.403973
  H      3.975430   -5.220114   10.891315
  C      6.769801   -2.772796   10.995444
  O      6.182778   -1.999344    9.977291
  H      6.396164   -1.025833   10.069774
  H      6.127645   -2.585203   11.827728
  H      6.563956   -3.867153   10.783993
  H      7.803646   -2.444573   11.191624

 Multiplicity           Mult            ....    1
 Number of Electrons    NEL             ....   18
 Basis Dimension        Dim             ....  172

ORBITAL ENERGIES
----------------

  NO   OCC          E(Eh)            E(eV)
   0   2.0000     -19.225631      -523.1560
   1   2.0000     -10.313863      -280.6545
   2   2.0000      -1.126533       -30.6545
   3   2.0000      -0.789259       -21.4768
   4   2.0000      -0.603522       -16.4227
   5   2.0000      -0.547930       -14.9099
   6   2.0000      -0.523952       -14.2575
   7   2.0000      -0.424915       -11.5625
   8   2.0000      -0.363617        -9.8945
   9   0.0000       0.088950         2.4205
  10   0.0000       0.114060         3.1037
  11   0.0000       0.150945         4.1074
  12   0.0000       0.175220         4.7680
  13   0.0000       0.194618         5.2958

MULLIKEN ATOMIC CHARGES
-----------------------
   0 C :   -0.000863
   1 O :    0.000045
   2 H :   -0.000032
   3 H :    0.000089
   4 H :    0.001318
   5 H :   -0.000449
   6 C :   -0.155088
   7 O :   -0.492874
   8 H :    0.316534
   9 H :    0.106606
  10 H :    0.118017
  11 H :    0.106696
Sum of atomic charges:   -0.0000000

LOEWDIN ATOMIC CHARGES
----------------------
   0 C :   -0.003457
   1 O :   -0.000022
   2 H :   -0.000020
   3 H :   -0.000102
   4 H :   -0.001988
   5 H :   -0.000488
   6 C :   -0.392475
   7 O :   -0.100589
   8 H :    0.189307
   9 H :    0.092047
  10 H :    0.120439
  11 H :    0.097348

  Mayer bond orders larger than 0.1
B(  6-C ,  7-O ) :   0.9834 B(  6-C ,  9-H ) :   0.9900 B(  6-C , 10-H ) :   0.9683
B(  6-C , 11-H ) :   0.9745 B(  7-O ,  8-H ) :   0.8890

Dispersion correction           -0.000227963
FINAL SINGLE POINT ENERGY      -115.726598615186

DIPOLE MOMENT
-------------
                                X             Y             Z
Electronic contribution:     -0.59422       0.79894      -1.32815
Nuclear contribution   :      0.94168      -0.48584       1.81119
                        -----------------------------------------
Total Dipole Moment    :      0.34745       0.31309       0.48304
                        -----------------------------------------
Magnitude (a.u.)       :      0.67236
Magnitude (Debye)      :      1.70901

Rotational constants in cm-1:     4.119816     0.850123     0.805142
Rotational constants in MHz : 123508.975051 25486.050426 24137.564032

                             ****ORCA TERMINATED NORMALLY****
TOTAL RUN TIME: 0 days 0 hours 1 minutes 3 seconds 921 msec
