                         Program Version 4.1.2  - RELEASE  -
|  1> #Run DFT-D3 single point of the dimer
|  2> ! wB97X-D3 def2-TZVP TIGHTSCF CHELPG PMODEL PAL8
|  3>
|  4> %base "16-70_DFT_AB"
|  5>
|  6> %scf
|  7> MaxIter 1000
|  8> end
|  9>
| 10> * xyz 0 1
| 11>   C                      1.882657             -5.473259            -4.311445
| 12>   O                      1.200089             -6.616802            -4.829966
| 13>   H                      0.588911             -6.281126            -5.540718
| 14>   H                      2.877696             -5.712606            -3.843402
| 15>   H                      2.170245             -4.752331            -5.142988
| 16>   H                      1.250145             -4.869591            -3.657311
| 17>   C                      5.695162             -8.591498            -4.377994
| 18>   O                      6.655269             -9.376518            -5.019318
| 19>   H                      6.129340             -9.955348            -5.594773
| 20>   H                      5.650426             -7.587364            -4.835923
| 21>   H                      4.722369             -9.035779            -4.375964
| 22>   H                      6.001273             -8.376452            -3.316426
| 23> *
| 24>
| 25> #Run DFT-D3 single point of the molecule with dimer basis set
| 26> $new_job
| 27> %base "16-70_DFT_A"
| 28> ! wB97X-D3 def2-TZVP TIGHTSCF CHELPG PMODEL
| 29>
| 30> %scf
| 31> MaxIter 1000
| 32> end
| 33>
| 34> * xyz 0 1
| 35>   C                      1.882657             -5.473259            -4.311445
| 36>   O                      1.200089             -6.616802            -4.829966
| 37>   H                      0.588911             -6.281126            -5.540718
| 38>   H                      2.877696             -5.712606            -3.843402
| 39>   H                      2.170245             -4.752331            -5.142988
| 40>   H                      1.250145             -4.869591            -3.657311
| 41>   C                    : 5.695162             -8.591498            -4.377994
| 42>   O                    : 6.655269             -9.376518            -5.019318
| 43>   H                    : 6.129340             -9.955348            -5.594773
| 44>   H                    : 5.650426             -7.587364            -4.835923
| 45>   H                    : 4.722369             -9.035779            -4.375964
| 46>   H                    : 6.001273             -8.376452            -3.316426
| 47> *
| 48>
| 49> #Run DFT-D3 single point of the particle with dimer basis set
| 50> $new_job
| 51> %base "16-70_DFT_B"
| 52> ! wB97X-D3 def2-TZVP TIGHTSCF CHELPG PMODEL
| 53>
| 54> %scf
| 55> MaxIter 1000
| 56> end
| 57>
| 58> * xyz 0 1
| 59>   C                    : 1.882657             -5.473259            -4.311445
| 60>   O                    : 1.200089             -6.616802            -4.829966
| 61>   H                    : 0.588911             -6.281126            -5.540718
| 62>   H                    : 2.877696             -5.712606            -3.843402
| 63>   H                    : 2.170245             -4.752331            -5.142988
| 64>   H                    : 1.250145             -4.869591            -3.657311
| 65>   C                      5.695162             -8.591498            -4.377994
| 66>   O                      6.655269             -9.376518            -5.019318
| 67>   H                      6.129340             -9.955348            -5.594773
| 68>   H                      5.650426             -7.587364            -4.835923
| 69>   H                      4.722369             -9.035779            -4.375964
| 70>   H                      6.001273             -8.376452            -3.316426
| 71> *
| 72>
| 73>                          ****END OF INPUT****
 Total Charge           Charge          ....    0
 Multiplicity           Mult            ....    1
 Number of Electrons    NEL             ....   36
Dispersion correction           -0.000871557
FINAL SINGLE POINT ENERGY      -231.465504136617
Dispersion correction           -0.000260539
FINAL SINGLE POINT ENERGY      -115.731192374524

CARTESIAN COORDINATES (ANGSTROEM)
---------------------------------
  C      1.882657   -5.473259   -4.311445
  O      1.200089   -6.616802   -4.829966
  H      0.588911   -6.281126   -5.540718
  H      2.877696   -5.712606   -3.843402
  H      2.170245   -4.752331   -5.142988
  H      1.250145   -4.869591   -3.657311
  C      5.695162   -8.591498   -4.377994
  O      6.655269   -9.376518   -5.019318
  H      6.129340   -9.955348   -5.594773
  H      5.650426   -7.587364   -4.835923
  H      4.722369   -9.035779   -4.375964
  H      6.001273   -8.376452   -3.316426

 Multiplicity           Mult            ....    1
 Number of Electrons    NEL             ....   18
 Basis Dimension        Dim             ....  172

ORBITAL ENERGIES
----------------

  NO   OCC          E(Eh)            E(eV)
   0   2.0000     -19.232726      -523.3491
   1   2.0000     -10.312569      -280.6193
   2   2.0000      -1.143356       -31.1123
   3   2.0000      -0.790242       -21.5036
   4   2.0000      -0.616328       -16.7711
   5   2.0000      -0.539091       -14.6694
   6   2.0000      -0.527908       -14.3651
   7   2.0000      -0.440111       -11.9760
   8   2.0000      -0.369766       -10.0618
   9   0.0000       0.081502         2.2178
  10   0.0000       0.112518         3.0618
  11   0.0000       0.141576         3.8525
  12   0.0000       0.166021         4.5177
  13   0.0000       0.184437         5.0188

MULLIKEN ATOMIC CHARGES
-----------------------
   0 C :   -0.000129
   1 O :    0.000022
   2 H :    0.000003
   3 H :   -0.000078
   4 H :    0.000002
   5 H :   -0.000013
   6 C :   -0.174296
   7 O :   -0.457309
   8 H :    0.316069
   9 H :    0.099572
  10 H :    0.108531
  11 H :    0.107629
Sum of atomic charges:   -0.0000000

LOEWDIN ATOMIC CHARGES
----------------------
   0 C :   -0.000207
   1 O :   -0.000015
   2 H :   -0.000001
   3 H :   -0.000274
   4 H :   -0.000007
   5 H :   -0.000003
   6 C :   -0.407535
   7 O :   -0.068048
   8 H :    0.180062
   9 H :    0.096913
  10 H :    0.090182
  11 H :    0.108934

  Mayer bond orders larger than 0.1
B(  6-C ,  7-O ) :   1.0146 B(  6-C ,  9-H ) :   0.9759 B(  6-C , 10-H ) :   0.9825
B(  6-C , 11-H ) :   0.9747 B(  7-O ,  8-H ) :   0.9004

Dispersion correction           -0.000234822
FINAL SINGLE POINT ENERGY      -115.733443097583

DIPOLE MOMENT
-------------
                                X             Y             Z
Electronic contribution:      1.31643      -1.06906      -0.81647
Nuclear contribution   :     -2.01916       0.98240       0.69605
                        -----------------------------------------
Total Dipole Moment    :     -0.70273      -0.08666      -0.12042
                        -----------------------------------------
Magnitude (a.u.)       :      0.71822
Magnitude (Debye)      :      1.82557

Rotational constants in cm-1:     4.230887     0.852416     0.815585
Rotational constants in MHz : 126838.786694 25554.782581 24450.633940

                             ****ORCA TERMINATED NORMALLY****
TOTAL RUN TIME: 0 days 0 hours 0 minutes 57 seconds 389 msec
