                         Program Version 4.1.2  - RELEASE  -
|  1> #Run DFT-D3 single point of the dimer
|  2> ! wB97X-D3 def2-TZVP TIGHTSCF CHELPG PMODEL PAL8
|  3>
|  4> %base "5-68_DFT_AB"
|  5>
|  6> %scf
|  7> MaxIter 1000
|  8> end
|  9>
| 10> * xyz 0 1
| 11>   C                      0.496941             1.392049             5.026981
| 12>   O                      -0.494197            0.337308             5.082726
| 13>   H                      -0.689183            0.394878             4.127763
| 14>   H                      1.282604             1.248695             5.776744
| 15>   H                      1.032644             1.416140             4.066925
| 16>   H                      -0.013328            2.353019             5.225455
| 17>   C                      4.067300             -0.064040            6.166807
| 18>   O                      3.400789             -1.333561            6.188324
| 19>   H                      2.585343             -1.204420            6.657145
| 20>   H                      5.048777             -0.105712            5.721656
| 21>   H                      3.512115             0.726795             5.619229
| 22>   H                      4.141362             0.411491             7.155482
| 23> *
| 24>
| 25> #Run DFT-D3 single point of the molecule with dimer basis set
| 26> $new_job
| 27> %base "5-68_DFT_A"
| 28> ! wB97X-D3 def2-TZVP TIGHTSCF CHELPG PMODEL
| 29>
| 30> %scf
| 31> MaxIter 1000
| 32> end
| 33>
| 34> * xyz 0 1
| 35>   C                      0.496941             1.392049             5.026981
| 36>   O                      -0.494197            0.337308             5.082726
| 37>   H                      -0.689183            0.394878             4.127763
| 38>   H                      1.282604             1.248695             5.776744
| 39>   H                      1.032644             1.416140             4.066925
| 40>   H                      -0.013328            2.353019             5.225455
| 41>   C                    : 4.067300             -0.064040            6.166807
| 42>   O                    : 3.400789             -1.333561            6.188324
| 43>   H                    : 2.585343             -1.204420            6.657145
| 44>   H                    : 5.048777             -0.105712            5.721656
| 45>   H                    : 3.512115             0.726795             5.619229
| 46>   H                    : 4.141362             0.411491             7.155482
| 47> *
| 48>
| 49> #Run DFT-D3 single point of the particle with dimer basis set
| 50> $new_job
| 51> %base "5-68_DFT_B"
| 52> ! wB97X-D3 def2-TZVP TIGHTSCF CHELPG PMODEL
| 53>
| 54> %scf
| 55> MaxIter 1000
| 56> end
| 57>
| 58> * xyz 0 1
| 59>   C                    : 0.496941             1.392049             5.026981
| 60>   O                    : -0.494197            0.337308             5.082726
| 61>   H                    : -0.689183            0.394878             4.127763
| 62>   H                    : 1.282604             1.248695             5.776744
| 63>   H                    : 1.032644             1.416140             4.066925
| 64>   H                    : -0.013328            2.353019             5.225455
| 65>   C                      4.067300             -0.064040            6.166807
| 66>   O                      3.400789             -1.333561            6.188324
| 67>   H                      2.585343             -1.204420            6.657145
| 68>   H                      5.048777             -0.105712            5.721656
| 69>   H                      3.512115             0.726795             5.619229
| 70>   H                      4.141362             0.411491             7.155482
| 71> *
| 72>
| 73>                          ****END OF INPUT****
 Total Charge           Charge          ....    0
 Multiplicity           Mult            ....    1
 Number of Electrons    NEL             ....   36
Dispersion correction           -0.001601005
FINAL SINGLE POINT ENERGY      -231.464009069642
Dispersion correction           -0.000226452
FINAL SINGLE POINT ENERGY      -115.728873207040

CARTESIAN COORDINATES (ANGSTROEM)
---------------------------------
  C      0.496941    1.392049    5.026981
  O     -0.494197    0.337308    5.082726
  H     -0.689183    0.394878    4.127763
  H      1.282604    1.248695    5.776744
  H      1.032644    1.416140    4.066925
  H     -0.013328    2.353019    5.225455
  C      4.067300   -0.064040    6.166807
  O      3.400789   -1.333561    6.188324
  H      2.585343   -1.204420    6.657145
  H      5.048777   -0.105712    5.721656
  H      3.512115    0.726795    5.619229
  H      4.141362    0.411491    7.155482

 Multiplicity           Mult            ....    1
 Number of Electrons    NEL             ....   18
 Basis Dimension        Dim             ....  172

ORBITAL ENERGIES
----------------

  NO   OCC          E(Eh)            E(eV)
   0   2.0000     -19.233870      -523.3802
   1   2.0000     -10.316193      -280.7179
   2   2.0000      -1.135051       -30.8863
   3   2.0000      -0.798685       -21.7333
   4   2.0000      -0.613771       -16.7015
   5   2.0000      -0.531799       -14.4710
   6   2.0000      -0.526222       -14.3192
   7   2.0000      -0.443811       -12.0767
   8   2.0000      -0.373432       -10.1616
   9   0.0000       0.078820         2.1448
  10   0.0000       0.126124         3.4320
  11   0.0000       0.145527         3.9600
  12   0.0000       0.176811         4.8113
  13   0.0000       0.185665         5.0522

MULLIKEN ATOMIC CHARGES
-----------------------
   0 C :    0.000325
   1 O :    0.000126
   2 H :    0.000028
   3 H :    0.000528
   4 H :   -0.000921
   5 H :    0.000292
   6 C :   -0.186741
   7 O :   -0.467522
   8 H :    0.314322
   9 H :    0.132878
  10 H :    0.100104
  11 H :    0.106581
Sum of atomic charges:   -0.0000000

LOEWDIN ATOMIC CHARGES
----------------------
   0 C :   -0.003985
   1 O :   -0.000089
   2 H :   -0.000006
   3 H :   -0.004641
   4 H :   -0.000535
   5 H :   -0.000021
   6 C :   -0.374675
   7 O :   -0.080062
   8 H :    0.162215
   9 H :    0.106033
  10 H :    0.099100
  11 H :    0.096667

  Mayer bond orders larger than 0.1
B(  6-C ,  7-O ) :   1.0019 B(  6-C ,  9-H ) :   0.9743 B(  6-C , 10-H ) :   0.9700
B(  6-C , 11-H ) :   0.9766 B(  7-O ,  8-H ) :   0.9021

Dispersion correction           -0.000256935
FINAL SINGLE POINT ENERGY      -115.733972368568

DIPOLE MOMENT
-------------
                                X             Y             Z
Electronic contribution:     -0.68262      -1.84487      -0.06614
Nuclear contribution   :      0.43938       2.43851       0.35843
                        -----------------------------------------
Total Dipole Moment    :     -0.24324       0.59364       0.29229
                        -----------------------------------------
Magnitude (a.u.)       :      0.70498
Magnitude (Debye)      :      1.79192

Rotational constants in cm-1:     4.412990     0.806928     0.771939
Rotational constants in MHz : 132298.110296 24191.097636 23142.136774

                             ****ORCA TERMINATED NORMALLY****
TOTAL RUN TIME: 0 days 0 hours 1 minutes 5 seconds 513 msec
