                         Program Version 4.1.2  - RELEASE  -
|  1> #Run DFT-D3 single point of the dimer
|  2> ! wB97X-D3 def2-TZVP TIGHTSCF CHELPG PMODEL PAL8
|  3>
|  4> %base "18-191_DFT_AB"
|  5>
|  6> %scf
|  7> MaxIter 1000
|  8> end
|  9>
| 10> * xyz 0 1
| 11>   C                      -2.315231            -6.857830            0.307560
| 12>   O                      -2.542945            -5.554965            -0.144974
| 13>   H                      -1.707298            -5.106445            -0.070544
| 14>   H                      -1.393169            -7.004785            0.903639
| 15>   H                      -3.215109            -7.202972            0.945529
| 16>   H                      -2.260062            -7.423079            -0.631188
| 17>   C                      -5.848510            -5.431623            0.742106
| 18>   O                      -4.870994            -4.382988            0.904018
| 19>   H                      -4.073636            -4.629381            0.480032
| 20>   H                      -5.482138            -6.449329            1.001130
| 21>   H                      -6.796003            -5.307281            1.301016
| 22>   H                      -6.195283            -5.436380            -0.241029
| 23> *
| 24>
| 25> #Run DFT-D3 single point of the molecule with dimer basis set
| 26> $new_job
| 27> %base "18-191_DFT_A"
| 28> ! wB97X-D3 def2-TZVP TIGHTSCF CHELPG PMODEL
| 29>
| 30> %scf
| 31> MaxIter 1000
| 32> end
| 33>
| 34> * xyz 0 1
| 35>   C                      -2.315231            -6.857830            0.307560
| 36>   O                      -2.542945            -5.554965            -0.144974
| 37>   H                      -1.707298            -5.106445            -0.070544
| 38>   H                      -1.393169            -7.004785            0.903639
| 39>   H                      -3.215109            -7.202972            0.945529
| 40>   H                      -2.260062            -7.423079            -0.631188
| 41>   C                    : -5.848510            -5.431623            0.742106
| 42>   O                    : -4.870994            -4.382988            0.904018
| 43>   H                    : -4.073636            -4.629381            0.480032
| 44>   H                    : -5.482138            -6.449329            1.001130
| 45>   H                    : -6.796003            -5.307281            1.301016
| 46>   H                    : -6.195283            -5.436380            -0.241029
| 47> *
| 48>
| 49> #Run DFT-D3 single point of the particle with dimer basis set
| 50> $new_job
| 51> %base "18-191_DFT_B"
| 52> ! wB97X-D3 def2-TZVP TIGHTSCF CHELPG PMODEL
| 53>
| 54> %scf
| 55> MaxIter 1000
| 56> end
| 57>
| 58> * xyz 0 1
| 59>   C                    : -2.315231            -6.857830            0.307560
| 60>   O                    : -2.542945            -5.554965            -0.144974
| 61>   H                    : -1.707298            -5.106445            -0.070544
| 62>   H                    : -1.393169            -7.004785            0.903639
| 63>   H                    : -3.215109            -7.202972            0.945529
| 64>   H                    : -2.260062            -7.423079            -0.631188
| 65>   C                      -5.848510            -5.431623            0.742106
| 66>   O                      -4.870994            -4.382988            0.904018
| 67>   H                      -4.073636            -4.629381            0.480032
| 68>   H                      -5.482138            -6.449329            1.001130
| 69>   H                      -6.796003            -5.307281            1.301016
| 70>   H                      -6.195283            -5.436380            -0.241029
| 71> *
| 72>
| 73>                          ****END OF INPUT****
 Total Charge           Charge          ....    0
 Multiplicity           Mult            ....    1
 Number of Electrons    NEL             ....   36
Dispersion correction           -0.002063086
FINAL SINGLE POINT ENERGY      -231.468442957076
Dispersion correction           -0.000234103
FINAL SINGLE POINT ENERGY      -115.730478299075

CARTESIAN COORDINATES (ANGSTROEM)
---------------------------------
  C     -2.315231   -6.857830    0.307560
  O     -2.542945   -5.554965   -0.144974
  H     -1.707298   -5.106445   -0.070544
  H     -1.393169   -7.004785    0.903639
  H     -3.215109   -7.202972    0.945529
  H     -2.260062   -7.423079   -0.631188
  C     -5.848510   -5.431623    0.742106
  O     -4.870994   -4.382988    0.904018
  H     -4.073636   -4.629381    0.480032
  H     -5.482138   -6.449329    1.001130
  H     -6.796003   -5.307281    1.301016
  H     -6.195283   -5.436380   -0.241029

 Multiplicity           Mult            ....    1
 Number of Electrons    NEL             ....   18
 Basis Dimension        Dim             ....  172

ORBITAL ENERGIES
----------------

  NO   OCC          E(Eh)            E(eV)
   0   2.0000     -19.230115      -523.2780
   1   2.0000     -10.314120      -280.6615
   2   2.0000      -1.132458       -30.8158
   3   2.0000      -0.803895       -21.8751
   4   2.0000      -0.609569       -16.5872
   5   2.0000      -0.542405       -14.7596
   6   2.0000      -0.526520       -14.3273
   7   2.0000      -0.431285       -11.7359
   8   2.0000      -0.377608       -10.2752
   9   0.0000       0.072374         1.9694
  10   0.0000       0.138134         3.7588
  11   0.0000       0.143610         3.9078
  12   0.0000       0.173710         4.7269
  13   0.0000       0.189620         5.1598

MULLIKEN ATOMIC CHARGES
-----------------------
   0 C :   -0.002398
   1 O :   -0.005508
   2 H :   -0.000500
   3 H :    0.000190
   4 H :    0.000977
   5 H :   -0.000057
   6 C :   -0.175378
   7 O :   -0.473847
   8 H :    0.315514
   9 H :    0.100524
  10 H :    0.123598
  11 H :    0.116886
Sum of atomic charges:   -0.0000000

LOEWDIN ATOMIC CHARGES
----------------------
   0 C :   -0.006259
   1 O :   -0.022031
   2 H :   -0.001438
   3 H :   -0.000056
   4 H :   -0.003733
   5 H :   -0.000102
   6 C :   -0.359908
   7 O :   -0.068983
   8 H :    0.161122
   9 H :    0.101493
  10 H :    0.113464
  11 H :    0.086430

  Mayer bond orders larger than 0.1
B(  6-C ,  7-O ) :   0.9875 B(  6-C ,  9-H ) :   0.9735 B(  6-C , 10-H ) :   0.9721
B(  6-C , 11-H ) :   0.9833 B(  7-O ,  8-H ) :   0.9076

Dispersion correction           -0.000263189
FINAL SINGLE POINT ENERGY      -115.730270668452

DIPOLE MOMENT
-------------
                                X             Y             Z
Electronic contribution:      1.20647       1.44420       0.29541
Nuclear contribution   :     -1.13018      -2.03573      -0.65241
                        -----------------------------------------
Total Dipole Moment    :      0.07629      -0.59153      -0.35699
                        -----------------------------------------
Magnitude (a.u.)       :      0.69510
Magnitude (Debye)      :      1.76681

Rotational constants in cm-1:     4.555137     0.793911     0.767268
Rotational constants in MHz : 136559.575428 23800.838745 23002.114589

                             ****ORCA TERMINATED NORMALLY****
TOTAL RUN TIME: 0 days 0 hours 1 minutes 4 seconds 738 msec
