                         Program Version 4.1.2  - RELEASE  -
|  1> #Run DFT-D3 single point of the dimer
|  2> ! wB97X-D3 def2-TZVP TIGHTSCF CHELPG PMODEL PAL8
|  3>
|  4> %base "16-177_DFT_AB"
|  5>
|  6> %scf
|  7> MaxIter 1000
|  8> end
|  9>
| 10> * xyz 0 1
| 11>   C                      -5.616573            1.488614             -10.703043
| 12>   O                      -5.556274            0.457298             -9.763606
| 13>   H                      -6.374246            0.536284             -9.227588
| 14>   H                      -5.787094            2.431074             -10.183057
| 15>   H                      -4.744052            1.605157             -11.282023
| 16>   H                      -6.466317            1.427160             -11.365703
| 17>   C                      -3.988437            -2.398342            -8.977127
| 18>   O                      -3.513493            -1.387565            -9.908743
| 19>   H                      -4.139918            -0.740278            -9.912179
| 20>   H                      -5.021541            -2.334140            -8.773702
| 21>   H                      -4.002616            -3.390471            -9.425857
| 22>   H                      -3.397982            -2.449328            -8.002454
| 23> *
| 24>
| 25> #Run DFT-D3 single point of the molecule with dimer basis set
| 26> $new_job
| 27> %base "16-177_DFT_A"
| 28> ! wB97X-D3 def2-TZVP TIGHTSCF CHELPG PMODEL
| 29>
| 30> %scf
| 31> MaxIter 1000
| 32> end
| 33>
| 34> * xyz 0 1
| 35>   C                      -5.616573            1.488614             -10.703043
| 36>   O                      -5.556274            0.457298             -9.763606
| 37>   H                      -6.374246            0.536284             -9.227588
| 38>   H                      -5.787094            2.431074             -10.183057
| 39>   H                      -4.744052            1.605157             -11.282023
| 40>   H                      -6.466317            1.427160             -11.365703
| 41>   C                    : -3.988437            -2.398342            -8.977127
| 42>   O                    : -3.513493            -1.387565            -9.908743
| 43>   H                    : -4.139918            -0.740278            -9.912179
| 44>   H                    : -5.021541            -2.334140            -8.773702
| 45>   H                    : -4.002616            -3.390471            -9.425857
| 46>   H                    : -3.397982            -2.449328            -8.002454
| 47> *
| 48>
| 49> #Run DFT-D3 single point of the particle with dimer basis set
| 50> $new_job
| 51> %base "16-177_DFT_B"
| 52> ! wB97X-D3 def2-TZVP TIGHTSCF CHELPG PMODEL
| 53>
| 54> %scf
| 55> MaxIter 1000
| 56> end
| 57>
| 58> * xyz 0 1
| 59>   C                    : -5.616573            1.488614             -10.703043
| 60>   O                    : -5.556274            0.457298             -9.763606
| 61>   H                    : -6.374246            0.536284             -9.227588
| 62>   H                    : -5.787094            2.431074             -10.183057
| 63>   H                    : -4.744052            1.605157             -11.282023
| 64>   H                    : -6.466317            1.427160             -11.365703
| 65>   C                      -3.988437            -2.398342            -8.977127
| 66>   O                      -3.513493            -1.387565            -9.908743
| 67>   H                      -4.139918            -0.740278            -9.912179
| 68>   H                      -5.021541            -2.334140            -8.773702
| 69>   H                      -4.002616            -3.390471            -9.425857
| 70>   H                      -3.397982            -2.449328            -8.002454
| 71> *
| 72>
| 73>                          ****END OF INPUT****
 Total Charge           Charge          ....    0
 Multiplicity           Mult            ....    1
 Number of Electrons    NEL             ....   36
Dispersion correction           -0.001758891
FINAL SINGLE POINT ENERGY      -231.465580374394
Dispersion correction           -0.000218258
FINAL SINGLE POINT ENERGY      -115.733181974831

CARTESIAN COORDINATES (ANGSTROEM)
---------------------------------
  C     -5.616573    1.488614  -10.703043
  O     -5.556274    0.457298   -9.763606
  H     -6.374246    0.536284   -9.227588
  H     -5.787094    2.431074  -10.183057
  H     -4.744052    1.605157  -11.282023
  H     -6.466317    1.427160  -11.365703
  C     -3.988437   -2.398342   -8.977127
  O     -3.513493   -1.387565   -9.908743
  H     -4.139918   -0.740278   -9.912179
  H     -5.021541   -2.334140   -8.773702
  H     -4.002616   -3.390471   -9.425857
  H     -3.397982   -2.449328   -8.002454

 Multiplicity           Mult            ....    1
 Number of Electrons    NEL             ....   18
 Basis Dimension        Dim             ....  172

ORBITAL ENERGIES
----------------

  NO   OCC          E(Eh)            E(eV)
   0   2.0000     -19.229202      -523.2532
   1   2.0000     -10.317654      -280.7576
   2   2.0000      -1.140565       -31.0364
   3   2.0000      -0.804668       -21.8961
   4   2.0000      -0.616484       -16.7754
   5   2.0000      -0.536589       -14.6013
   6   2.0000      -0.520478       -14.1629
   7   2.0000      -0.439671       -11.9640
   8   2.0000      -0.381050       -10.3689
   9   0.0000       0.072195         1.9645
  10   0.0000       0.129877         3.5341
  11   0.0000       0.151210         4.1146
  12   0.0000       0.165250         4.4967
  13   0.0000       0.197969         5.3870

MULLIKEN ATOMIC CHARGES
-----------------------
   0 C :   -0.002743
   1 O :   -0.006096
   2 H :    0.000096
   3 H :    0.000143
   4 H :   -0.000158
   5 H :    0.000226
   6 C :   -0.184033
   7 O :   -0.455777
   8 H :    0.304959
   9 H :    0.115672
  10 H :    0.116403
  11 H :    0.111308
Sum of atomic charges:   -0.0000000

LOEWDIN ATOMIC CHARGES
----------------------
   0 C :   -0.004373
   1 O :   -0.023259
   2 H :   -0.000945
   3 H :   -0.000085
   4 H :   -0.000461
   5 H :   -0.000069
   6 C :   -0.356658
   7 O :   -0.053183
   8 H :    0.134259
   9 H :    0.091025
  10 H :    0.104026
  11 H :    0.109722

  Mayer bond orders larger than 0.1
B(  6-C ,  7-O ) :   0.9978 B(  6-C ,  9-H ) :   0.9762 B(  6-C , 10-H ) :   0.9743
B(  6-C , 11-H ) :   0.9723 B(  7-O ,  8-H ) :   0.9240

Dispersion correction           -0.000272887
FINAL SINGLE POINT ENERGY      -115.725577516716

DIPOLE MOMENT
-------------
                                X             Y             Z
Electronic contribution:      0.72836       1.31981      -1.20612
Nuclear contribution   :     -1.38503      -1.32982       1.57015
                        -----------------------------------------
Total Dipole Moment    :     -0.65667      -0.01001       0.36403
                        -----------------------------------------
Magnitude (a.u.)       :      0.75088
Magnitude (Debye)      :      1.90859

Rotational constants in cm-1:     4.494131     0.782061     0.768093
Rotational constants in MHz : 134730.655640 23445.589118 23026.841208

                             ****ORCA TERMINATED NORMALLY****
TOTAL RUN TIME: 0 days 0 hours 1 minutes 9 seconds 695 msec
