                         Program Version 4.1.2  - RELEASE  -
|  1> #Run DFT-D3 single point of the dimer
|  2> ! wB97X-D3 def2-TZVP TIGHTSCF CHELPG PMODEL PAL8
|  3>
|  4> %base "3-164_DFT_AB"
|  5>
|  6> %scf
|  7> MaxIter 1000
|  8> end
|  9>
| 10> * xyz 0 1
| 11>   C                      -4.786953            7.075287             -5.833262
| 12>   O                      -5.413585            8.261123             -5.360470
| 13>   H                      -5.604644            8.063137             -4.449744
| 14>   H                      -4.462483            6.404452             -5.019683
| 15>   H                      -5.419503            6.496374             -6.558865
| 16>   H                      -3.912728            7.235299             -6.455467
| 17>   C                      -7.280729            10.984344            -2.982515
| 18>   O                      -7.888206            10.581002            -4.157496
| 19>   H                      -7.397070            9.775579             -4.450965
| 20>   H                      -7.612625            11.926285            -2.619531
| 21>   H                      -7.518263            10.162889            -2.288875
| 22>   H                      -6.158756            10.927150            -3.035597
| 23> *
| 24>
| 25> #Run DFT-D3 single point of the molecule with dimer basis set
| 26> $new_job
| 27> %base "3-164_DFT_A"
| 28> ! wB97X-D3 def2-TZVP TIGHTSCF CHELPG PMODEL
| 29>
| 30> %scf
| 31> MaxIter 1000
| 32> end
| 33>
| 34> * xyz 0 1
| 35>   C                      -4.786953            7.075287             -5.833262
| 36>   O                      -5.413585            8.261123             -5.360470
| 37>   H                      -5.604644            8.063137             -4.449744
| 38>   H                      -4.462483            6.404452             -5.019683
| 39>   H                      -5.419503            6.496374             -6.558865
| 40>   H                      -3.912728            7.235299             -6.455467
| 41>   C                    : -7.280729            10.984344            -2.982515
| 42>   O                    : -7.888206            10.581002            -4.157496
| 43>   H                    : -7.397070            9.775579             -4.450965
| 44>   H                    : -7.612625            11.926285            -2.619531
| 45>   H                    : -7.518263            10.162889            -2.288875
| 46>   H                    : -6.158756            10.927150            -3.035597
| 47> *
| 48>
| 49> #Run DFT-D3 single point of the particle with dimer basis set
| 50> $new_job
| 51> %base "3-164_DFT_B"
| 52> ! wB97X-D3 def2-TZVP TIGHTSCF CHELPG PMODEL
| 53>
| 54> %scf
| 55> MaxIter 1000
| 56> end
| 57>
| 58> * xyz 0 1
| 59>   C                    : -4.786953            7.075287             -5.833262
| 60>   O                    : -5.413585            8.261123             -5.360470
| 61>   H                    : -5.604644            8.063137             -4.449744
| 62>   H                    : -4.462483            6.404452             -5.019683
| 63>   H                    : -5.419503            6.496374             -6.558865
| 64>   H                    : -3.912728            7.235299             -6.455467
| 65>   C                      -7.280729            10.984344            -2.982515
| 66>   O                      -7.888206            10.581002            -4.157496
| 67>   H                      -7.397070            9.775579             -4.450965
| 68>   H                      -7.612625            11.926285            -2.619531
| 69>   H                      -7.518263            10.162889            -2.288875
| 70>   H                      -6.158756            10.927150            -3.035597
| 71> *
| 72>
| 73>                          ****END OF INPUT****
 Total Charge           Charge          ....    0
 Multiplicity           Mult            ....    1
 Number of Electrons    NEL             ....   36
Dispersion correction           -0.001340894
FINAL SINGLE POINT ENERGY      -231.462371539346
Dispersion correction           -0.000261904
FINAL SINGLE POINT ENERGY      -115.732146068678

CARTESIAN COORDINATES (ANGSTROEM)
---------------------------------
  C     -4.786953    7.075287   -5.833262
  O     -5.413585    8.261123   -5.360470
  H     -5.604644    8.063137   -4.449744
  H     -4.462483    6.404452   -5.019683
  H     -5.419503    6.496374   -6.558865
  H     -3.912728    7.235299   -6.455467
  C     -7.280729   10.984344   -2.982515
  O     -7.888206   10.581002   -4.157496
  H     -7.397070    9.775579   -4.450965
  H     -7.612625   11.926285   -2.619531
  H     -7.518263   10.162889   -2.288875
  H     -6.158756   10.927150   -3.035597

 Multiplicity           Mult            ....    1
 Number of Electrons    NEL             ....   18
 Basis Dimension        Dim             ....  172

ORBITAL ENERGIES
----------------

  NO   OCC          E(Eh)            E(eV)
   0   2.0000     -19.231000      -523.3021
   1   2.0000     -10.311394      -280.5873
   2   2.0000      -1.143137       -31.1063
   3   2.0000      -0.789247       -21.4765
   4   2.0000      -0.614034       -16.7087
   5   2.0000      -0.546490       -14.8707
   6   2.0000      -0.532099       -14.4791
   7   2.0000      -0.437142       -11.8952
   8   2.0000      -0.362552        -9.8655
   9   0.0000       0.070531         1.9193
  10   0.0000       0.112755         3.0682
  11   0.0000       0.156259         4.2520
  12   0.0000       0.183426         4.9913
  13   0.0000       0.187847         5.1116

MULLIKEN ATOMIC CHARGES
-----------------------
   0 C :   -0.000076
   1 O :   -0.000626
   2 H :   -0.000892
   3 H :    0.000002
   4 H :    0.000006
   5 H :    0.000006
   6 C :   -0.169786
   7 O :   -0.466104
   8 H :    0.319109
   9 H :    0.122463
  10 H :    0.100555
  11 H :    0.095342
Sum of atomic charges:   -0.0000000

LOEWDIN ATOMIC CHARGES
----------------------
   0 C :   -0.000135
   1 O :   -0.002801
   2 H :   -0.001991
   3 H :   -0.000002
   4 H :   -0.000003
   5 H :   -0.000003
   6 C :   -0.411452
   7 O :   -0.068063
   8 H :    0.190787
   9 H :    0.099336
  10 H :    0.097230
  11 H :    0.097097

  Mayer bond orders larger than 0.1
B(  6-C ,  7-O ) :   0.9856 B(  6-C ,  9-H ) :   0.9697 B(  6-C , 10-H ) :   0.9916
B(  6-C , 11-H ) :   0.9745 B(  7-O ,  8-H ) :   0.8976

Dispersion correction           -0.000204717
FINAL SINGLE POINT ENERGY      -115.728676150602

DIPOLE MOMENT
-------------
                                X             Y             Z
Electronic contribution:     -0.97141      -0.15774      -1.55497
Nuclear contribution   :      1.49131      -0.18611       1.81189
                        -----------------------------------------
Total Dipole Moment    :      0.51990      -0.34385       0.25692
                        -----------------------------------------
Magnitude (a.u.)       :      0.67419
Magnitude (Debye)      :      1.71366

Rotational constants in cm-1:     4.186968     0.874509     0.829645
Rotational constants in MHz : 125522.136681 26217.110789 24872.141546

                             ****ORCA TERMINATED NORMALLY****
TOTAL RUN TIME: 0 days 0 hours 5 minutes 43 seconds 11 msec
