                         Program Version 4.1.2  - RELEASE  -
|  1> #Run DFT-D3 single point of the dimer
|  2> ! wB97X-D3 def2-TZVP TIGHTSCF CHELPG PMODEL PAL8
|  3>
|  4> %base "22-103_DFT_AB"
|  5>
|  6> %scf
|  7> MaxIter 1000
|  8> end
|  9>
| 10> * xyz 0 1
| 11>   C                      5.079205             10.088721            1.155748
| 12>   O                      4.727494             10.801788            -0.003881
| 13>   H                      5.357990             11.570185            -0.053049
| 14>   H                      4.991311             9.059950             0.974332
| 15>   H                      6.151954             10.261616            1.523012
| 16>   H                      4.377701             10.170308            2.005355
| 17>   C                      2.661504             9.495271             -3.016311
| 18>   O                      2.448546             10.402482            -1.978339
| 19>   H                      3.202107             10.311662            -1.412499
| 20>   H                      1.780161             9.520745             -3.748241
| 21>   H                      3.569581             9.719727             -3.528841
| 22>   H                      2.722283             8.392538             -2.647649
| 23> *
| 24>
| 25> #Run DFT-D3 single point of the molecule with dimer basis set
| 26> $new_job
| 27> %base "22-103_DFT_A"
| 28> ! wB97X-D3 def2-TZVP TIGHTSCF CHELPG PMODEL
| 29>
| 30> %scf
| 31> MaxIter 1000
| 32> end
| 33>
| 34> * xyz 0 1
| 35>   C                      5.079205             10.088721            1.155748
| 36>   O                      4.727494             10.801788            -0.003881
| 37>   H                      5.357990             11.570185            -0.053049
| 38>   H                      4.991311             9.059950             0.974332
| 39>   H                      6.151954             10.261616            1.523012
| 40>   H                      4.377701             10.170308            2.005355
| 41>   C                    : 2.661504             9.495271             -3.016311
| 42>   O                    : 2.448546             10.402482            -1.978339
| 43>   H                    : 3.202107             10.311662            -1.412499
| 44>   H                    : 1.780161             9.520745             -3.748241
| 45>   H                    : 3.569581             9.719727             -3.528841
| 46>   H                    : 2.722283             8.392538             -2.647649
| 47> *
| 48>
| 49> #Run DFT-D3 single point of the particle with dimer basis set
| 50> $new_job
| 51> %base "22-103_DFT_B"
| 52> ! wB97X-D3 def2-TZVP TIGHTSCF CHELPG PMODEL
| 53>
| 54> %scf
| 55> MaxIter 1000
| 56> end
| 57>
| 58> * xyz 0 1
| 59>   C                    : 5.079205             10.088721            1.155748
| 60>   O                    : 4.727494             10.801788            -0.003881
| 61>   H                    : 5.357990             11.570185            -0.053049
| 62>   H                    : 4.991311             9.059950             0.974332
| 63>   H                    : 6.151954             10.261616            1.523012
| 64>   H                    : 4.377701             10.170308            2.005355
| 65>   C                      2.661504             9.495271             -3.016311
| 66>   O                      2.448546             10.402482            -1.978339
| 67>   H                      3.202107             10.311662            -1.412499
| 68>   H                      1.780161             9.520745             -3.748241
| 69>   H                      3.569581             9.719727             -3.528841
| 70>   H                      2.722283             8.392538             -2.647649
| 71> *
| 72>
| 73>                          ****END OF INPUT****
 Total Charge           Charge          ....    0
 Multiplicity           Mult            ....    1
 Number of Electrons    NEL             ....   36
Dispersion correction           -0.001450154
FINAL SINGLE POINT ENERGY      -231.467955248209
Dispersion correction           -0.000265139
FINAL SINGLE POINT ENERGY      -115.728825620657

CARTESIAN COORDINATES (ANGSTROEM)
---------------------------------
  C      5.079205   10.088721    1.155748
  O      4.727494   10.801788   -0.003881
  H      5.357990   11.570185   -0.053049
  H      4.991311    9.059950    0.974332
  H      6.151954   10.261616    1.523012
  H      4.377701   10.170308    2.005355
  C      2.661504    9.495271   -3.016311
  O      2.448546   10.402482   -1.978339
  H      3.202107   10.311662   -1.412499
  H      1.780161    9.520745   -3.748241
  H      3.569581    9.719727   -3.528841
  H      2.722283    8.392538   -2.647649

 Multiplicity           Mult            ....    1
 Number of Electrons    NEL             ....   18
 Basis Dimension        Dim             ....  172

ORBITAL ENERGIES
----------------

  NO   OCC          E(Eh)            E(eV)
   0   2.0000     -19.232280      -523.3370
   1   2.0000     -10.321718      -280.8682
   2   2.0000      -1.148844       -31.2616
   3   2.0000      -0.788128       -21.4460
   4   2.0000      -0.616172       -16.7669
   5   2.0000      -0.543110       -14.7788
   6   2.0000      -0.525034       -14.2869
   7   2.0000      -0.433832       -11.8052
   8   2.0000      -0.373532       -10.1643
   9   0.0000       0.070605         1.9213
  10   0.0000       0.127076         3.4579
  11   0.0000       0.148677         4.0457
  12   0.0000       0.166113         4.5202
  13   0.0000       0.192564         5.2399

MULLIKEN ATOMIC CHARGES
-----------------------
   0 C :   -0.001125
   1 O :   -0.001095
   2 H :   -0.000151
   3 H :   -0.000006
   4 H :   -0.000012
   5 H :    0.000106
   6 C :   -0.173766
   7 O :   -0.454187
   8 H :    0.310529
   9 H :    0.118659
  10 H :    0.109217
  11 H :    0.091831
Sum of atomic charges:    0.0000000

LOEWDIN ATOMIC CHARGES
----------------------
   0 C :   -0.001855
   1 O :   -0.012006
   2 H :   -0.000715
   3 H :   -0.000176
   4 H :   -0.000043
   5 H :   -0.000042
   6 C :   -0.410749
   7 O :   -0.048759
   8 H :    0.168185
   9 H :    0.117779
  10 H :    0.086720
  11 H :    0.101660

  Mayer bond orders larger than 0.1
B(  6-C ,  7-O ) :   0.9946 B(  6-C ,  9-H ) :   0.9710 B(  6-C , 10-H ) :   0.9751
B(  6-C , 11-H ) :   0.9735 B(  7-O ,  8-H ) :   0.9083

Dispersion correction           -0.000235522
FINAL SINGLE POINT ENERGY      -115.732125092520

DIPOLE MOMENT
-------------
                                X             Y             Z
Electronic contribution:     -0.35242       1.35308       1.29869
Nuclear contribution   :      0.91230      -1.72304      -1.34052
                        -----------------------------------------
Total Dipole Moment    :      0.55988      -0.36995      -0.04184
                        -----------------------------------------
Magnitude (a.u.)       :      0.67237
Magnitude (Debye)      :      1.70902

Rotational constants in cm-1:     4.113296     0.847092     0.813510
Rotational constants in MHz : 123313.515838 25395.188923 24388.405790

                             ****ORCA TERMINATED NORMALLY****
TOTAL RUN TIME: 0 days 0 hours 1 minutes 2 seconds 584 msec
