                         Program Version 4.1.2  - RELEASE  -
|  1> #Run DFT-D3 single point of the dimer
|  2> ! wB97X-D3 def2-TZVP TIGHTSCF CHELPG PMODEL PAL8
|  3>
|  4> %base "11-213_DFT_AB"
|  5>
|  6> %scf
|  7> MaxIter 1000
|  8> end
|  9>
| 10> * xyz 0 1
| 11>   C                      -0.161612            -1.013333            -9.391587
| 12>   O                      0.287135             -0.195568            -10.440603
| 13>   H                      -0.128257            -0.529785            -11.255513
| 14>   H                      0.008915             -2.033474            -9.698819
| 15>   H                      0.251185             -0.805331            -8.406444
| 16>   H                      -1.254205            -0.943375            -9.349055
| 17>   C                      4.437092             -0.808071            -10.256159
| 18>   O                      3.049270             -0.932101            -9.980154
| 19>   H                      2.555484             -1.028475            -10.807407
| 20>   H                      5.159058             -1.269933            -9.547572
| 21>   H                      4.795339             -1.273333            -11.214875
| 22>   H                      4.641081             0.196038             -10.414987
| 23> *
| 24>
| 25> #Run DFT-D3 single point of the molecule with dimer basis set
| 26> $new_job
| 27> %base "11-213_DFT_A"
| 28> ! wB97X-D3 def2-TZVP TIGHTSCF CHELPG PMODEL
| 29>
| 30> %scf
| 31> MaxIter 1000
| 32> end
| 33>
| 34> * xyz 0 1
| 35>   C                      -0.161612            -1.013333            -9.391587
| 36>   O                      0.287135             -0.195568            -10.440603
| 37>   H                      -0.128257            -0.529785            -11.255513
| 38>   H                      0.008915             -2.033474            -9.698819
| 39>   H                      0.251185             -0.805331            -8.406444
| 40>   H                      -1.254205            -0.943375            -9.349055
| 41>   C                    : 4.437092             -0.808071            -10.256159
| 42>   O                    : 3.049270             -0.932101            -9.980154
| 43>   H                    : 2.555484             -1.028475            -10.807407
| 44>   H                    : 5.159058             -1.269933            -9.547572
| 45>   H                    : 4.795339             -1.273333            -11.214875
| 46>   H                    : 4.641081             0.196038             -10.414987
| 47> *
| 48>
| 49> #Run DFT-D3 single point of the particle with dimer basis set
| 50> $new_job
| 51> %base "11-213_DFT_B"
| 52> ! wB97X-D3 def2-TZVP TIGHTSCF CHELPG PMODEL
| 53>
| 54> %scf
| 55> MaxIter 1000
| 56> end
| 57>
| 58> * xyz 0 1
| 59>   C                    : -0.161612            -1.013333            -9.391587
| 60>   O                    : 0.287135             -0.195568            -10.440603
| 61>   H                    : -0.128257            -0.529785            -11.255513
| 62>   H                    : 0.008915             -2.033474            -9.698819
| 63>   H                    : 0.251185             -0.805331            -8.406444
| 64>   H                    : -1.254205            -0.943375            -9.349055
| 65>   C                      4.437092             -0.808071            -10.256159
| 66>   O                      3.049270             -0.932101            -9.980154
| 67>   H                      2.555484             -1.028475            -10.807407
| 68>   H                      5.159058             -1.269933            -9.547572
| 69>   H                      4.795339             -1.273333            -11.214875
| 70>   H                      4.641081             0.196038             -10.414987
| 71> *
| 72>
| 73>                          ****END OF INPUT****
 Total Charge           Charge          ....    0
 Multiplicity           Mult            ....    1
 Number of Electrons    NEL             ....   36
Dispersion correction           -0.001670438
FINAL SINGLE POINT ENERGY      -231.460966955627
Dispersion correction           -0.000210524
FINAL SINGLE POINT ENERGY      -115.732187116256

CARTESIAN COORDINATES (ANGSTROEM)
---------------------------------
  C     -0.161612   -1.013333   -9.391587
  O      0.287135   -0.195568  -10.440603
  H     -0.128257   -0.529785  -11.255513
  H      0.008915   -2.033474   -9.698819
  H      0.251185   -0.805331   -8.406444
  H     -1.254205   -0.943375   -9.349055
  C      4.437092   -0.808071  -10.256159
  O      3.049270   -0.932101   -9.980154
  H      2.555484   -1.028475  -10.807407
  H      5.159058   -1.269933   -9.547572
  H      4.795339   -1.273333  -11.214875
  H      4.641081    0.196038  -10.414987

 Multiplicity           Mult            ....    1
 Number of Electrons    NEL             ....   18
 Basis Dimension        Dim             ....  172

ORBITAL ENERGIES
----------------

  NO   OCC          E(Eh)            E(eV)
   0   2.0000     -19.233631      -523.3737
   1   2.0000     -10.313267      -280.6383
   2   2.0000      -1.133038       -30.8315
   3   2.0000      -0.799868       -21.7655
   4   2.0000      -0.613155       -16.6848
   5   2.0000      -0.549634       -14.9563
   6   2.0000      -0.518932       -14.1208
   7   2.0000      -0.427235       -11.6257
   8   2.0000      -0.376391       -10.2421
   9   0.0000       0.083259         2.2656
  10   0.0000       0.126860         3.4520
  11   0.0000       0.151748         4.1293
  12   0.0000       0.175348         4.7715
  13   0.0000       0.194267         5.2863

MULLIKEN ATOMIC CHARGES
-----------------------
   0 C :   -0.000101
   1 O :   -0.001709
   2 H :   -0.000157
   3 H :   -0.002280
   4 H :   -0.002053
   5 H :   -0.000179
   6 C :   -0.180439
   7 O :   -0.469308
   8 H :    0.323286
   9 H :    0.121468
  10 H :    0.096427
  11 H :    0.115044
Sum of atomic charges:    0.0000000

LOEWDIN ATOMIC CHARGES
----------------------
   0 C :   -0.009503
   1 O :   -0.007420
   2 H :   -0.000764
   3 H :   -0.001172
   4 H :   -0.001535
   5 H :   -0.000103
   6 C :   -0.384829
   7 O :   -0.071561
   8 H :    0.179606
   9 H :    0.111438
  10 H :    0.101089
  11 H :    0.084754

  Mayer bond orders larger than 0.1
B(  6-C ,  7-O ) :   1.0013 B(  6-C ,  9-H ) :   0.9684 B(  6-C , 10-H ) :   0.9789
B(  6-C , 11-H ) :   0.9804 B(  7-O ,  8-H ) :   0.8914

Dispersion correction           -0.000261819
FINAL SINGLE POINT ENERGY      -115.727505458607

DIPOLE MOMENT
-------------
                                X             Y             Z
Electronic contribution:     -1.83643      -0.12496       0.63524
Nuclear contribution   :      2.10052       0.11393      -1.30217
                        -----------------------------------------
Total Dipole Moment    :      0.26410      -0.01103      -0.66693
                        -----------------------------------------
Magnitude (a.u.)       :      0.71740
Magnitude (Debye)      :      1.82348

Rotational constants in cm-1:     4.514521     0.809539     0.781567
Rotational constants in MHz : 135341.930790 24269.361558 23430.779573

                             ****ORCA TERMINATED NORMALLY****
TOTAL RUN TIME: 0 days 0 hours 1 minutes 12 seconds 944 msec
