                         Program Version 4.1.2  - RELEASE  -
|  1> #Run DFT-D3 single point of the dimer
|  2> ! wB97X-D3 def2-TZVP TIGHTSCF CHELPG PMODEL PAL8
|  3>
|  4> %base "5-111_DFT_AB"
|  5>
|  6> %scf
|  7> MaxIter 1000
|  8> end
|  9>
| 10> * xyz 0 1
| 11>   C                      6.493591             -7.114689            5.665414
| 12>   O                      7.749158             -7.200561            5.023627
| 13>   H                      8.417499             -7.256658            5.702624
| 14>   H                      6.411173             -7.828988            6.442911
| 15>   H                      6.322881             -6.124128            6.161306
| 16>   H                      5.695959             -7.314876            5.013645
| 17>   C                      6.841558             -4.279358            3.593163
| 18>   O                      6.967058             -5.324514            2.727259
| 19>   H                      6.968686             -6.154978            3.242085
| 20>   H                      6.939423             -3.275139            3.211090
| 21>   H                      5.826904             -4.372985            4.033386
| 22>   H                      7.520350             -4.294207            4.443900
| 23> *
| 24>
| 25> #Run DFT-D3 single point of the molecule with dimer basis set
| 26> $new_job
| 27> %base "5-111_DFT_A"
| 28> ! wB97X-D3 def2-TZVP TIGHTSCF CHELPG PMODEL
| 29>
| 30> %scf
| 31> MaxIter 1000
| 32> end
| 33>
| 34> * xyz 0 1
| 35>   C                      6.493591             -7.114689            5.665414
| 36>   O                      7.749158             -7.200561            5.023627
| 37>   H                      8.417499             -7.256658            5.702624
| 38>   H                      6.411173             -7.828988            6.442911
| 39>   H                      6.322881             -6.124128            6.161306
| 40>   H                      5.695959             -7.314876            5.013645
| 41>   C                    : 6.841558             -4.279358            3.593163
| 42>   O                    : 6.967058             -5.324514            2.727259
| 43>   H                    : 6.968686             -6.154978            3.242085
| 44>   H                    : 6.939423             -3.275139            3.211090
| 45>   H                    : 5.826904             -4.372985            4.033386
| 46>   H                    : 7.520350             -4.294207            4.443900
| 47> *
| 48>
| 49> #Run DFT-D3 single point of the particle with dimer basis set
| 50> $new_job
| 51> %base "5-111_DFT_B"
| 52> ! wB97X-D3 def2-TZVP TIGHTSCF CHELPG PMODEL
| 53>
| 54> %scf
| 55> MaxIter 1000
| 56> end
| 57>
| 58> * xyz 0 1
| 59>   C                    : 6.493591             -7.114689            5.665414
| 60>   O                    : 7.749158             -7.200561            5.023627
| 61>   H                    : 8.417499             -7.256658            5.702624
| 62>   H                    : 6.411173             -7.828988            6.442911
| 63>   H                    : 6.322881             -6.124128            6.161306
| 64>   H                    : 5.695959             -7.314876            5.013645
| 65>   C                      6.841558             -4.279358            3.593163
| 66>   O                      6.967058             -5.324514            2.727259
| 67>   H                      6.968686             -6.154978            3.242085
| 68>   H                      6.939423             -3.275139            3.211090
| 69>   H                      5.826904             -4.372985            4.033386
| 70>   H                      7.520350             -4.294207            4.443900
| 71> *
| 72>
| 73>                          ****END OF INPUT****
 Total Charge           Charge          ....    0
 Multiplicity           Mult            ....    1
 Number of Electrons    NEL             ....   36
Dispersion correction           -0.002386583
FINAL SINGLE POINT ENERGY      -231.469942454690
Dispersion correction           -0.000235109
FINAL SINGLE POINT ENERGY      -115.734278303176

CARTESIAN COORDINATES (ANGSTROEM)
---------------------------------
  C      6.493591   -7.114689    5.665414
  O      7.749158   -7.200561    5.023627
  H      8.417499   -7.256658    5.702624
  H      6.411173   -7.828988    6.442911
  H      6.322881   -6.124128    6.161306
  H      5.695959   -7.314876    5.013645
  C      6.841558   -4.279358    3.593163
  O      6.967058   -5.324514    2.727259
  H      6.968686   -6.154978    3.242085
  H      6.939423   -3.275139    3.211090
  H      5.826904   -4.372985    4.033386
  H      7.520350   -4.294207    4.443900

 Multiplicity           Mult            ....    1
 Number of Electrons    NEL             ....   18
 Basis Dimension        Dim             ....  172

ORBITAL ENERGIES
----------------

  NO   OCC          E(Eh)            E(eV)
   0   2.0000     -19.233213      -523.3623
   1   2.0000     -10.308327      -280.5038
   2   2.0000      -1.151113       -31.3234
   3   2.0000      -0.793955       -21.6046
   4   2.0000      -0.621152       -16.9024
   5   2.0000      -0.548556       -14.9270
   6   2.0000      -0.536643       -14.6028
   7   2.0000      -0.428264       -11.6537
   8   2.0000      -0.367025        -9.9873
   9   0.0000       0.067643         1.8407
  10   0.0000       0.141016         3.8373
  11   0.0000       0.147132         4.0037
  12   0.0000       0.151853         4.1321
  13   0.0000       0.201506         5.4833

MULLIKEN ATOMIC CHARGES
-----------------------
   0 C :   -0.000853
   1 O :   -0.002009
   2 H :   -0.000193
   3 H :   -0.000094
   4 H :   -0.002217
   5 H :   -0.000786
   6 C :   -0.174028
   7 O :   -0.459912
   8 H :    0.322798
   9 H :    0.128237
  10 H :    0.093179
  11 H :    0.095879
Sum of atomic charges:   -0.0000000

LOEWDIN ATOMIC CHARGES
----------------------
   0 C :   -0.011003
   1 O :   -0.009404
   2 H :   -0.000410
   3 H :   -0.000117
   4 H :   -0.002244
   5 H :   -0.001677
   6 C :   -0.426087
   7 O :   -0.035753
   8 H :    0.191143
   9 H :    0.105467
  10 H :    0.098347
  11 H :    0.091737

  Mayer bond orders larger than 0.1
B(  6-C ,  7-O ) :   0.9971 B(  6-C ,  9-H ) :   0.9681 B(  6-C , 10-H ) :   0.9949
B(  6-C , 11-H ) :   0.9757 B(  7-O ,  8-H ) :   0.8981

Dispersion correction           -0.000218884
FINAL SINGLE POINT ENERGY      -115.730027524945

DIPOLE MOMENT
-------------
                                X             Y             Z
Electronic contribution:      0.29727      -1.27751      -1.44087
Nuclear contribution   :     -0.32510       1.14749       2.07331
                        -----------------------------------------
Total Dipole Moment    :     -0.02783      -0.13002       0.63244
                        -----------------------------------------
Magnitude (a.u.)       :      0.64626
Magnitude (Debye)      :      1.64267

Rotational constants in cm-1:     4.427949     0.871867     0.839841
Rotational constants in MHz : 132746.566491 26137.900407 25177.808332

                             ****ORCA TERMINATED NORMALLY****
TOTAL RUN TIME: 0 days 0 hours 1 minutes 2 seconds 687 msec
