                         Program Version 4.1.2  - RELEASE  -
|  1> #Run DFT-D3 single point of the dimer
|  2> ! wB97X-D3 def2-TZVP TIGHTSCF CHELPG PMODEL PAL8
|  3>
|  4> %base "17-175_DFT_AB"
|  5>
|  6> %scf
|  7> MaxIter 1000
|  8> end
|  9>
| 10> * xyz 0 1
| 11>   C                      -1.686690            -6.880099            0.001016
| 12>   O                      -0.515030            -7.702419            0.231291
| 13>   H                      0.195622             -7.628837            -0.433345
| 14>   H                      -1.448333            -5.827464            -0.095840
| 15>   H                      -2.181151            -7.114668            -0.914702
| 16>   H                      -2.365929            -7.077965            0.815531
| 17>   C                      -1.692294            -11.103944           0.083471
| 18>   O                      -2.566443            -10.003785           0.122804
| 19>   H                      -2.003418            -9.254620            0.347593
| 20>   H                      -1.189588            -11.109790           -0.845956
| 21>   H                      -0.864345            -11.074299           0.771556
| 22>   H                      -2.283105            -12.055055           0.103385
| 23> *
| 24>
| 25> #Run DFT-D3 single point of the molecule with dimer basis set
| 26> $new_job
| 27> %base "17-175_DFT_A"
| 28> ! wB97X-D3 def2-TZVP TIGHTSCF CHELPG PMODEL
| 29>
| 30> %scf
| 31> MaxIter 1000
| 32> end
| 33>
| 34> * xyz 0 1
| 35>   C                      -1.686690            -6.880099            0.001016
| 36>   O                      -0.515030            -7.702419            0.231291
| 37>   H                      0.195622             -7.628837            -0.433345
| 38>   H                      -1.448333            -5.827464            -0.095840
| 39>   H                      -2.181151            -7.114668            -0.914702
| 40>   H                      -2.365929            -7.077965            0.815531
| 41>   C                    : -1.692294            -11.103944           0.083471
| 42>   O                    : -2.566443            -10.003785           0.122804
| 43>   H                    : -2.003418            -9.254620            0.347593
| 44>   H                    : -1.189588            -11.109790           -0.845956
| 45>   H                    : -0.864345            -11.074299           0.771556
| 46>   H                    : -2.283105            -12.055055           0.103385
| 47> *
| 48>
| 49> #Run DFT-D3 single point of the particle with dimer basis set
| 50> $new_job
| 51> %base "17-175_DFT_B"
| 52> ! wB97X-D3 def2-TZVP TIGHTSCF CHELPG PMODEL
| 53>
| 54> %scf
| 55> MaxIter 1000
| 56> end
| 57>
| 58> * xyz 0 1
| 59>   C                    : -1.686690            -6.880099            0.001016
| 60>   O                    : -0.515030            -7.702419            0.231291
| 61>   H                    : 0.195622             -7.628837            -0.433345
| 62>   H                    : -1.448333            -5.827464            -0.095840
| 63>   H                    : -2.181151            -7.114668            -0.914702
| 64>   H                    : -2.365929            -7.077965            0.815531
| 65>   C                      -1.692294            -11.103944           0.083471
| 66>   O                      -2.566443            -10.003785           0.122804
| 67>   H                      -2.003418            -9.254620            0.347593
| 68>   H                      -1.189588            -11.109790           -0.845956
| 69>   H                      -0.864345            -11.074299           0.771556
| 70>   H                      -2.283105            -12.055055           0.103385
| 71> *
| 72>
| 73>                          ****END OF INPUT****
 Total Charge           Charge          ....    0
 Multiplicity           Mult            ....    1
 Number of Electrons    NEL             ....   36
Dispersion correction           -0.001962040
FINAL SINGLE POINT ENERGY      -231.472211755024
Dispersion correction           -0.000271137
FINAL SINGLE POINT ENERGY      -115.733600304389

CARTESIAN COORDINATES (ANGSTROEM)
---------------------------------
  C     -1.686690   -6.880099    0.001016
  O     -0.515030   -7.702419    0.231291
  H      0.195622   -7.628837   -0.433345
  H     -1.448333   -5.827464   -0.095840
  H     -2.181151   -7.114668   -0.914702
  H     -2.365929   -7.077965    0.815531
  C     -1.692294  -11.103944    0.083471
  O     -2.566443  -10.003785    0.122804
  H     -2.003418   -9.254620    0.347593
  H     -1.189588  -11.109790   -0.845956
  H     -0.864345  -11.074299    0.771556
  H     -2.283105  -12.055055    0.103385

 Multiplicity           Mult            ....    1
 Number of Electrons    NEL             ....   18
 Basis Dimension        Dim             ....  172

ORBITAL ENERGIES
----------------

  NO   OCC          E(Eh)            E(eV)
   0   2.0000     -19.232878      -523.3532
   1   2.0000     -10.308735      -280.5149
   2   2.0000      -1.141296       -31.0562
   3   2.0000      -0.796872       -21.6840
   4   2.0000      -0.619228       -16.8500
   5   2.0000      -0.536966       -14.6116
   6   2.0000      -0.526384       -14.3236
   7   2.0000      -0.445437       -12.1210
   8   2.0000      -0.370152       -10.0724
   9   0.0000       0.071141         1.9359
  10   0.0000       0.131506         3.5785
  11   0.0000       0.155473         4.2306
  12   0.0000       0.169521         4.6129
  13   0.0000       0.186173         5.0660

MULLIKEN ATOMIC CHARGES
-----------------------
   0 C :   -0.003053
   1 O :   -0.002443
   2 H :   -0.000070
   3 H :   -0.000118
   4 H :   -0.001499
   5 H :   -0.000807
   6 C :   -0.172913
   7 O :   -0.454533
   8 H :    0.309079
   9 H :    0.103340
  10 H :    0.105182
  11 H :    0.117835
Sum of atomic charges:   -0.0000000

LOEWDIN ATOMIC CHARGES
----------------------
   0 C :   -0.014509
   1 O :   -0.009490
   2 H :   -0.000577
   3 H :   -0.000169
   4 H :   -0.002438
   5 H :   -0.002572
   6 C :   -0.392371
   7 O :   -0.056076
   8 H :    0.182852
   9 H :    0.087843
  10 H :    0.092018
  11 H :    0.115490

  Mayer bond orders larger than 0.1
B(  6-C ,  7-O ) :   1.0002 B(  6-C ,  9-H ) :   0.9779 B(  6-C , 10-H ) :   0.9814
B(  6-C , 11-H ) :   0.9747 B(  7-O ,  8-H ) :   0.9081

Dispersion correction           -0.000224209
FINAL SINGLE POINT ENERGY      -115.731739938311

DIPOLE MOMENT
-------------
                                X             Y             Z
Electronic contribution:     -1.27472       1.33607       0.14298
Nuclear contribution   :      1.98289      -1.29757      -0.03842
                        -----------------------------------------
Total Dipole Moment    :      0.70816       0.03850       0.10457
                        -----------------------------------------
Magnitude (a.u.)       :      0.71688
Magnitude (Debye)      :      1.82216

Rotational constants in cm-1:     4.348497     0.852191     0.803089
Rotational constants in MHz : 130364.659118 25548.036986 24075.988840

                             ****ORCA TERMINATED NORMALLY****
TOTAL RUN TIME: 0 days 0 hours 1 minutes 9 seconds 780 msec
