                         Program Version 4.1.2  - RELEASE  -
|  1> #Run DFT-D3 single point of the dimer
|  2> ! wB97X-D3 def2-TZVP TIGHTSCF CHELPG PMODEL PAL8
|  3>
|  4> %base "14-55_DFT_AB"
|  5>
|  6> %scf
|  7> MaxIter 1000
|  8> end
|  9>
| 10> * xyz 0 1
| 11>   C                      -3.823675            4.289136             -8.766144
| 12>   O                      -4.377185            5.267155             -9.559197
| 13>   H                      -4.576584            6.000657             -8.961619
| 14>   H                      -2.831440            4.544331             -8.466993
| 15>   H                      -4.245802            4.234392             -7.782589
| 16>   H                      -3.906820            3.308003             -9.284825
| 17>   C                      -6.434173            0.024591             -8.359033
| 18>   O                      -7.570625            -0.647804            -7.851217
| 19>   H                      -8.348332            -0.035865            -8.046611
| 20>   H                      -6.472714            1.133618             -8.227095
| 21>   H                      -5.556411            -0.407620            -7.961578
| 22>   H                      -6.436764            -0.065187            -9.452756
| 23> *
| 24>
| 25> #Run DFT-D3 single point of the molecule with dimer basis set
| 26> $new_job
| 27> %base "14-55_DFT_A"
| 28> ! wB97X-D3 def2-TZVP TIGHTSCF CHELPG PMODEL
| 29>
| 30> %scf
| 31> MaxIter 1000
| 32> end
| 33>
| 34> * xyz 0 1
| 35>   C                      -3.823675            4.289136             -8.766144
| 36>   O                      -4.377185            5.267155             -9.559197
| 37>   H                      -4.576584            6.000657             -8.961619
| 38>   H                      -2.831440            4.544331             -8.466993
| 39>   H                      -4.245802            4.234392             -7.782589
| 40>   H                      -3.906820            3.308003             -9.284825
| 41>   C                    : -6.434173            0.024591             -8.359033
| 42>   O                    : -7.570625            -0.647804            -7.851217
| 43>   H                    : -8.348332            -0.035865            -8.046611
| 44>   H                    : -6.472714            1.133618             -8.227095
| 45>   H                    : -5.556411            -0.407620            -7.961578
| 46>   H                    : -6.436764            -0.065187            -9.452756
| 47> *
| 48>
| 49> #Run DFT-D3 single point of the particle with dimer basis set
| 50> $new_job
| 51> %base "14-55_DFT_B"
| 52> ! wB97X-D3 def2-TZVP TIGHTSCF CHELPG PMODEL
| 53>
| 54> %scf
| 55> MaxIter 1000
| 56> end
| 57>
| 58> * xyz 0 1
| 59>   C                    : -3.823675            4.289136             -8.766144
| 60>   O                    : -4.377185            5.267155             -9.559197
| 61>   H                    : -4.576584            6.000657             -8.961619
| 62>   H                    : -2.831440            4.544331             -8.466993
| 63>   H                    : -4.245802            4.234392             -7.782589
| 64>   H                    : -3.906820            3.308003             -9.284825
| 65>   C                      -6.434173            0.024591             -8.359033
| 66>   O                      -7.570625            -0.647804            -7.851217
| 67>   H                      -8.348332            -0.035865            -8.046611
| 68>   H                      -6.472714            1.133618             -8.227095
| 69>   H                      -5.556411            -0.407620            -7.961578
| 70>   H                      -6.436764            -0.065187            -9.452756
| 71> *
| 72>
| 73>                          ****END OF INPUT****
 Total Charge           Charge          ....    0
 Multiplicity           Mult            ....    1
 Number of Electrons    NEL             ....   36
Dispersion correction           -0.000760485
FINAL SINGLE POINT ENERGY      -231.461894713540
Dispersion correction           -0.000209828
FINAL SINGLE POINT ENERGY      -115.729998212731

CARTESIAN COORDINATES (ANGSTROEM)
---------------------------------
  C     -3.823675    4.289136   -8.766144
  O     -4.377185    5.267155   -9.559197
  H     -4.576584    6.000657   -8.961619
  H     -2.831440    4.544331   -8.466993
  H     -4.245802    4.234392   -7.782589
  H     -3.906820    3.308003   -9.284825
  C     -6.434173    0.024591   -8.359033
  O     -7.570625   -0.647804   -7.851217
  H     -8.348332   -0.035865   -8.046611
  H     -6.472714    1.133618   -8.227095
  H     -5.556411   -0.407620   -7.961578
  H     -6.436764   -0.065187   -9.452756

 Multiplicity           Mult            ....    1
 Number of Electrons    NEL             ....   18
 Basis Dimension        Dim             ....  172

ORBITAL ENERGIES
----------------

  NO   OCC          E(Eh)            E(eV)
   0   2.0000     -19.234291      -523.3917
   1   2.0000     -10.311490      -280.5899
   2   2.0000      -1.128910       -30.7192
   3   2.0000      -0.791236       -21.5306
   4   2.0000      -0.608352       -16.5541
   5   2.0000      -0.536148       -14.5893
   6   2.0000      -0.526566       -14.3286
   7   2.0000      -0.442099       -12.0301
   8   2.0000      -0.367537       -10.0012
   9   0.0000       0.081236         2.2105
  10   0.0000       0.107736         2.9316
  11   0.0000       0.140674         3.8279
  12   0.0000       0.174612         4.7514
  13   0.0000       0.185507         5.0479

MULLIKEN ATOMIC CHARGES
-----------------------
   0 C :    0.000036
   1 O :   -0.000001
   2 H :   -0.000001
   3 H :   -0.000021
   4 H :   -0.000148
   5 H :   -0.000089
   6 C :   -0.170836
   7 O :   -0.470810
   8 H :    0.316020
   9 H :    0.101942
  10 H :    0.122901
  11 H :    0.101008
Sum of atomic charges:    0.0000000

LOEWDIN ATOMIC CHARGES
----------------------
   0 C :   -0.000335
   1 O :   -0.000004
   2 H :   -0.000000
   3 H :   -0.000003
   4 H :   -0.000096
   5 H :   -0.000208
   6 C :   -0.389668
   7 O :   -0.099102
   8 H :    0.197814
   9 H :    0.098450
  10 H :    0.098603
  11 H :    0.094550

  Mayer bond orders larger than 0.1
B(  6-C ,  7-O ) :   1.0012 B(  6-C ,  9-H ) :   0.9774 B(  6-C , 10-H ) :   0.9732
B(  6-C , 11-H ) :   0.9774 B(  7-O ,  8-H ) :   0.8949

Dispersion correction           -0.000230843
FINAL SINGLE POINT ENERGY      -115.731437372046

DIPOLE MOMENT
-------------
                                X             Y             Z
Electronic contribution:     -1.26718      -1.05403       0.83873
Nuclear contribution   :      1.23784       1.68655      -1.15425
                        -----------------------------------------
Total Dipole Moment    :     -0.02935       0.63253      -0.31552
                        -----------------------------------------
Magnitude (a.u.)       :      0.70746
Magnitude (Debye)      :      1.79822

Rotational constants in cm-1:     4.186332     0.839760     0.796696
Rotational constants in MHz : 125503.076854 25175.366414 23884.352421

                             ****ORCA TERMINATED NORMALLY****
TOTAL RUN TIME: 0 days 0 hours 0 minutes 59 seconds 656 msec
