                         Program Version 4.1.2  - RELEASE  -
|  1> #Run DFT-D3 single point of the dimer
|  2> ! wB97X-D3 def2-TZVP TIGHTSCF CHELPG PMODEL PAL8
|  3>
|  4> %base "18-141_DFT_AB"
|  5>
|  6> %scf
|  7> MaxIter 1000
|  8> end
|  9>
| 10> * xyz 0 1
| 11>   C                      2.523888             4.676657             7.090738
| 12>   O                      2.566897             6.070124             6.773619
| 13>   H                      1.949694             6.599378             7.303895
| 14>   H                      3.367195             4.206097             6.586594
| 15>   H                      2.634672             4.644139             8.164876
| 16>   H                      1.636308             4.135860             6.734283
| 17>   C                      -1.190788            1.142633             6.654220
| 18>   O                      -0.403871            2.277754             7.020789
| 19>   H                      -0.822837            2.627458             7.820886
| 20>   H                      -1.397813            0.506782             7.600173
| 21>   H                      -2.133651            1.325674             6.184751
| 22>   H                      -0.679551            0.528703             5.928469
| 23> *
| 24>
| 25> #Run DFT-D3 single point of the molecule with dimer basis set
| 26> $new_job
| 27> %base "18-141_DFT_A"
| 28> ! wB97X-D3 def2-TZVP TIGHTSCF CHELPG PMODEL
| 29>
| 30> %scf
| 31> MaxIter 1000
| 32> end
| 33>
| 34> * xyz 0 1
| 35>   C                      2.523888             4.676657             7.090738
| 36>   O                      2.566897             6.070124             6.773619
| 37>   H                      1.949694             6.599378             7.303895
| 38>   H                      3.367195             4.206097             6.586594
| 39>   H                      2.634672             4.644139             8.164876
| 40>   H                      1.636308             4.135860             6.734283
| 41>   C                    : -1.190788            1.142633             6.654220
| 42>   O                    : -0.403871            2.277754             7.020789
| 43>   H                    : -0.822837            2.627458             7.820886
| 44>   H                    : -1.397813            0.506782             7.600173
| 45>   H                    : -2.133651            1.325674             6.184751
| 46>   H                    : -0.679551            0.528703             5.928469
| 47> *
| 48>
| 49> #Run DFT-D3 single point of the particle with dimer basis set
| 50> $new_job
| 51> %base "18-141_DFT_B"
| 52> ! wB97X-D3 def2-TZVP TIGHTSCF CHELPG PMODEL
| 53>
| 54> %scf
| 55> MaxIter 1000
| 56> end
| 57>
| 58> * xyz 0 1
| 59>   C                    : 2.523888             4.676657             7.090738
| 60>   O                    : 2.566897             6.070124             6.773619
| 61>   H                    : 1.949694             6.599378             7.303895
| 62>   H                    : 3.367195             4.206097             6.586594
| 63>   H                    : 2.634672             4.644139             8.164876
| 64>   H                    : 1.636308             4.135860             6.734283
| 65>   C                      -1.190788            1.142633             6.654220
| 66>   O                      -0.403871            2.277754             7.020789
| 67>   H                      -0.822837            2.627458             7.820886
| 68>   H                      -1.397813            0.506782             7.600173
| 69>   H                      -2.133651            1.325674             6.184751
| 70>   H                      -0.679551            0.528703             5.928469
| 71> *
| 72>
| 73>                          ****END OF INPUT****
 Total Charge           Charge          ....    0
 Multiplicity           Mult            ....    1
 Number of Electrons    NEL             ....   36
Dispersion correction           -0.001126317
FINAL SINGLE POINT ENERGY      -231.467014754946
Dispersion correction           -0.000249218
FINAL SINGLE POINT ENERGY      -115.733646375597

CARTESIAN COORDINATES (ANGSTROEM)
---------------------------------
  C      2.523888    4.676657    7.090738
  O      2.566897    6.070124    6.773619
  H      1.949694    6.599378    7.303895
  H      3.367195    4.206097    6.586594
  H      2.634672    4.644139    8.164876
  H      1.636308    4.135860    6.734283
  C     -1.190788    1.142633    6.654220
  O     -0.403871    2.277754    7.020789
  H     -0.822837    2.627458    7.820886
  H     -1.397813    0.506782    7.600173
  H     -2.133651    1.325674    6.184751
  H     -0.679551    0.528703    5.928469

 Multiplicity           Mult            ....    1
 Number of Electrons    NEL             ....   18
 Basis Dimension        Dim             ....  172

ORBITAL ENERGIES
----------------

  NO   OCC          E(Eh)            E(eV)
   0   2.0000     -19.235374      -523.4211
   1   2.0000     -10.317783      -280.7611
   2   2.0000      -1.133594       -30.8467
   3   2.0000      -0.795519       -21.6472
   4   2.0000      -0.607190       -16.5225
   5   2.0000      -0.538867       -14.6633
   6   2.0000      -0.526495       -14.3266
   7   2.0000      -0.437034       -11.8923
   8   2.0000      -0.375566       -10.2197
   9   0.0000       0.095190         2.5902
  10   0.0000       0.117015         3.1841
  11   0.0000       0.151227         4.1151
  12   0.0000       0.174504         4.7485
  13   0.0000       0.197016         5.3611

MULLIKEN ATOMIC CHARGES
-----------------------
   0 C :    0.001326
   1 O :   -0.000014
   2 H :   -0.000014
   3 H :   -0.000139
   4 H :   -0.000156
   5 H :   -0.007162
   6 C :   -0.177840
   7 O :   -0.459819
   8 H :    0.316631
   9 H :    0.097842
  10 H :    0.106638
  11 H :    0.122708
Sum of atomic charges:   -0.0000000

LOEWDIN ATOMIC CHARGES
----------------------
   0 C :   -0.002550
   1 O :   -0.000027
   2 H :   -0.000002
   3 H :   -0.000024
   4 H :   -0.000074
   5 H :   -0.006826
   6 C :   -0.381985
   7 O :   -0.082511
   8 H :    0.175750
   9 H :    0.106523
  10 H :    0.087766
  11 H :    0.103960

  Mayer bond orders larger than 0.1
B(  6-C ,  7-O ) :   1.0029 B(  6-C ,  9-H ) :   0.9814 B(  6-C , 10-H ) :   0.9641
B(  6-C , 11-H ) :   0.9775 B(  7-O ,  8-H ) :   0.8976

Dispersion correction           -0.000254609
FINAL SINGLE POINT ENERGY      -115.732060818534

DIPOLE MOMENT
-------------
                                X             Y             Z
Electronic contribution:      1.11358       1.54227       0.26177
Nuclear contribution   :     -1.69056      -1.77587       0.06780
                        -----------------------------------------
Total Dipole Moment    :     -0.57698      -0.23360       0.32957
                        -----------------------------------------
Magnitude (a.u.)       :      0.70434
Magnitude (Debye)      :      1.79028

Rotational constants in cm-1:     4.276742     0.814289     0.779737
Rotational constants in MHz : 128213.489064 24411.765141 23375.920549

                             ****ORCA TERMINATED NORMALLY****
TOTAL RUN TIME: 0 days 0 hours 0 minutes 53 seconds 405 msec
