                         Program Version 4.1.2  - RELEASE  -
|  1> #Run DFT-D3 single point of the dimer
|  2> ! wB97X-D3 def2-TZVP TIGHTSCF CHELPG PMODEL PAL8
|  3>
|  4> %base "10-97_DFT_AB"
|  5>
|  6> %scf
|  7> MaxIter 1000
|  8> end
|  9>
| 10> * xyz 0 1
| 11>   C                      -6.546840            0.074704             9.038280
| 12>   O                      -6.336000            1.429750             8.808845
| 13>   H                      -5.428613            1.515341             8.559811
| 14>   H                      -7.109638            -0.391232            8.240486
| 15>   H                      -5.589320            -0.496312            9.039589
| 16>   H                      -7.081118            -0.070553            9.995042
| 17>   C                      -3.238889            4.918494             7.898113
| 18>   O                      -4.165077            3.808282             7.721132
| 19>   H                      -4.247115            3.385438             8.589834
| 20>   H                      -3.174638            5.307419             8.953087
| 21>   H                      -2.318098            4.611922             7.595619
| 22>   H                      -3.522041            5.704634             7.272271
| 23> *
| 24>
| 25> #Run DFT-D3 single point of the molecule with dimer basis set
| 26> $new_job
| 27> %base "10-97_DFT_A"
| 28> ! wB97X-D3 def2-TZVP TIGHTSCF CHELPG PMODEL
| 29>
| 30> %scf
| 31> MaxIter 1000
| 32> end
| 33>
| 34> * xyz 0 1
| 35>   C                      -6.546840            0.074704             9.038280
| 36>   O                      -6.336000            1.429750             8.808845
| 37>   H                      -5.428613            1.515341             8.559811
| 38>   H                      -7.109638            -0.391232            8.240486
| 39>   H                      -5.589320            -0.496312            9.039589
| 40>   H                      -7.081118            -0.070553            9.995042
| 41>   C                    : -3.238889            4.918494             7.898113
| 42>   O                    : -4.165077            3.808282             7.721132
| 43>   H                    : -4.247115            3.385438             8.589834
| 44>   H                    : -3.174638            5.307419             8.953087
| 45>   H                    : -2.318098            4.611922             7.595619
| 46>   H                    : -3.522041            5.704634             7.272271
| 47> *
| 48>
| 49> #Run DFT-D3 single point of the particle with dimer basis set
| 50> $new_job
| 51> %base "10-97_DFT_B"
| 52> ! wB97X-D3 def2-TZVP TIGHTSCF CHELPG PMODEL
| 53>
| 54> %scf
| 55> MaxIter 1000
| 56> end
| 57>
| 58> * xyz 0 1
| 59>   C                    : -6.546840            0.074704             9.038280
| 60>   O                    : -6.336000            1.429750             8.808845
| 61>   H                    : -5.428613            1.515341             8.559811
| 62>   H                    : -7.109638            -0.391232            8.240486
| 63>   H                    : -5.589320            -0.496312            9.039589
| 64>   H                    : -7.081118            -0.070553            9.995042
| 65>   C                      -3.238889            4.918494             7.898113
| 66>   O                      -4.165077            3.808282             7.721132
| 67>   H                      -4.247115            3.385438             8.589834
| 68>   H                      -3.174638            5.307419             8.953087
| 69>   H                      -2.318098            4.611922             7.595619
| 70>   H                      -3.522041            5.704634             7.272271
| 71> *
| 72>
| 73>                          ****END OF INPUT****
 Total Charge           Charge          ....    0
 Multiplicity           Mult            ....    1
 Number of Electrons    NEL             ....   36
Dispersion correction           -0.001168063
FINAL SINGLE POINT ENERGY      -231.462574184041
Dispersion correction           -0.000234363
FINAL SINGLE POINT ENERGY      -115.734291064768

CARTESIAN COORDINATES (ANGSTROEM)
---------------------------------
  C     -6.546840    0.074704    9.038280
  O     -6.336000    1.429750    8.808845
  H     -5.428613    1.515341    8.559811
  H     -7.109638   -0.391232    8.240486
  H     -5.589320   -0.496312    9.039589
  H     -7.081118   -0.070553    9.995042
  C     -3.238889    4.918494    7.898113
  O     -4.165077    3.808282    7.721132
  H     -4.247115    3.385438    8.589834
  H     -3.174638    5.307419    8.953087
  H     -2.318098    4.611922    7.595619
  H     -3.522041    5.704634    7.272271

 Multiplicity           Mult            ....    1
 Number of Electrons    NEL             ....   18
 Basis Dimension        Dim             ....  172

ORBITAL ENERGIES
----------------

  NO   OCC          E(Eh)            E(eV)
   0   2.0000     -19.229372      -523.2578
   1   2.0000     -10.305560      -280.4285
   2   2.0000      -1.121524       -30.5182
   3   2.0000      -0.805011       -21.9055
   4   2.0000      -0.599728       -16.3194
   5   2.0000      -0.546703       -14.8766
   6   2.0000      -0.524248       -14.2655
   7   2.0000      -0.439854       -11.9690
   8   2.0000      -0.375161       -10.2087
   9   0.0000       0.086295         2.3482
  10   0.0000       0.118487         3.2242
  11   0.0000       0.149521         4.0687
  12   0.0000       0.194146         5.2830
  13   0.0000       0.197776         5.3818

MULLIKEN ATOMIC CHARGES
-----------------------
   0 C :    0.000121
   1 O :   -0.000582
   2 H :   -0.002663
   3 H :   -0.000007
   4 H :   -0.000031
   5 H :   -0.000000
   6 C :   -0.175166
   7 O :   -0.477854
   8 H :    0.315960
   9 H :    0.103988
  10 H :    0.113836
  11 H :    0.122397
Sum of atomic charges:   -0.0000000

LOEWDIN ATOMIC CHARGES
----------------------
   0 C :   -0.000099
   1 O :   -0.001382
   2 H :   -0.005320
   3 H :   -0.000002
   4 H :   -0.000004
   5 H :   -0.000001
   6 C :   -0.339074
   7 O :   -0.108693
   8 H :    0.172965
   9 H :    0.105658
  10 H :    0.080118
  11 H :    0.095833

  Mayer bond orders larger than 0.1
B(  6-C ,  7-O ) :   1.0021 B(  6-C ,  9-H ) :   0.9814 B(  6-C , 10-H ) :   0.9801
B(  6-C , 11-H ) :   0.9772 B(  7-O ,  8-H ) :   0.8991

Dispersion correction           -0.000248258
FINAL SINGLE POINT ENERGY      -115.728775183140

DIPOLE MOMENT
-------------
                                X             Y             Z
Electronic contribution:     -1.12311      -1.30962      -0.39723
Nuclear contribution   :      1.47752       1.52735       1.00109
                        -----------------------------------------
Total Dipole Moment    :      0.35441       0.21773       0.60386
                        -----------------------------------------
Magnitude (a.u.)       :      0.73326
Magnitude (Debye)      :      1.86379

Rotational constants in cm-1:     4.447383     0.803415     0.767406
Rotational constants in MHz : 133329.197774 24085.770315 23006.261859

                             ****ORCA TERMINATED NORMALLY****
TOTAL RUN TIME: 0 days 0 hours 0 minutes 58 seconds 469 msec
