                         Program Version 4.1.2  - RELEASE  -
|  1> #Run DFT-D3 single point of the dimer
|  2> ! wB97X-D3 def2-TZVP TIGHTSCF CHELPG PMODEL PAL8
|  3>
|  4> %base "5-160_DFT_AB"
|  5>
|  6> %scf
|  7> MaxIter 1000
|  8> end
|  9>
| 10> * xyz 0 1
| 11>   C                      -2.746981            -10.165839           4.191200
| 12>   O                      -3.048148            -11.236684           3.376958
| 13>   H                      -3.689760            -10.933665           2.729849
| 14>   H                      -1.646971            -9.973468            4.337059
| 15>   H                      -3.318697            -9.308263            3.870905
| 16>   H                      -3.193690            -10.319030           5.147980
| 17>   C                      -1.371837            -10.736313           0.244261
| 18>   O                      -0.558263            -11.186167           1.430407
| 19>   H                      -1.072691            -11.807029           1.918675
| 20>   H                      -2.470676            -10.567998           0.454982
| 21>   H                      -0.970770            -9.759117            -0.126589
| 22>   H                      -1.371345            -11.470152           -0.581594
| 23> *
| 24>
| 25> #Run DFT-D3 single point of the molecule with dimer basis set
| 26> $new_job
| 27> %base "5-160_DFT_A"
| 28> ! wB97X-D3 def2-TZVP TIGHTSCF CHELPG PMODEL
| 29>
| 30> %scf
| 31> MaxIter 1000
| 32> end
| 33>
| 34> * xyz 0 1
| 35>   C                      -2.746981            -10.165839           4.191200
| 36>   O                      -3.048148            -11.236684           3.376958
| 37>   H                      -3.689760            -10.933665           2.729849
| 38>   H                      -1.646971            -9.973468            4.337059
| 39>   H                      -3.318697            -9.308263            3.870905
| 40>   H                      -3.193690            -10.319030           5.147980
| 41>   C                    : -1.371837            -10.736313           0.244261
| 42>   O                    : -0.558263            -11.186167           1.430407
| 43>   H                    : -1.072691            -11.807029           1.918675
| 44>   H                    : -2.470676            -10.567998           0.454982
| 45>   H                    : -0.970770            -9.759117            -0.126589
| 46>   H                    : -1.371345            -11.470152           -0.581594
| 47> *
| 48>
| 49> #Run DFT-D3 single point of the particle with dimer basis set
| 50> $new_job
| 51> %base "5-160_DFT_B"
| 52> ! wB97X-D3 def2-TZVP TIGHTSCF CHELPG PMODEL
| 53>
| 54> %scf
| 55> MaxIter 1000
| 56> end
| 57>
| 58> * xyz 0 1
| 59>   C                    : -2.746981            -10.165839           4.191200
| 60>   O                    : -3.048148            -11.236684           3.376958
| 61>   H                    : -3.689760            -10.933665           2.729849
| 62>   H                    : -1.646971            -9.973468            4.337059
| 63>   H                    : -3.318697            -9.308263            3.870905
| 64>   H                    : -3.193690            -10.319030           5.147980
| 65>   C                      -1.371837            -10.736313           0.244261
| 66>   O                      -0.558263            -11.186167           1.430407
| 67>   H                      -1.072691            -11.807029           1.918675
| 68>   H                      -2.470676            -10.567998           0.454982
| 69>   H                      -0.970770            -9.759117            -0.126589
| 70>   H                      -1.371345            -11.470152           -0.581594
| 71> *
| 72>
| 73>                          ****END OF INPUT****
 Total Charge           Charge          ....    0
 Multiplicity           Mult            ....    1
 Number of Electrons    NEL             ....   36
Dispersion correction           -0.002096237
FINAL SINGLE POINT ENERGY      -231.463430379559
Dispersion correction           -0.000225960
FINAL SINGLE POINT ENERGY      -115.729576013153

CARTESIAN COORDINATES (ANGSTROEM)
---------------------------------
  C     -2.746981  -10.165839    4.191200
  O     -3.048148  -11.236684    3.376958
  H     -3.689760  -10.933665    2.729849
  H     -1.646971   -9.973468    4.337059
  H     -3.318697   -9.308263    3.870905
  H     -3.193690  -10.319030    5.147980
  C     -1.371837  -10.736313    0.244261
  O     -0.558263  -11.186167    1.430407
  H     -1.072691  -11.807029    1.918675
  H     -2.470676  -10.567998    0.454982
  H     -0.970770   -9.759117   -0.126589
  H     -1.371345  -11.470152   -0.581594

 Multiplicity           Mult            ....    1
 Number of Electrons    NEL             ....   18
 Basis Dimension        Dim             ....  172

ORBITAL ENERGIES
----------------

  NO   OCC          E(Eh)            E(eV)
   0   2.0000     -19.233486      -523.3698
   1   2.0000     -10.331211      -281.1266
   2   2.0000      -1.116637       -30.3852
   3   2.0000      -0.796845       -21.6833
   4   2.0000      -0.599447       -16.3118
   5   2.0000      -0.527490       -14.3537
   6   2.0000      -0.512911       -13.9570
   7   2.0000      -0.442480       -12.0405
   8   2.0000      -0.379665       -10.3312
   9   0.0000       0.079699         2.1687
  10   0.0000       0.132078         3.5940
  11   0.0000       0.138027         3.7559
  12   0.0000       0.169871         4.6224
  13   0.0000       0.191105         5.2002

MULLIKEN ATOMIC CHARGES
-----------------------
   0 C :   -0.002801
   1 O :   -0.002831
   2 H :    0.000026
   3 H :   -0.002708
   4 H :    0.000103
   5 H :   -0.000172
   6 C :   -0.186606
   7 O :   -0.475268
   8 H :    0.311428
   9 H :    0.113453
  10 H :    0.126992
  11 H :    0.118385
Sum of atomic charges:    0.0000000

LOEWDIN ATOMIC CHARGES
----------------------
   0 C :   -0.005185
   1 O :   -0.005457
   2 H :   -0.002443
   3 H :   -0.002093
   4 H :   -0.000081
   5 H :   -0.000102
   6 C :   -0.332775
   7 O :   -0.117280
   8 H :    0.149193
   9 H :    0.104163
  10 H :    0.113747
  11 H :    0.098313

  Mayer bond orders larger than 0.1
B(  6-C ,  7-O ) :   0.9898 B(  6-C ,  9-H ) :   0.9678 B(  6-C , 10-H ) :   0.9742
B(  6-C , 11-H ) :   0.9701 B(  7-O ,  8-H ) :   0.9065

Dispersion correction           -0.000312828
FINAL SINGLE POINT ENERGY      -115.729642045853

DIPOLE MOMENT
-------------
                                X             Y             Z
Electronic contribution:      1.16127      -0.49263       1.42763
Nuclear contribution   :     -1.84476       0.29941      -1.64951
                        -----------------------------------------
Total Dipole Moment    :     -0.68349      -0.19323      -0.22188
                        -----------------------------------------
Magnitude (a.u.)       :      0.74413
Magnitude (Debye)      :      1.89143

Rotational constants in cm-1:     4.237221     0.738591     0.713096
Rotational constants in MHz : 127028.701076 22142.396765 21378.091120

                             ****ORCA TERMINATED NORMALLY****
TOTAL RUN TIME: 0 days 0 hours 0 minutes 57 seconds 83 msec
