                         Program Version 4.1.2  - RELEASE  -
|  1> #Run DFT-D3 single point of the dimer
|  2> ! wB97X-D3 def2-TZVP TIGHTSCF CHELPG PMODEL PAL8
|  3>
|  4> %base "10-58_DFT_AB"
|  5>
|  6> %scf
|  7> MaxIter 1000
|  8> end
|  9>
| 10> * xyz 0 1
| 11>   C                      -11.310636           -6.749428            -0.716338
| 12>   O                      -10.161018           -6.596171            0.174576
| 13>   H                      -10.318668           -6.843313            1.117006
| 14>   H                      -11.063202           -6.918290            -1.771602
| 15>   H                      -11.690728           -7.749996            -0.577357
| 16>   H                      -12.139721           -6.115864            -0.581882
| 17>   C                      -8.729305            -8.214980            -3.029853
| 18>   O                      -8.095846            -7.329674            -2.136110
| 19>   H                      -8.783612            -7.055352            -1.455014
| 20>   H                      -9.086881            -9.162493            -2.596128
| 21>   H                      -9.593081            -7.776695            -3.531411
| 22>   H                      -7.946672            -8.537519            -3.705466
| 23> *
| 24>
| 25> #Run DFT-D3 single point of the molecule with dimer basis set
| 26> $new_job
| 27> %base "10-58_DFT_A"
| 28> ! wB97X-D3 def2-TZVP TIGHTSCF CHELPG PMODEL
| 29>
| 30> %scf
| 31> MaxIter 1000
| 32> end
| 33>
| 34> * xyz 0 1
| 35>   C                      -11.310636           -6.749428            -0.716338
| 36>   O                      -10.161018           -6.596171            0.174576
| 37>   H                      -10.318668           -6.843313            1.117006
| 38>   H                      -11.063202           -6.918290            -1.771602
| 39>   H                      -11.690728           -7.749996            -0.577357
| 40>   H                      -12.139721           -6.115864            -0.581882
| 41>   C                    : -8.729305            -8.214980            -3.029853
| 42>   O                    : -8.095846            -7.329674            -2.136110
| 43>   H                    : -8.783612            -7.055352            -1.455014
| 44>   H                    : -9.086881            -9.162493            -2.596128
| 45>   H                    : -9.593081            -7.776695            -3.531411
| 46>   H                    : -7.946672            -8.537519            -3.705466
| 47> *
| 48>
| 49> #Run DFT-D3 single point of the particle with dimer basis set
| 50> $new_job
| 51> %base "10-58_DFT_B"
| 52> ! wB97X-D3 def2-TZVP TIGHTSCF CHELPG PMODEL
| 53>
| 54> %scf
| 55> MaxIter 1000
| 56> end
| 57>
| 58> * xyz 0 1
| 59>   C                    : -11.310636           -6.749428            -0.716338
| 60>   O                    : -10.161018           -6.596171            0.174576
| 61>   H                    : -10.318668           -6.843313            1.117006
| 62>   H                    : -11.063202           -6.918290            -1.771602
| 63>   H                    : -11.690728           -7.749996            -0.577357
| 64>   H                    : -12.139721           -6.115864            -0.581882
| 65>   C                      -8.729305            -8.214980            -3.029853
| 66>   O                      -8.095846            -7.329674            -2.136110
| 67>   H                      -8.783612            -7.055352            -1.455014
| 68>   H                      -9.086881            -9.162493            -2.596128
| 69>   H                      -9.593081            -7.776695            -3.531411
| 70>   H                      -7.946672            -8.537519            -3.705466
| 71> *
| 72>
| 73>                          ****END OF INPUT****
 Total Charge           Charge          ....    0
 Multiplicity           Mult            ....    1
 Number of Electrons    NEL             ....   36
Dispersion correction           -0.002081612
FINAL SINGLE POINT ENERGY      -231.461565362813
Dispersion correction           -0.000286331
FINAL SINGLE POINT ENERGY      -115.721213211192

CARTESIAN COORDINATES (ANGSTROEM)
---------------------------------
  C    -11.310636   -6.749428   -0.716338
  O    -10.161018   -6.596171    0.174576
  H    -10.318668   -6.843313    1.117006
  H    -11.063202   -6.918290   -1.771602
  H    -11.690728   -7.749996   -0.577357
  H    -12.139721   -6.115864   -0.581882
  C     -8.729305   -8.214980   -3.029853
  O     -8.095846   -7.329674   -2.136110
  H     -8.783612   -7.055352   -1.455014
  H     -9.086881   -9.162493   -2.596128
  H     -9.593081   -7.776695   -3.531411
  H     -7.946672   -8.537519   -3.705466

 Multiplicity           Mult            ....    1
 Number of Electrons    NEL             ....   18
 Basis Dimension        Dim             ....  172

ORBITAL ENERGIES
----------------

  NO   OCC          E(Eh)            E(eV)
   0   2.0000     -19.236626      -523.4552
   1   2.0000     -10.310767      -280.5702
   2   2.0000      -1.131310       -30.7845
   3   2.0000      -0.792171       -21.5561
   4   2.0000      -0.610778       -16.6201
   5   2.0000      -0.541784       -14.7427
   6   2.0000      -0.519507       -14.1365
   7   2.0000      -0.436981       -11.8909
   8   2.0000      -0.373008       -10.1501
   9   0.0000       0.066316         1.8045
  10   0.0000       0.138121         3.7585
  11   0.0000       0.142513         3.8780
  12   0.0000       0.165636         4.5072
  13   0.0000       0.189601         5.1593

MULLIKEN ATOMIC CHARGES
-----------------------
   0 C :   -0.005799
   1 O :    0.001156
   2 H :    0.000071
   3 H :    0.000757
   4 H :    0.000196
   5 H :   -0.000135
   6 C :   -0.170115
   7 O :   -0.465948
   8 H :    0.311757
   9 H :    0.095652
  10 H :    0.103813
  11 H :    0.128595
Sum of atomic charges:    0.0000000

LOEWDIN ATOMIC CHARGES
----------------------
   0 C :   -0.008934
   1 O :   -0.009850
   2 H :   -0.000489
   3 H :   -0.004520
   4 H :   -0.000204
   5 H :   -0.000134
   6 C :   -0.395934
   7 O :   -0.079997
   8 H :    0.201788
   9 H :    0.094043
  10 H :    0.094495
  11 H :    0.109736

  Mayer bond orders larger than 0.1
B(  6-C ,  7-O ) :   0.9975 B(  6-C ,  9-H ) :   0.9712 B(  6-C , 10-H ) :   0.9741
B(  6-C , 11-H ) :   0.9762 B(  7-O ,  8-H ) :   0.9046

Dispersion correction           -0.000247865
FINAL SINGLE POINT ENERGY      -115.733911383441

DIPOLE MOMENT
-------------
                                X             Y             Z
Electronic contribution:      0.93499       1.20199       1.05960
Nuclear contribution   :     -1.58638      -1.38358      -0.98660
                        -----------------------------------------
Total Dipole Moment    :     -0.65139      -0.18159       0.07300
                        -----------------------------------------
Magnitude (a.u.)       :      0.68015
Magnitude (Debye)      :      1.72881

Rotational constants in cm-1:     4.251617     0.836514     0.799893
Rotational constants in MHz : 127460.262807 25078.047631 23980.195230

                             ****ORCA TERMINATED NORMALLY****
TOTAL RUN TIME: 0 days 0 hours 1 minutes 7 seconds 442 msec
