                         Program Version 4.1.2  - RELEASE  -
|  1> #Run DFT-D3 single point of the dimer
|  2> ! wB97X-D3 def2-TZVP TIGHTSCF CHELPG PMODEL PAL8
|  3>
|  4> %base "4-13_DFT_AB"
|  5>
|  6> %scf
|  7> MaxIter 1000
|  8> end
|  9>
| 10> * xyz 0 1
| 11>   C                      -3.440480            1.608124             -5.363870
| 12>   O                      -4.023051            1.698251             -6.686188
| 13>   H                      -4.350094            0.892071             -7.073146
| 14>   H                      -4.299878            1.217766             -4.707092
| 15>   H                      -2.598717            0.960056             -5.139841
| 16>   H                      -3.210669            2.597576             -4.898620
| 17>   C                      -1.147492            3.743506             -2.228677
| 18>   O                      0.200681             3.673665             -2.581685
| 19>   H                      0.540439             2.919515             -2.077761
| 20>   H                      -1.804265            3.497695             -3.027114
| 21>   H                      -1.435991            3.054462             -1.455102
| 22>   H                      -1.408073            4.745602             -1.913649
| 23> *
| 24>
| 25> #Run DFT-D3 single point of the molecule with dimer basis set
| 26> $new_job
| 27> %base "4-13_DFT_A"
| 28> ! wB97X-D3 def2-TZVP TIGHTSCF CHELPG PMODEL
| 29>
| 30> %scf
| 31> MaxIter 1000
| 32> end
| 33>
| 34> * xyz 0 1
| 35>   C                      -3.440480            1.608124             -5.363870
| 36>   O                      -4.023051            1.698251             -6.686188
| 37>   H                      -4.350094            0.892071             -7.073146
| 38>   H                      -4.299878            1.217766             -4.707092
| 39>   H                      -2.598717            0.960056             -5.139841
| 40>   H                      -3.210669            2.597576             -4.898620
| 41>   C                    : -1.147492            3.743506             -2.228677
| 42>   O                    : 0.200681             3.673665             -2.581685
| 43>   H                    : 0.540439             2.919515             -2.077761
| 44>   H                    : -1.804265            3.497695             -3.027114
| 45>   H                    : -1.435991            3.054462             -1.455102
| 46>   H                    : -1.408073            4.745602             -1.913649
| 47> *
| 48>
| 49> #Run DFT-D3 single point of the particle with dimer basis set
| 50> $new_job
| 51> %base "4-13_DFT_B"
| 52> ! wB97X-D3 def2-TZVP TIGHTSCF CHELPG PMODEL
| 53>
| 54> %scf
| 55> MaxIter 1000
| 56> end
| 57>
| 58> * xyz 0 1
| 59>   C                    : -3.440480            1.608124             -5.363870
| 60>   O                    : -4.023051            1.698251             -6.686188
| 61>   H                    : -4.350094            0.892071             -7.073146
| 62>   H                    : -4.299878            1.217766             -4.707092
| 63>   H                    : -2.598717            0.960056             -5.139841
| 64>   H                    : -3.210669            2.597576             -4.898620
| 65>   C                      -1.147492            3.743506             -2.228677
| 66>   O                      0.200681             3.673665             -2.581685
| 67>   H                      0.540439             2.919515             -2.077761
| 68>   H                      -1.804265            3.497695             -3.027114
| 69>   H                      -1.435991            3.054462             -1.455102
| 70>   H                      -1.408073            4.745602             -1.913649
| 71> *
| 72>
| 73>                          ****END OF INPUT****
 Total Charge           Charge          ....    0
 Multiplicity           Mult            ....    1
 Number of Electrons    NEL             ....   36
Dispersion correction           -0.001139099
FINAL SINGLE POINT ENERGY      -231.457437184161
Dispersion correction           -0.000299515
FINAL SINGLE POINT ENERGY      -115.724208789887

CARTESIAN COORDINATES (ANGSTROEM)
---------------------------------
  C     -3.440480    1.608124   -5.363870
  O     -4.023051    1.698251   -6.686188
  H     -4.350094    0.892071   -7.073146
  H     -4.299878    1.217766   -4.707092
  H     -2.598717    0.960056   -5.139841
  H     -3.210669    2.597576   -4.898620
  C     -1.147492    3.743506   -2.228677
  O      0.200681    3.673665   -2.581685
  H      0.540439    2.919515   -2.077761
  H     -1.804265    3.497695   -3.027114
  H     -1.435991    3.054462   -1.455102
  H     -1.408073    4.745602   -1.913649

 Multiplicity           Mult            ....    1
 Number of Electrons    NEL             ....   18
 Basis Dimension        Dim             ....  172

ORBITAL ENERGIES
----------------

  NO   OCC          E(Eh)            E(eV)
   0   2.0000     -19.232308      -523.3377
   1   2.0000     -10.303931      -280.3842
   2   2.0000      -1.143002       -31.1027
   3   2.0000      -0.798190       -21.7199
   4   2.0000      -0.618062       -16.8183
   5   2.0000      -0.542282       -14.7563
   6   2.0000      -0.530839       -14.4449
   7   2.0000      -0.438756       -11.9392
   8   2.0000      -0.372878       -10.1465
   9   0.0000       0.085108         2.3159
  10   0.0000       0.113639         3.0923
  11   0.0000       0.148859         4.0506
  12   0.0000       0.174982         4.7615
  13   0.0000       0.193220         5.2578

MULLIKEN ATOMIC CHARGES
-----------------------
   0 C :   -0.001845
   1 O :    0.000064
   2 H :    0.000005
   3 H :    0.000210
   4 H :    0.000126
   5 H :    0.003009
   6 C :   -0.170878
   7 O :   -0.463849
   8 H :    0.318972
   9 H :    0.104004
  10 H :    0.104218
  11 H :    0.105964
Sum of atomic charges:   -0.0000000

LOEWDIN ATOMIC CHARGES
----------------------
   0 C :   -0.001679
   1 O :   -0.000010
   2 H :   -0.000002
   3 H :   -0.000027
   4 H :   -0.000086
   5 H :   -0.003429
   6 C :   -0.397064
   7 O :   -0.064170
   8 H :    0.179658
   9 H :    0.093221
  10 H :    0.094144
  11 H :    0.099444

  Mayer bond orders larger than 0.1
B(  6-C ,  7-O ) :   1.0234 B(  6-C ,  9-H ) :   0.9690 B(  6-C , 10-H ) :   0.9904
B(  6-C , 11-H ) :   0.9822 B(  7-O ,  8-H ) :   0.8999

Dispersion correction           -0.000232665
FINAL SINGLE POINT ENERGY      -115.733033632870

DIPOLE MOMENT
-------------
                                X             Y             Z
Electronic contribution:      1.81628       0.01740      -0.55585
Nuclear contribution   :     -2.12105      -0.48993       1.02038
                        -----------------------------------------
Total Dipole Moment    :     -0.30477      -0.47253       0.46453
                        -----------------------------------------
Magnitude (a.u.)       :      0.72936
Magnitude (Debye)      :      1.85388

Rotational constants in cm-1:     4.459147     0.853180     0.817622
Rotational constants in MHz : 133681.863805 25577.682497 24511.684027

                             ****ORCA TERMINATED NORMALLY****
TOTAL RUN TIME: 0 days 0 hours 1 minutes 28 seconds 91 msec
