                         Program Version 4.1.2  - RELEASE  -
|  1> #Run DFT-D3 single point of the dimer
|  2> ! wB97X-D3 def2-TZVP TIGHTSCF CHELPG PMODEL PAL8
|  3>
|  4> %base "8-89_DFT_AB"
|  5>
|  6> %scf
|  7> MaxIter 1000
|  8> end
|  9>
| 10> * xyz 0 1
| 11>   C                      -4.288569            -3.454093            4.046615
| 12>   O                      -4.072984            -3.445141            5.450072
| 13>   H                      -3.608082            -2.611545            5.566733
| 14>   H                      -3.328369            -3.735090            3.527382
| 15>   H                      -4.996269            -4.232074            3.685555
| 16>   H                      -4.566862            -2.490800            3.649591
| 17>   C                      -6.450668            -2.051976            0.907672
| 18>   O                      -6.842140            -2.407038            2.187956
| 19>   H                      -7.405613            -1.682786            2.573265
| 20>   H                      -7.030339            -1.195502            0.550254
| 21>   H                      -5.439405            -1.874149            0.857114
| 22>   H                      -6.501631            -2.878888            0.125233
| 23> *
| 24>
| 25> #Run DFT-D3 single point of the molecule with dimer basis set
| 26> $new_job
| 27> %base "8-89_DFT_A"
| 28> ! wB97X-D3 def2-TZVP TIGHTSCF CHELPG PMODEL
| 29>
| 30> %scf
| 31> MaxIter 1000
| 32> end
| 33>
| 34> * xyz 0 1
| 35>   C                      -4.288569            -3.454093            4.046615
| 36>   O                      -4.072984            -3.445141            5.450072
| 37>   H                      -3.608082            -2.611545            5.566733
| 38>   H                      -3.328369            -3.735090            3.527382
| 39>   H                      -4.996269            -4.232074            3.685555
| 40>   H                      -4.566862            -2.490800            3.649591
| 41>   C                    : -6.450668            -2.051976            0.907672
| 42>   O                    : -6.842140            -2.407038            2.187956
| 43>   H                    : -7.405613            -1.682786            2.573265
| 44>   H                    : -7.030339            -1.195502            0.550254
| 45>   H                    : -5.439405            -1.874149            0.857114
| 46>   H                    : -6.501631            -2.878888            0.125233
| 47> *
| 48>
| 49> #Run DFT-D3 single point of the particle with dimer basis set
| 50> $new_job
| 51> %base "8-89_DFT_B"
| 52> ! wB97X-D3 def2-TZVP TIGHTSCF CHELPG PMODEL
| 53>
| 54> %scf
| 55> MaxIter 1000
| 56> end
| 57>
| 58> * xyz 0 1
| 59>   C                    : -4.288569            -3.454093            4.046615
| 60>   O                    : -4.072984            -3.445141            5.450072
| 61>   H                    : -3.608082            -2.611545            5.566733
| 62>   H                    : -3.328369            -3.735090            3.527382
| 63>   H                    : -4.996269            -4.232074            3.685555
| 64>   H                    : -4.566862            -2.490800            3.649591
| 65>   C                      -6.450668            -2.051976            0.907672
| 66>   O                      -6.842140            -2.407038            2.187956
| 67>   H                      -7.405613            -1.682786            2.573265
| 68>   H                      -7.030339            -1.195502            0.550254
| 69>   H                      -5.439405            -1.874149            0.857114
| 70>   H                      -6.501631            -2.878888            0.125233
| 71> *
| 72>
| 73>                          ****END OF INPUT****
 Total Charge           Charge          ....    0
 Multiplicity           Mult            ....    1
 Number of Electrons    NEL             ....   36
Dispersion correction           -0.001674247
FINAL SINGLE POINT ENERGY      -231.459840004711
Dispersion correction           -0.000235322
FINAL SINGLE POINT ENERGY      -115.732449801218

CARTESIAN COORDINATES (ANGSTROEM)
---------------------------------
  C     -4.288569   -3.454093    4.046615
  O     -4.072984   -3.445141    5.450072
  H     -3.608082   -2.611545    5.566733
  H     -3.328369   -3.735090    3.527382
  H     -4.996269   -4.232074    3.685555
  H     -4.566862   -2.490800    3.649591
  C     -6.450668   -2.051976    0.907672
  O     -6.842140   -2.407038    2.187956
  H     -7.405613   -1.682786    2.573265
  H     -7.030339   -1.195502    0.550254
  H     -5.439405   -1.874149    0.857114
  H     -6.501631   -2.878888    0.125233

 Multiplicity           Mult            ....    1
 Number of Electrons    NEL             ....   18
 Basis Dimension        Dim             ....  172

ORBITAL ENERGIES
----------------

  NO   OCC          E(Eh)            E(eV)
   0   2.0000     -19.234379      -523.3941
   1   2.0000     -10.307823      -280.4901
   2   2.0000      -1.139518       -31.0079
   3   2.0000      -0.795890       -21.6573
   4   2.0000      -0.614631       -16.7250
   5   2.0000      -0.551058       -14.9950
   6   2.0000      -0.527535       -14.3549
   7   2.0000      -0.429981       -11.7004
   8   2.0000      -0.368182       -10.0187
   9   0.0000       0.093633         2.5479
  10   0.0000       0.117338         3.1929
  11   0.0000       0.149298         4.0626
  12   0.0000       0.177708         4.8357
  13   0.0000       0.199087         5.4174

MULLIKEN ATOMIC CHARGES
-----------------------
   0 C :    0.008957
   1 O :   -0.000045
   2 H :    0.000001
   3 H :   -0.000820
   4 H :   -0.003951
   5 H :   -0.011076
   6 C :   -0.162030
   7 O :   -0.465650
   8 H :    0.323596
   9 H :    0.100667
  10 H :    0.113285
  11 H :    0.097066
Sum of atomic charges:    0.0000000

LOEWDIN ATOMIC CHARGES
----------------------
   0 C :   -0.009556
   1 O :   -0.000029
   2 H :   -0.000007
   3 H :   -0.000091
   4 H :   -0.003055
   5 H :   -0.007130
   6 C :   -0.409531
   7 O :   -0.054598
   8 H :    0.195116
   9 H :    0.098147
  10 H :    0.081985
  11 H :    0.108747

  Mayer bond orders larger than 0.1
B(  6-C ,  7-O ) :   1.0191 B(  6-C ,  9-H ) :   0.9871 B(  6-C , 10-H ) :   0.9791
B(  6-C , 11-H ) :   0.9753 B(  7-O ,  8-H ) :   0.8891

Dispersion correction           -0.000243095
FINAL SINGLE POINT ENERGY      -115.726343333576

DIPOLE MOMENT
-------------
                                X             Y             Z
Electronic contribution:     -0.46349      -0.51459       1.75963
Nuclear contribution   :      0.25989       1.13527      -2.00000
                        -----------------------------------------
Total Dipole Moment    :     -0.20360       0.62069      -0.24037
                        -----------------------------------------
Magnitude (a.u.)       :      0.69605
Magnitude (Debye)      :      1.76922

Rotational constants in cm-1:     4.414782     0.857707     0.810100
Rotational constants in MHz : 132351.840819 25713.397873 24286.192621

                             ****ORCA TERMINATED NORMALLY****
TOTAL RUN TIME: 0 days 0 hours 0 minutes 45 seconds 311 msec
