                         Program Version 4.1.2  - RELEASE  -
|  1> #Run DFT-D3 single point of the dimer
|  2> ! wB97X-D3 def2-TZVP TIGHTSCF CHELPG PMODEL PAL8
|  3>
|  4> %base "18-140_DFT_AB"
|  5>
|  6> %scf
|  7> MaxIter 1000
|  8> end
|  9>
| 10> * xyz 0 1
| 11>   C                      2.523888             4.676657             7.090738
| 12>   O                      2.566897             6.070124             6.773619
| 13>   H                      1.949694             6.599378             7.303895
| 14>   H                      3.367195             4.206097             6.586594
| 15>   H                      2.634672             4.644139             8.164876
| 16>   H                      1.636308             4.135860             6.734283
| 17>   C                      0.928907             7.448573             3.487532
| 18>   O                      0.765895             8.885625             3.348894
| 19>   H                      1.694206             9.228665             3.410439
| 20>   H                      1.616737             7.010766             2.734022
| 21>   H                      1.367731             7.210339             4.484350
| 22>   H                      -0.005541            6.954212             3.480034
| 23> *
| 24>
| 25> #Run DFT-D3 single point of the molecule with dimer basis set
| 26> $new_job
| 27> %base "18-140_DFT_A"
| 28> ! wB97X-D3 def2-TZVP TIGHTSCF CHELPG PMODEL
| 29>
| 30> %scf
| 31> MaxIter 1000
| 32> end
| 33>
| 34> * xyz 0 1
| 35>   C                      2.523888             4.676657             7.090738
| 36>   O                      2.566897             6.070124             6.773619
| 37>   H                      1.949694             6.599378             7.303895
| 38>   H                      3.367195             4.206097             6.586594
| 39>   H                      2.634672             4.644139             8.164876
| 40>   H                      1.636308             4.135860             6.734283
| 41>   C                    : 0.928907             7.448573             3.487532
| 42>   O                    : 0.765895             8.885625             3.348894
| 43>   H                    : 1.694206             9.228665             3.410439
| 44>   H                    : 1.616737             7.010766             2.734022
| 45>   H                    : 1.367731             7.210339             4.484350
| 46>   H                    : -0.005541            6.954212             3.480034
| 47> *
| 48>
| 49> #Run DFT-D3 single point of the particle with dimer basis set
| 50> $new_job
| 51> %base "18-140_DFT_B"
| 52> ! wB97X-D3 def2-TZVP TIGHTSCF CHELPG PMODEL
| 53>
| 54> %scf
| 55> MaxIter 1000
| 56> end
| 57>
| 58> * xyz 0 1
| 59>   C                    : 2.523888             4.676657             7.090738
| 60>   O                    : 2.566897             6.070124             6.773619
| 61>   H                    : 1.949694             6.599378             7.303895
| 62>   H                    : 3.367195             4.206097             6.586594
| 63>   H                    : 2.634672             4.644139             8.164876
| 64>   H                    : 1.636308             4.135860             6.734283
| 65>   C                      0.928907             7.448573             3.487532
| 66>   O                      0.765895             8.885625             3.348894
| 67>   H                      1.694206             9.228665             3.410439
| 68>   H                      1.616737             7.010766             2.734022
| 69>   H                      1.367731             7.210339             4.484350
| 70>   H                      -0.005541            6.954212             3.480034
| 71> *
| 72>
| 73>                          ****END OF INPUT****
 Total Charge           Charge          ....    0
 Multiplicity           Mult            ....    1
 Number of Electrons    NEL             ....   36
Dispersion correction           -0.001203653
FINAL SINGLE POINT ENERGY      -231.468883328647
Dispersion correction           -0.000249218
FINAL SINGLE POINT ENERGY      -115.733984792408

CARTESIAN COORDINATES (ANGSTROEM)
---------------------------------
  C      2.523888    4.676657    7.090738
  O      2.566897    6.070124    6.773619
  H      1.949694    6.599378    7.303895
  H      3.367195    4.206097    6.586594
  H      2.634672    4.644139    8.164876
  H      1.636308    4.135860    6.734283
  C      0.928907    7.448573    3.487532
  O      0.765895    8.885625    3.348894
  H      1.694206    9.228665    3.410439
  H      1.616737    7.010766    2.734022
  H      1.367731    7.210339    4.484350
  H     -0.005541    6.954212    3.480034

 Multiplicity           Mult            ....    1
 Number of Electrons    NEL             ....   18
 Basis Dimension        Dim             ....  172

ORBITAL ENERGIES
----------------

  NO   OCC          E(Eh)            E(eV)
   0   2.0000     -19.235011      -523.4113
   1   2.0000     -10.316272      -280.7200
   2   2.0000      -1.121678       -30.5224
   3   2.0000      -0.794234       -21.6122
   4   2.0000      -0.599226       -16.3058
   5   2.0000      -0.533816       -14.5259
   6   2.0000      -0.525316       -14.2946
   7   2.0000      -0.442695       -12.0463
   8   2.0000      -0.373319       -10.1585
   9   0.0000       0.080955         2.2029
  10   0.0000       0.112431         3.0594
  11   0.0000       0.148056         4.0288
  12   0.0000       0.164006         4.4628
  13   0.0000       0.189600         5.1593

MULLIKEN ATOMIC CHARGES
-----------------------
   0 C :   -0.000560
   1 O :    0.000145
   2 H :    0.000001
   3 H :    0.000021
   4 H :   -0.000005
   5 H :    0.000003
   6 C :   -0.180128
   7 O :   -0.472684
   8 H :    0.315561
   9 H :    0.109585
  10 H :    0.100601
  11 H :    0.127460
Sum of atomic charges:   -0.0000000

LOEWDIN ATOMIC CHARGES
----------------------
   0 C :   -0.000701
   1 O :   -0.002687
   2 H :   -0.001032
   3 H :   -0.000018
   4 H :   -0.000015
   5 H :   -0.000067
   6 C :   -0.364916
   7 O :   -0.116477
   8 H :    0.186306
   9 H :    0.099041
  10 H :    0.100835
  11 H :    0.099731

  Mayer bond orders larger than 0.1
B(  6-C ,  7-O ) :   0.9951 B(  6-C ,  9-H ) :   0.9719 B(  6-C , 10-H ) :   0.9798
B(  6-C , 11-H ) :   0.9717 B(  7-O ,  8-H ) :   0.8986

Dispersion correction           -0.000249891
FINAL SINGLE POINT ENERGY      -115.732973406742

DIPOLE MOMENT
-------------
                                X             Y             Z
Electronic contribution:     -0.47636       1.79960      -0.28821
Nuclear contribution   :      1.08907      -2.18234       0.38884
                        -----------------------------------------
Total Dipole Moment    :      0.61271      -0.38274       0.10063
                        -----------------------------------------
Magnitude (a.u.)       :      0.72940
Magnitude (Debye)      :      1.85399

Rotational constants in cm-1:     4.214568     0.796399     0.766685
Rotational constants in MHz : 126349.567307 23875.453324 22984.646621

                             ****ORCA TERMINATED NORMALLY****
TOTAL RUN TIME: 0 days 0 hours 0 minutes 50 seconds 355 msec
