                         Program Version 4.1.2  - RELEASE  -
|  1> #Run DFT-D3 single point of the dimer
|  2> ! wB97X-D3 def2-TZVP TIGHTSCF CHELPG PMODEL PAL8
|  3>
|  4> %base "7-70_DFT_AB"
|  5>
|  6> %scf
|  7> MaxIter 1000
|  8> end
|  9>
| 10> * xyz 0 1
| 11>   C                      -3.843015            3.387278             11.452532
| 12>   O                      -4.433860            3.915718             10.307268
| 13>   H                      -3.773737            3.785140             9.575087
| 14>   H                      -2.782898            3.479782             11.476008
| 15>   H                      -4.203933            3.855851             12.326470
| 16>   H                      -4.218804            2.365851             11.573091
| 17>   C                      0.644906             2.858696             10.102928
| 18>   O                      -0.385430            3.457382             10.842335
| 19>   H                      0.023696             3.705222             11.691541
| 20>   H                      0.848694             3.478940             9.148211
| 21>   H                      1.511680             2.660936             10.662323
| 22>   H                      0.346533             1.838836             9.787821
| 23> *
| 24>
| 25> #Run DFT-D3 single point of the molecule with dimer basis set
| 26> $new_job
| 27> %base "7-70_DFT_A"
| 28> ! wB97X-D3 def2-TZVP TIGHTSCF CHELPG PMODEL
| 29>
| 30> %scf
| 31> MaxIter 1000
| 32> end
| 33>
| 34> * xyz 0 1
| 35>   C                      -3.843015            3.387278             11.452532
| 36>   O                      -4.433860            3.915718             10.307268
| 37>   H                      -3.773737            3.785140             9.575087
| 38>   H                      -2.782898            3.479782             11.476008
| 39>   H                      -4.203933            3.855851             12.326470
| 40>   H                      -4.218804            2.365851             11.573091
| 41>   C                    : 0.644906             2.858696             10.102928
| 42>   O                    : -0.385430            3.457382             10.842335
| 43>   H                    : 0.023696             3.705222             11.691541
| 44>   H                    : 0.848694             3.478940             9.148211
| 45>   H                    : 1.511680             2.660936             10.662323
| 46>   H                    : 0.346533             1.838836             9.787821
| 47> *
| 48>
| 49> #Run DFT-D3 single point of the particle with dimer basis set
| 50> $new_job
| 51> %base "7-70_DFT_B"
| 52> ! wB97X-D3 def2-TZVP TIGHTSCF CHELPG PMODEL
| 53>
| 54> %scf
| 55> MaxIter 1000
| 56> end
| 57>
| 58> * xyz 0 1
| 59>   C                    : -3.843015            3.387278             11.452532
| 60>   O                    : -4.433860            3.915718             10.307268
| 61>   H                    : -3.773737            3.785140             9.575087
| 62>   H                    : -2.782898            3.479782             11.476008
| 63>   H                    : -4.203933            3.855851             12.326470
| 64>   H                    : -4.218804            2.365851             11.573091
| 65>   C                      0.644906             2.858696             10.102928
| 66>   O                      -0.385430            3.457382             10.842335
| 67>   H                      0.023696             3.705222             11.691541
| 68>   H                      0.848694             3.478940             9.148211
| 69>   H                      1.511680             2.660936             10.662323
| 70>   H                      0.346533             1.838836             9.787821
| 71> *
| 72>
| 73>                          ****END OF INPUT****
 Total Charge           Charge          ....    0
 Multiplicity           Mult            ....    1
 Number of Electrons    NEL             ....   36
Dispersion correction           -0.001335598
FINAL SINGLE POINT ENERGY      -231.463691384528
Dispersion correction           -0.000225766
FINAL SINGLE POINT ENERGY      -115.730758203388

CARTESIAN COORDINATES (ANGSTROEM)
---------------------------------
  C     -3.843015    3.387278   11.452532
  O     -4.433860    3.915718   10.307268
  H     -3.773737    3.785140    9.575087
  H     -2.782898    3.479782   11.476008
  H     -4.203933    3.855851   12.326470
  H     -4.218804    2.365851   11.573091
  C      0.644906    2.858696   10.102928
  O     -0.385430    3.457382   10.842335
  H      0.023696    3.705222   11.691541
  H      0.848694    3.478940    9.148211
  H      1.511680    2.660936   10.662323
  H      0.346533    1.838836    9.787821

 Multiplicity           Mult            ....    1
 Number of Electrons    NEL             ....   18
 Basis Dimension        Dim             ....  172

ORBITAL ENERGIES
----------------

  NO   OCC          E(Eh)            E(eV)
   0   2.0000     -19.233997      -523.3837
   1   2.0000     -10.315064      -280.6872
   2   2.0000      -1.140435       -31.0328
   3   2.0000      -0.790993       -21.5240
   4   2.0000      -0.618235       -16.8230
   5   2.0000      -0.535803       -14.5799
   6   2.0000      -0.524547       -14.2737
   7   2.0000      -0.438954       -11.9445
   8   2.0000      -0.371016       -10.0959
   9   0.0000       0.098784         2.6880
  10   0.0000       0.120482         3.2785
  11   0.0000       0.152472         4.1490
  12   0.0000       0.176445         4.8013
  13   0.0000       0.193202         5.2573

MULLIKEN ATOMIC CHARGES
-----------------------
   0 C :    0.003347
   1 O :   -0.000084
   2 H :   -0.000858
   3 H :   -0.010813
   4 H :   -0.000277
   5 H :   -0.000088
   6 C :   -0.164085
   7 O :   -0.456532
   8 H :    0.317673
   9 H :    0.101217
  10 H :    0.109218
  11 H :    0.101283
Sum of atomic charges:   -0.0000000

LOEWDIN ATOMIC CHARGES
----------------------
   0 C :   -0.005351
   1 O :   -0.000029
   2 H :   -0.000448
   3 H :   -0.013025
   4 H :   -0.000031
   5 H :   -0.000054
   6 C :   -0.400975
   7 O :   -0.060581
   8 H :    0.181998
   9 H :    0.110431
  10 H :    0.086251
  11 H :    0.101816

  Mayer bond orders larger than 0.1
B(  6-C ,  7-O ) :   1.0097 B(  6-C ,  9-H ) :   0.9746 B(  6-C , 10-H ) :   0.9785
B(  6-C , 11-H ) :   0.9774 B(  7-O ,  8-H ) :   0.8966

Dispersion correction           -0.000247020
FINAL SINGLE POINT ENERGY      -115.730359388622

DIPOLE MOMENT
-------------
                                X             Y             Z
Electronic contribution:     -1.37042       0.81997       0.96081
Nuclear contribution   :      2.04674      -0.91315      -0.66020
                        -----------------------------------------
Total Dipole Moment    :      0.67632      -0.09318       0.30062
                        -----------------------------------------
Magnitude (a.u.)       :      0.74597
Magnitude (Debye)      :      1.89610

Rotational constants in cm-1:     4.188176     0.839038     0.812346
Rotational constants in MHz : 125558.358947 25153.719972 24353.531963

                             ****ORCA TERMINATED NORMALLY****
TOTAL RUN TIME: 0 days 0 hours 1 minutes 8 seconds 117 msec
