                         Program Version 4.1.2  - RELEASE  -
|  1> #Run DFT-D3 single point of the dimer
|  2> ! wB97X-D3 def2-TZVP TIGHTSCF CHELPG PMODEL PAL8
|  3>
|  4> %base "6-141_DFT_AB"
|  5>
|  6> %scf
|  7> MaxIter 1000
|  8> end
|  9>
| 10> * xyz 0 1
| 11>   C                      -4.761511            4.033597             0.644561
| 12>   O                      -5.840978            3.433233             0.049642
| 13>   H                      -5.492849            2.523633             0.104784
| 14>   H                      -3.783085            3.629081             0.423102
| 15>   H                      -4.640133            5.102742             0.387107
| 16>   H                      -4.887416            4.115966             1.738798
| 17>   C                      -6.012224            8.070531             2.004875
| 18>   O                      -6.589310            7.979812             0.750287
| 19>   H                      -7.365943            7.467191             0.869601
| 20>   H                      -6.562652            8.706073             2.776293
| 21>   H                      -5.782534            7.055373             2.420694
| 22>   H                      -5.120311            8.707094             1.929749
| 23> *
| 24>
| 25> #Run DFT-D3 single point of the molecule with dimer basis set
| 26> $new_job
| 27> %base "6-141_DFT_A"
| 28> ! wB97X-D3 def2-TZVP TIGHTSCF CHELPG PMODEL
| 29>
| 30> %scf
| 31> MaxIter 1000
| 32> end
| 33>
| 34> * xyz 0 1
| 35>   C                      -4.761511            4.033597             0.644561
| 36>   O                      -5.840978            3.433233             0.049642
| 37>   H                      -5.492849            2.523633             0.104784
| 38>   H                      -3.783085            3.629081             0.423102
| 39>   H                      -4.640133            5.102742             0.387107
| 40>   H                      -4.887416            4.115966             1.738798
| 41>   C                    : -6.012224            8.070531             2.004875
| 42>   O                    : -6.589310            7.979812             0.750287
| 43>   H                    : -7.365943            7.467191             0.869601
| 44>   H                    : -6.562652            8.706073             2.776293
| 45>   H                    : -5.782534            7.055373             2.420694
| 46>   H                    : -5.120311            8.707094             1.929749
| 47> *
| 48>
| 49> #Run DFT-D3 single point of the particle with dimer basis set
| 50> $new_job
| 51> %base "6-141_DFT_B"
| 52> ! wB97X-D3 def2-TZVP TIGHTSCF CHELPG PMODEL
| 53>
| 54> %scf
| 55> MaxIter 1000
| 56> end
| 57>
| 58> * xyz 0 1
| 59>   C                    : -4.761511            4.033597             0.644561
| 60>   O                    : -5.840978            3.433233             0.049642
| 61>   H                    : -5.492849            2.523633             0.104784
| 62>   H                    : -3.783085            3.629081             0.423102
| 63>   H                    : -4.640133            5.102742             0.387107
| 64>   H                    : -4.887416            4.115966             1.738798
| 65>   C                      -6.012224            8.070531             2.004875
| 66>   O                      -6.589310            7.979812             0.750287
| 67>   H                      -7.365943            7.467191             0.869601
| 68>   H                      -6.562652            8.706073             2.776293
| 69>   H                      -5.782534            7.055373             2.420694
| 70>   H                      -5.120311            8.707094             1.929749
| 71> *
| 72>
| 73>                          ****END OF INPUT****
 Total Charge           Charge          ....    0
 Multiplicity           Mult            ....    1
 Number of Electrons    NEL             ....   36
Dispersion correction           -0.001248867
FINAL SINGLE POINT ENERGY      -231.459533810492
Dispersion correction           -0.000218104
FINAL SINGLE POINT ENERGY      -115.726752031369

CARTESIAN COORDINATES (ANGSTROEM)
---------------------------------
  C     -4.761511    4.033597    0.644561
  O     -5.840978    3.433233    0.049642
  H     -5.492849    2.523633    0.104784
  H     -3.783085    3.629081    0.423102
  H     -4.640133    5.102742    0.387107
  H     -4.887416    4.115966    1.738798
  C     -6.012224    8.070531    2.004875
  O     -6.589310    7.979812    0.750287
  H     -7.365943    7.467191    0.869601
  H     -6.562652    8.706073    2.776293
  H     -5.782534    7.055373    2.420694
  H     -5.120311    8.707094    1.929749

 Multiplicity           Mult            ....    1
 Number of Electrons    NEL             ....   18
 Basis Dimension        Dim             ....  172

ORBITAL ENERGIES
----------------

  NO   OCC          E(Eh)            E(eV)
   0   2.0000     -19.233463      -523.3691
   1   2.0000     -10.318998      -280.7942
   2   2.0000      -1.154724       -31.4216
   3   2.0000      -0.791851       -21.5474
   4   2.0000      -0.617046       -16.7907
   5   2.0000      -0.551256       -15.0004
   6   2.0000      -0.523353       -14.2412
   7   2.0000      -0.431665       -11.7462
   8   2.0000      -0.374675       -10.1954
   9   0.0000       0.084806         2.3077
  10   0.0000       0.122763         3.3405
  11   0.0000       0.149274         4.0620
  12   0.0000       0.172810         4.7024
  13   0.0000       0.186304         5.0696

MULLIKEN ATOMIC CHARGES
-----------------------
   0 C :   -0.000175
   1 O :    0.000118
   2 H :    0.000009
   3 H :    0.000032
   4 H :   -0.000791
   5 H :   -0.000534
   6 C :   -0.170757
   7 O :   -0.453011
   8 H :    0.312647
   9 H :    0.095484
  10 H :    0.100328
  11 H :    0.116650
Sum of atomic charges:   -0.0000000

LOEWDIN ATOMIC CHARGES
----------------------
   0 C :   -0.000999
   1 O :   -0.000024
   2 H :   -0.000001
   3 H :   -0.000010
   4 H :   -0.001186
   5 H :   -0.000534
   6 C :   -0.424735
   7 O :   -0.039343
   8 H :    0.159507
   9 H :    0.099205
  10 H :    0.098328
  11 H :    0.109792

  Mayer bond orders larger than 0.1
B(  6-C ,  7-O ) :   1.0044 B(  6-C ,  9-H ) :   0.9682 B(  6-C , 10-H ) :   0.9766
B(  6-C , 11-H ) :   0.9754 B(  7-O ,  8-H ) :   0.9043

Dispersion correction           -0.000243450
FINAL SINGLE POINT ENERGY      -115.731536069032

DIPOLE MOMENT
-------------
                                X             Y             Z
Electronic contribution:     -0.70578      -0.15368      -1.80706
Nuclear contribution   :      0.43564      -0.11461       2.32254
                        -----------------------------------------
Total Dipole Moment    :     -0.27014      -0.26828       0.51548
                        -----------------------------------------
Magnitude (a.u.)       :      0.64083
Magnitude (Debye)      :      1.62887

Rotational constants in cm-1:     4.220078     0.852324     0.824351
Rotational constants in MHz : 126514.743914 25552.026989 24713.433317

                             ****ORCA TERMINATED NORMALLY****
TOTAL RUN TIME: 0 days 0 hours 1 minutes 0 seconds 357 msec
