                         Program Version 4.1.2  - RELEASE  -
|  1> #Run DFT-D3 single point of the dimer
|  2> ! wB97X-D3 def2-TZVP TIGHTSCF CHELPG PMODEL PAL8
|  3>
|  4> %base "15-25_DFT_AB"
|  5>
|  6> %scf
|  7> MaxIter 1000
|  8> end
|  9>
| 10> * xyz 0 1
| 11>   C                      4.420336             -3.631376            1.742753
| 12>   O                      3.162538             -4.207617            1.389367
| 13>   H                      2.908502             -4.657569            2.203867
| 14>   H                      4.810058             -2.966194            0.971924
| 15>   H                      4.419981             -3.156620            2.638260
| 16>   H                      5.257324             -4.385752            1.882703
| 17>   C                      7.645473             -3.915370            4.272997
| 18>   O                      6.840229             -4.720736            5.101706
| 19>   H                      5.912074             -4.579328            4.841113
| 20>   H                      7.152472             -3.749235            3.316764
| 21>   H                      7.773852             -2.964091            4.696939
| 22>   H                      8.590248             -4.438842            4.029932
| 23> *
| 24>
| 25> #Run DFT-D3 single point of the molecule with dimer basis set
| 26> $new_job
| 27> %base "15-25_DFT_A"
| 28> ! wB97X-D3 def2-TZVP TIGHTSCF CHELPG PMODEL
| 29>
| 30> %scf
| 31> MaxIter 1000
| 32> end
| 33>
| 34> * xyz 0 1
| 35>   C                      4.420336             -3.631376            1.742753
| 36>   O                      3.162538             -4.207617            1.389367
| 37>   H                      2.908502             -4.657569            2.203867
| 38>   H                      4.810058             -2.966194            0.971924
| 39>   H                      4.419981             -3.156620            2.638260
| 40>   H                      5.257324             -4.385752            1.882703
| 41>   C                    : 7.645473             -3.915370            4.272997
| 42>   O                    : 6.840229             -4.720736            5.101706
| 43>   H                    : 5.912074             -4.579328            4.841113
| 44>   H                    : 7.152472             -3.749235            3.316764
| 45>   H                    : 7.773852             -2.964091            4.696939
| 46>   H                    : 8.590248             -4.438842            4.029932
| 47> *
| 48>
| 49> #Run DFT-D3 single point of the particle with dimer basis set
| 50> $new_job
| 51> %base "15-25_DFT_B"
| 52> ! wB97X-D3 def2-TZVP TIGHTSCF CHELPG PMODEL
| 53>
| 54> %scf
| 55> MaxIter 1000
| 56> end
| 57>
| 58> * xyz 0 1
| 59>   C                    : 4.420336             -3.631376            1.742753
| 60>   O                    : 3.162538             -4.207617            1.389367
| 61>   H                    : 2.908502             -4.657569            2.203867
| 62>   H                    : 4.810058             -2.966194            0.971924
| 63>   H                    : 4.419981             -3.156620            2.638260
| 64>   H                    : 5.257324             -4.385752            1.882703
| 65>   C                      7.645473             -3.915370            4.272997
| 66>   O                      6.840229             -4.720736            5.101706
| 67>   H                      5.912074             -4.579328            4.841113
| 68>   H                      7.152472             -3.749235            3.316764
| 69>   H                      7.773852             -2.964091            4.696939
| 70>   H                      8.590248             -4.438842            4.029932
| 71> *
| 72>
| 73>                          ****END OF INPUT****
 Total Charge           Charge          ....    0
 Multiplicity           Mult            ....    1
 Number of Electrons    NEL             ....   36
Dispersion correction           -0.001569994
FINAL SINGLE POINT ENERGY      -231.462030437640
Dispersion correction           -0.000239924
FINAL SINGLE POINT ENERGY      -115.728362489965

CARTESIAN COORDINATES (ANGSTROEM)
---------------------------------
  C      4.420336   -3.631376    1.742753
  O      3.162538   -4.207617    1.389367
  H      2.908502   -4.657569    2.203867
  H      4.810058   -2.966194    0.971924
  H      4.419981   -3.156620    2.638260
  H      5.257324   -4.385752    1.882703
  C      7.645473   -3.915370    4.272997
  O      6.840229   -4.720736    5.101706
  H      5.912074   -4.579328    4.841113
  H      7.152472   -3.749235    3.316764
  H      7.773852   -2.964091    4.696939
  H      8.590248   -4.438842    4.029932

 Multiplicity           Mult            ....    1
 Number of Electrons    NEL             ....   18
 Basis Dimension        Dim             ....  172

ORBITAL ENERGIES
----------------

  NO   OCC          E(Eh)            E(eV)
   0   2.0000     -19.228766      -523.2413
   1   2.0000     -10.307104      -280.4706
   2   2.0000      -1.134223       -30.8638
   3   2.0000      -0.795441       -21.6450
   4   2.0000      -0.611468       -16.6389
   5   2.0000      -0.550971       -14.9927
   6   2.0000      -0.522743       -14.2246
   7   2.0000      -0.429665       -11.6918
   8   2.0000      -0.373756       -10.1704
   9   0.0000       0.069340         1.8868
  10   0.0000       0.131554         3.5798
  11   0.0000       0.144465         3.9311
  12   0.0000       0.170822         4.6483
  13   0.0000       0.188465         5.1284

MULLIKEN ATOMIC CHARGES
-----------------------
   0 C :   -0.001147
   1 O :    0.000046
   2 H :    0.000016
   3 H :    0.000125
   4 H :   -0.000359
   5 H :    0.001396
   6 C :   -0.158944
   7 O :   -0.474837
   8 H :    0.317417
   9 H :    0.093866
  10 H :    0.108458
  11 H :    0.113963
Sum of atomic charges:    0.0000000

LOEWDIN ATOMIC CHARGES
----------------------
   0 C :   -0.003930
   1 O :   -0.000026
   2 H :   -0.000008
   3 H :   -0.000109
   4 H :   -0.000857
   5 H :   -0.002586
   6 C :   -0.381652
   7 O :   -0.081033
   8 H :    0.177589
   9 H :    0.095897
  10 H :    0.086647
  11 H :    0.110067

  Mayer bond orders larger than 0.1
B(  6-C ,  7-O ) :   1.0020 B(  6-C ,  9-H ) :   0.9852 B(  6-C , 10-H ) :   0.9783
B(  6-C , 11-H ) :   0.9727 B(  7-O ,  8-H ) :   0.8990

Dispersion correction           -0.000227641
FINAL SINGLE POINT ENERGY      -115.733486725841

DIPOLE MOMENT
-------------
                                X             Y             Z
Electronic contribution:     -0.84152      -1.03366       1.20262
Nuclear contribution   :      0.55762       1.44572      -1.71654
                        -----------------------------------------
Total Dipole Moment    :     -0.28390       0.41206      -0.51392
                        -----------------------------------------
Magnitude (a.u.)       :      0.71729
Magnitude (Debye)      :      1.82321

Rotational constants in cm-1:     4.317929     0.841580     0.810493
Rotational constants in MHz : 129448.241503 25229.932127 24297.974190

                             ****ORCA TERMINATED NORMALLY****
TOTAL RUN TIME: 0 days 0 hours 1 minutes 0 seconds 993 msec
