                         Program Version 4.1.2  - RELEASE  -
|  1> #Run DFT-D3 single point of the dimer
|  2> ! wB97X-D3 def2-TZVP TIGHTSCF CHELPG PMODEL PAL8
|  3>
|  4> %base "22-138_DFT_AB"
|  5>
|  6> %scf
|  7> MaxIter 1000
|  8> end
|  9>
| 10> * xyz 0 1
| 11>   C                      -6.064627            7.188321             -11.432468
| 12>   O                      -5.788437            7.373492             -10.093867
| 13>   H                      -4.872446            7.602528             -10.077802
| 14>   H                      -7.156699            7.111076             -11.643021
| 15>   H                      -5.706428            8.024415             -11.995838
| 16>   H                      -5.650287            6.228816             -11.865128
| 17>   C                      -3.203693            8.669150             -8.528629
| 18>   O                      -2.630921            8.348022             -9.786694
| 19>   H                      -2.982858            9.029946             -10.420149
| 20>   H                      -2.445516            8.951969             -7.772134
| 21>   H                      -3.892075            9.432172             -8.747024
| 22>   H                      -3.750677            7.793585             -8.205706
| 23> *
| 24>
| 25> #Run DFT-D3 single point of the molecule with dimer basis set
| 26> $new_job
| 27> %base "22-138_DFT_A"
| 28> ! wB97X-D3 def2-TZVP TIGHTSCF CHELPG PMODEL
| 29>
| 30> %scf
| 31> MaxIter 1000
| 32> end
| 33>
| 34> * xyz 0 1
| 35>   C                      -6.064627            7.188321             -11.432468
| 36>   O                      -5.788437            7.373492             -10.093867
| 37>   H                      -4.872446            7.602528             -10.077802
| 38>   H                      -7.156699            7.111076             -11.643021
| 39>   H                      -5.706428            8.024415             -11.995838
| 40>   H                      -5.650287            6.228816             -11.865128
| 41>   C                    : -3.203693            8.669150             -8.528629
| 42>   O                    : -2.630921            8.348022             -9.786694
| 43>   H                    : -2.982858            9.029946             -10.420149
| 44>   H                    : -2.445516            8.951969             -7.772134
| 45>   H                    : -3.892075            9.432172             -8.747024
| 46>   H                    : -3.750677            7.793585             -8.205706
| 47> *
| 48>
| 49> #Run DFT-D3 single point of the particle with dimer basis set
| 50> $new_job
| 51> %base "22-138_DFT_B"
| 52> ! wB97X-D3 def2-TZVP TIGHTSCF CHELPG PMODEL
| 53>
| 54> %scf
| 55> MaxIter 1000
| 56> end
| 57>
| 58> * xyz 0 1
| 59>   C                    : -6.064627            7.188321             -11.432468
| 60>   O                    : -5.788437            7.373492             -10.093867
| 61>   H                    : -4.872446            7.602528             -10.077802
| 62>   H                    : -7.156699            7.111076             -11.643021
| 63>   H                    : -5.706428            8.024415             -11.995838
| 64>   H                    : -5.650287            6.228816             -11.865128
| 65>   C                      -3.203693            8.669150             -8.528629
| 66>   O                      -2.630921            8.348022             -9.786694
| 67>   H                      -2.982858            9.029946             -10.420149
| 68>   H                      -2.445516            8.951969             -7.772134
| 69>   H                      -3.892075            9.432172             -8.747024
| 70>   H                      -3.750677            7.793585             -8.205706
| 71> *
| 72>
| 73>                          ****END OF INPUT****
 Total Charge           Charge          ....    0
 Multiplicity           Mult            ....    1
 Number of Electrons    NEL             ....   36
Dispersion correction           -0.001891645
FINAL SINGLE POINT ENERGY      -231.467068171660
Dispersion correction           -0.000225241
FINAL SINGLE POINT ENERGY      -115.733552901655

CARTESIAN COORDINATES (ANGSTROEM)
---------------------------------
  C     -6.064627    7.188321  -11.432468
  O     -5.788437    7.373492  -10.093867
  H     -4.872446    7.602528  -10.077802
  H     -7.156699    7.111076  -11.643021
  H     -5.706428    8.024415  -11.995838
  H     -5.650287    6.228816  -11.865128
  C     -3.203693    8.669150   -8.528629
  O     -2.630921    8.348022   -9.786694
  H     -2.982858    9.029946  -10.420149
  H     -2.445516    8.951969   -7.772134
  H     -3.892075    9.432172   -8.747024
  H     -3.750677    7.793585   -8.205706

 Multiplicity           Mult            ....    1
 Number of Electrons    NEL             ....   18
 Basis Dimension        Dim             ....  172

ORBITAL ENERGIES
----------------

  NO   OCC          E(Eh)            E(eV)
   0   2.0000     -19.229701      -523.2668
   1   2.0000     -10.308085      -280.4972
   2   2.0000      -1.129501       -30.7353
   3   2.0000      -0.791876       -21.5480
   4   2.0000      -0.608790       -16.5660
   5   2.0000      -0.543517       -14.7898
   6   2.0000      -0.530023       -14.4227
   7   2.0000      -0.432148       -11.7593
   8   2.0000      -0.371423       -10.1069
   9   0.0000       0.081251         2.2109
  10   0.0000       0.121029         3.2934
  11   0.0000       0.150267         4.0890
  12   0.0000       0.184260         5.0140
  13   0.0000       0.197727         5.3804

MULLIKEN ATOMIC CHARGES
-----------------------
   0 C :    0.001925
   1 O :    0.001059
   2 H :   -0.011629
   3 H :   -0.000151
   4 H :   -0.001352
   5 H :   -0.000244
   6 C :   -0.179952
   7 O :   -0.475702
   8 H :    0.317802
   9 H :    0.123377
  10 H :    0.109093
  11 H :    0.115776
Sum of atomic charges:   -0.0000000

LOEWDIN ATOMIC CHARGES
----------------------
   0 C :   -0.001710
   1 O :   -0.002584
   2 H :   -0.017455
   3 H :   -0.000033
   4 H :   -0.000470
   5 H :   -0.000069
   6 C :   -0.373200
   7 O :   -0.091942
   8 H :    0.190136
   9 H :    0.104048
  10 H :    0.090911
  11 H :    0.102368

  Mayer bond orders larger than 0.1
B(  6-C ,  7-O ) :   0.9818 B(  6-C ,  9-H ) :   0.9701 B(  6-C , 10-H ) :   0.9984
B(  6-C , 11-H ) :   0.9843 B(  7-O ,  8-H ) :   0.8990

Dispersion correction           -0.000226449
FINAL SINGLE POINT ENERGY      -115.730052001841

DIPOLE MOMENT
-------------
                                X             Y             Z
Electronic contribution:      0.81999      -0.47054      -1.40094
Nuclear contribution   :     -1.27913       1.03464       1.50336
                        -----------------------------------------
Total Dipole Moment    :     -0.45914       0.56410       0.10242
                        -----------------------------------------
Magnitude (a.u.)       :      0.73451
Magnitude (Debye)      :      1.86698

Rotational constants in cm-1:     4.201398     0.841378     0.810934
Rotational constants in MHz : 125954.728566 25223.886463 24311.194758

                             ****ORCA TERMINATED NORMALLY****
TOTAL RUN TIME: 0 days 0 hours 1 minutes 6 seconds 969 msec
