                         Program Version 4.1.2  - RELEASE  -
|  1> #Run DFT-D3 single point of the dimer
|  2> ! wB97X-D3 def2-TZVP TIGHTSCF CHELPG PMODEL PAL8
|  3>
|  4> %base "5-39_DFT_AB"
|  5>
|  6> %scf
|  7> MaxIter 1000
|  8> end
|  9>
| 10> * xyz 0 1
| 11>   C                      0.049032             -10.783737           -3.547147
| 12>   O                      -1.245113            -10.968864           -2.996254
| 13>   H                      -1.364851            -11.804296           -2.480069
| 14>   H                      0.119904             -9.931125            -4.234255
| 15>   H                      0.661525             -10.373009           -2.824909
| 16>   H                      0.387264             -11.742814           -4.004112
| 17>   C                      3.444995             -7.607773            -1.742963
| 18>   O                      4.584337             -7.992641            -1.053589
| 19>   H                      5.128478             -7.968528            -1.797821
| 20>   H                      3.688100             -6.769528            -2.355654
| 21>   H                      2.974968             -8.387268            -2.383765
| 22>   H                      2.759493             -7.192453            -0.974357
| 23> *
| 24>
| 25> #Run DFT-D3 single point of the molecule with dimer basis set
| 26> $new_job
| 27> %base "5-39_DFT_A"
| 28> ! wB97X-D3 def2-TZVP TIGHTSCF CHELPG PMODEL
| 29>
| 30> %scf
| 31> MaxIter 1000
| 32> end
| 33>
| 34> * xyz 0 1
| 35>   C                      0.049032             -10.783737           -3.547147
| 36>   O                      -1.245113            -10.968864           -2.996254
| 37>   H                      -1.364851            -11.804296           -2.480069
| 38>   H                      0.119904             -9.931125            -4.234255
| 39>   H                      0.661525             -10.373009           -2.824909
| 40>   H                      0.387264             -11.742814           -4.004112
| 41>   C                    : 3.444995             -7.607773            -1.742963
| 42>   O                    : 4.584337             -7.992641            -1.053589
| 43>   H                    : 5.128478             -7.968528            -1.797821
| 44>   H                    : 3.688100             -6.769528            -2.355654
| 45>   H                    : 2.974968             -8.387268            -2.383765
| 46>   H                    : 2.759493             -7.192453            -0.974357
| 47> *
| 48>
| 49> #Run DFT-D3 single point of the particle with dimer basis set
| 50> $new_job
| 51> %base "5-39_DFT_B"
| 52> ! wB97X-D3 def2-TZVP TIGHTSCF CHELPG PMODEL
| 53>
| 54> %scf
| 55> MaxIter 1000
| 56> end
| 57>
| 58> * xyz 0 1
| 59>   C                    : 0.049032             -10.783737           -3.547147
| 60>   O                    : -1.245113            -10.968864           -2.996254
| 61>   H                    : -1.364851            -11.804296           -2.480069
| 62>   H                    : 0.119904             -9.931125            -4.234255
| 63>   H                    : 0.661525             -10.373009           -2.824909
| 64>   H                    : 0.387264             -11.742814           -4.004112
| 65>   C                      3.444995             -7.607773            -1.742963
| 66>   O                      4.584337             -7.992641            -1.053589
| 67>   H                      5.128478             -7.968528            -1.797821
| 68>   H                      3.688100             -6.769528            -2.355654
| 69>   H                      2.974968             -8.387268            -2.383765
| 70>   H                      2.759493             -7.192453            -0.974357
| 71> *
| 72>
| 73>                          ****END OF INPUT****
 Total Charge           Charge          ....    0
 Multiplicity           Mult            ....    1
 Number of Electrons    NEL             ....   36
Dispersion correction           -0.000803007
FINAL SINGLE POINT ENERGY      -231.449431604844
Dispersion correction           -0.000251193
FINAL SINGLE POINT ENERGY      -115.724130407913

CARTESIAN COORDINATES (ANGSTROEM)
---------------------------------
  C      0.049032  -10.783737   -3.547147
  O     -1.245113  -10.968864   -2.996254
  H     -1.364851  -11.804296   -2.480069
  H      0.119904   -9.931125   -4.234255
  H      0.661525  -10.373009   -2.824909
  H      0.387264  -11.742814   -4.004112
  C      3.444995   -7.607773   -1.742963
  O      4.584337   -7.992641   -1.053589
  H      5.128478   -7.968528   -1.797821
  H      3.688100   -6.769528   -2.355654
  H      2.974968   -8.387268   -2.383765
  H      2.759493   -7.192453   -0.974357

 Multiplicity           Mult            ....    1
 Number of Electrons    NEL             ....   18
 Basis Dimension        Dim             ....  172

ORBITAL ENERGIES
----------------

  NO   OCC          E(Eh)            E(eV)
   0   2.0000     -19.229843      -523.2706
   1   2.0000     -10.311978      -280.6032
   2   2.0000      -1.164857       -31.6974
   3   2.0000      -0.789583       -21.4856
   4   2.0000      -0.623113       -16.9558
   5   2.0000      -0.552355       -15.0303
   6   2.0000      -0.523982       -14.2583
   7   2.0000      -0.443362       -12.0645
   8   2.0000      -0.376621       -10.2484
   9   0.0000       0.085898         2.3374
  10   0.0000       0.116654         3.1743
  11   0.0000       0.146532         3.9873
  12   0.0000       0.173867         4.7312
  13   0.0000       0.194408         5.2901

MULLIKEN ATOMIC CHARGES
-----------------------
   0 C :   -0.000373
   1 O :    0.000005
   2 H :    0.000001
   3 H :   -0.000065
   4 H :    0.000444
   5 H :   -0.000013
   6 C :   -0.186026
   7 O :   -0.439372
   8 H :    0.305932
   9 H :    0.106377
  10 H :    0.098851
  11 H :    0.114240
Sum of atomic charges:   -0.0000000

LOEWDIN ATOMIC CHARGES
----------------------
   0 C :   -0.000511
   1 O :   -0.000006
   2 H :   -0.000000
   3 H :   -0.000091
   4 H :   -0.000840
   5 H :   -0.000003
   6 C :   -0.415226
   7 O :   -0.035242
   8 H :    0.153030
   9 H :    0.089199
  10 H :    0.097056
  11 H :    0.112633

  Mayer bond orders larger than 0.1
B(  6-C ,  7-O ) :   0.9991 B(  6-C ,  9-H ) :   0.9877 B(  6-C , 10-H ) :   0.9618
B(  6-C , 11-H ) :   0.9771 B(  7-O ,  8-H ) :   0.9156

Dispersion correction           -0.000192178
FINAL SINGLE POINT ENERGY      -115.724992806980

DIPOLE MOMENT
-------------
                                X             Y             Z
Electronic contribution:      1.43891      -0.62210       1.02639
Nuclear contribution   :     -1.49443       0.81119      -1.72903
                        -----------------------------------------
Total Dipole Moment    :     -0.05552       0.18909      -0.70264
                        -----------------------------------------
Magnitude (a.u.)       :      0.72975
Magnitude (Debye)      :      1.85488

Rotational constants in cm-1:     4.222899     0.879745     0.847130
Rotational constants in MHz : 126599.329634 26374.091812 25396.330328

                             ****ORCA TERMINATED NORMALLY****
TOTAL RUN TIME: 0 days 0 hours 0 minutes 52 seconds 461 msec
