                         Program Version 4.1.2  - RELEASE  -
|  1> #Run DFT-D3 single point of the dimer
|  2> ! wB97X-D3 def2-TZVP TIGHTSCF CHELPG PMODEL PAL8
|  3>
|  4> %base "14-34_DFT_AB"
|  5>
|  6> %scf
|  7> MaxIter 1000
|  8> end
|  9>
| 10> * xyz 0 1
| 11>   C                      -0.612086            2.931693             -2.166030
| 12>   O                      -1.917891            3.394526             -2.096503
| 13>   H                      -2.283379            3.362468             -1.200627
| 14>   H                      -0.456620            1.838111             -2.061463
| 15>   H                      -0.083063            3.269453             -3.069938
| 16>   H                      -0.006313            3.238354             -1.311755
| 17>   C                      1.641276             -0.874325            -1.540660
| 18>   O                      3.040268             -1.280909            -1.464437
| 19>   H                      3.423192             -0.560570            -0.969316
| 20>   H                      1.166156             -1.199427            -2.504805
| 21>   H                      1.105807             -1.371834            -0.732987
| 22>   H                      1.463836             0.223039             -1.419132
| 23> *
| 24>
| 25> #Run DFT-D3 single point of the molecule with dimer basis set
| 26> $new_job
| 27> %base "14-34_DFT_A"
| 28> ! wB97X-D3 def2-TZVP TIGHTSCF CHELPG PMODEL
| 29>
| 30> %scf
| 31> MaxIter 1000
| 32> end
| 33>
| 34> * xyz 0 1
| 35>   C                      -0.612086            2.931693             -2.166030
| 36>   O                      -1.917891            3.394526             -2.096503
| 37>   H                      -2.283379            3.362468             -1.200627
| 38>   H                      -0.456620            1.838111             -2.061463
| 39>   H                      -0.083063            3.269453             -3.069938
| 40>   H                      -0.006313            3.238354             -1.311755
| 41>   C                    : 1.641276             -0.874325            -1.540660
| 42>   O                    : 3.040268             -1.280909            -1.464437
| 43>   H                    : 3.423192             -0.560570            -0.969316
| 44>   H                    : 1.166156             -1.199427            -2.504805
| 45>   H                    : 1.105807             -1.371834            -0.732987
| 46>   H                    : 1.463836             0.223039             -1.419132
| 47> *
| 48>
| 49> #Run DFT-D3 single point of the particle with dimer basis set
| 50> $new_job
| 51> %base "14-34_DFT_B"
| 52> ! wB97X-D3 def2-TZVP TIGHTSCF CHELPG PMODEL
| 53>
| 54> %scf
| 55> MaxIter 1000
| 56> end
| 57>
| 58> * xyz 0 1
| 59>   C                    : -0.612086            2.931693             -2.166030
| 60>   O                    : -1.917891            3.394526             -2.096503
| 61>   H                    : -2.283379            3.362468             -1.200627
| 62>   H                    : -0.456620            1.838111             -2.061463
| 63>   H                    : -0.083063            3.269453             -3.069938
| 64>   H                    : -0.006313            3.238354             -1.311755
| 65>   C                      1.641276             -0.874325            -1.540660
| 66>   O                      3.040268             -1.280909            -1.464437
| 67>   H                      3.423192             -0.560570            -0.969316
| 68>   H                      1.166156             -1.199427            -2.504805
| 69>   H                      1.105807             -1.371834            -0.732987
| 70>   H                      1.463836             0.223039             -1.419132
| 71> *
| 72>
| 73>                          ****END OF INPUT****
 Total Charge           Charge          ....    0
 Multiplicity           Mult            ....    1
 Number of Electrons    NEL             ....   36
Dispersion correction           -0.001133325
FINAL SINGLE POINT ENERGY      -231.464652086334
Dispersion correction           -0.000258881
FINAL SINGLE POINT ENERGY      -115.732095261175

CARTESIAN COORDINATES (ANGSTROEM)
---------------------------------
  C     -0.612086    2.931693   -2.166030
  O     -1.917891    3.394526   -2.096503
  H     -2.283379    3.362468   -1.200627
  H     -0.456620    1.838111   -2.061463
  H     -0.083063    3.269453   -3.069938
  H     -0.006313    3.238354   -1.311755
  C      1.641276   -0.874325   -1.540660
  O      3.040268   -1.280909   -1.464437
  H      3.423192   -0.560570   -0.969316
  H      1.166156   -1.199427   -2.504805
  H      1.105807   -1.371834   -0.732987
  H      1.463836    0.223039   -1.419132

 Multiplicity           Mult            ....    1
 Number of Electrons    NEL             ....   18
 Basis Dimension        Dim             ....  172

ORBITAL ENERGIES
----------------

  NO   OCC          E(Eh)            E(eV)
   0   2.0000     -19.232723      -523.3490
   1   2.0000     -10.322346      -280.8853
   2   2.0000      -1.129083       -30.7239
   3   2.0000      -0.791968       -21.5505
   4   2.0000      -0.603119       -16.4117
   5   2.0000      -0.534778       -14.5520
   6   2.0000      -0.518216       -14.1014
   7   2.0000      -0.445302       -12.1173
   8   2.0000      -0.375216       -10.2101
   9   0.0000       0.079540         2.1644
  10   0.0000       0.115168         3.1339
  11   0.0000       0.143102         3.8940
  12   0.0000       0.165708         4.5091
  13   0.0000       0.183027         4.9804

MULLIKEN ATOMIC CHARGES
-----------------------
   0 C :    0.001812
   1 O :   -0.000037
   2 H :   -0.000012
   3 H :   -0.002510
   4 H :   -0.000116
   5 H :   -0.000436
   6 C :   -0.189974
   7 O :   -0.465496
   8 H :    0.312768
   9 H :    0.119936
  10 H :    0.113940
  11 H :    0.110125
Sum of atomic charges:    0.0000000

LOEWDIN ATOMIC CHARGES
----------------------
   0 C :   -0.001425
   1 O :   -0.000011
   2 H :   -0.000001
   3 H :   -0.002726
   4 H :   -0.000029
   5 H :   -0.000203
   6 C :   -0.365551
   7 O :   -0.103988
   8 H :    0.164256
   9 H :    0.110953
  10 H :    0.096464
  11 H :    0.102261

  Mayer bond orders larger than 0.1
B(  6-C ,  7-O ) :   1.0039 B(  6-C ,  9-H ) :   0.9727 B(  6-C , 10-H ) :   0.9735
B(  6-C , 11-H ) :   0.9782 B(  7-O ,  8-H ) :   0.9056

Dispersion correction           -0.000260278
FINAL SINGLE POINT ENERGY      -115.732321439910

DIPOLE MOMENT
-------------
                                X             Y             Z
Electronic contribution:      1.79701      -0.62171      -0.01246
Nuclear contribution   :     -2.12426       1.24121       0.29740
                        -----------------------------------------
Total Dipole Moment    :     -0.32725       0.61950       0.28494
                        -----------------------------------------
Magnitude (a.u.)       :      0.75635
Magnitude (Debye)      :      1.92249

Rotational constants in cm-1:     4.179512     0.792601     0.760296
Rotational constants in MHz : 125298.630454 23761.584168 22793.112579

                             ****ORCA TERMINATED NORMALLY****
TOTAL RUN TIME: 0 days 0 hours 1 minutes 8 seconds 599 msec
