                         Program Version 4.1.2  - RELEASE  -
|  1> #Run DFT-D3 single point of the dimer
|  2> ! wB97X-D3 def2-TZVP TIGHTSCF CHELPG PMODEL PAL8
|  3>
|  4> %base "10-150_DFT_AB"
|  5>
|  6> %scf
|  7> MaxIter 1000
|  8> end
|  9>
| 10> * xyz 0 1
| 11>   C                      -10.989222           3.808334             -7.931437
| 12>   O                      -9.782302            3.994247             -7.267544
| 13>   H                      -9.708580            4.826893             -6.820281
| 14>   H                      -11.861090           3.568606             -7.270567
| 15>   H                      -11.310584           4.696313             -8.406424
| 16>   H                      -10.949270           3.047277             -8.714089
| 17>   C                      -7.696993            4.870722             -5.249088
| 18>   O                      -8.000173            5.738073             -6.280450
| 19>   H                      -7.944936            6.626068             -5.893872
| 20>   H                      -8.323327            5.038972             -4.420288
| 21>   H                      -7.952844            3.779827             -5.439397
| 22>   H                      -6.693924            5.029218             -4.879983
| 23> *
| 24>
| 25> #Run DFT-D3 single point of the molecule with dimer basis set
| 26> $new_job
| 27> %base "10-150_DFT_A"
| 28> ! wB97X-D3 def2-TZVP TIGHTSCF CHELPG PMODEL
| 29>
| 30> %scf
| 31> MaxIter 1000
| 32> end
| 33>
| 34> * xyz 0 1
| 35>   C                      -10.989222           3.808334             -7.931437
| 36>   O                      -9.782302            3.994247             -7.267544
| 37>   H                      -9.708580            4.826893             -6.820281
| 38>   H                      -11.861090           3.568606             -7.270567
| 39>   H                      -11.310584           4.696313             -8.406424
| 40>   H                      -10.949270           3.047277             -8.714089
| 41>   C                    : -7.696993            4.870722             -5.249088
| 42>   O                    : -8.000173            5.738073             -6.280450
| 43>   H                    : -7.944936            6.626068             -5.893872
| 44>   H                    : -8.323327            5.038972             -4.420288
| 45>   H                    : -7.952844            3.779827             -5.439397
| 46>   H                    : -6.693924            5.029218             -4.879983
| 47> *
| 48>
| 49> #Run DFT-D3 single point of the particle with dimer basis set
| 50> $new_job
| 51> %base "10-150_DFT_B"
| 52> ! wB97X-D3 def2-TZVP TIGHTSCF CHELPG PMODEL
| 53>
| 54> %scf
| 55> MaxIter 1000
| 56> end
| 57>
| 58> * xyz 0 1
| 59>   C                    : -10.989222           3.808334             -7.931437
| 60>   O                    : -9.782302            3.994247             -7.267544
| 61>   H                    : -9.708580            4.826893             -6.820281
| 62>   H                    : -11.861090           3.568606             -7.270567
| 63>   H                    : -11.310584           4.696313             -8.406424
| 64>   H                    : -10.949270           3.047277             -8.714089
| 65>   C                      -7.696993            4.870722             -5.249088
| 66>   O                      -8.000173            5.738073             -6.280450
| 67>   H                      -7.944936            6.626068             -5.893872
| 68>   H                      -8.323327            5.038972             -4.420288
| 69>   H                      -7.952844            3.779827             -5.439397
| 70>   H                      -6.693924            5.029218             -4.879983
| 71> *
| 72>
| 73>                          ****END OF INPUT****
 Total Charge           Charge          ....    0
 Multiplicity           Mult            ....    1
 Number of Electrons    NEL             ....   36
Dispersion correction           -0.001661862
FINAL SINGLE POINT ENERGY      -231.465830196361
Dispersion correction           -0.000251157
FINAL SINGLE POINT ENERGY      -115.733113708990

CARTESIAN COORDINATES (ANGSTROEM)
---------------------------------
  C    -10.989222    3.808334   -7.931437
  O     -9.782302    3.994247   -7.267544
  H     -9.708580    4.826893   -6.820281
  H    -11.861090    3.568606   -7.270567
  H    -11.310584    4.696313   -8.406424
  H    -10.949270    3.047277   -8.714089
  C     -7.696993    4.870722   -5.249088
  O     -8.000173    5.738073   -6.280450
  H     -7.944936    6.626068   -5.893872
  H     -8.323327    5.038972   -4.420288
  H     -7.952844    3.779827   -5.439397
  H     -6.693924    5.029218   -4.879983

 Multiplicity           Mult            ....    1
 Number of Electrons    NEL             ....   18
 Basis Dimension        Dim             ....  172

ORBITAL ENERGIES
----------------

  NO   OCC          E(Eh)            E(eV)
   0   2.0000     -19.232900      -523.3538
   1   2.0000     -10.308615      -280.5117
   2   2.0000      -1.147785       -31.2328
   3   2.0000      -0.794602       -21.6222
   4   2.0000      -0.619329       -16.8528
   5   2.0000      -0.553297       -15.0560
   6   2.0000      -0.525899       -14.3104
   7   2.0000      -0.430508       -11.7147
   8   2.0000      -0.372284       -10.1304
   9   0.0000       0.095238         2.5916
  10   0.0000       0.118871         3.2346
  11   0.0000       0.151338         4.1181
  12   0.0000       0.188879         5.1397
  13   0.0000       0.200840         5.4651

MULLIKEN ATOMIC CHARGES
-----------------------
   0 C :    0.001101
   1 O :    0.003552
   2 H :   -0.010603
   3 H :   -0.000048
   4 H :   -0.000180
   5 H :   -0.000020
   6 C :   -0.175907
   7 O :   -0.464995
   8 H :    0.317655
   9 H :    0.107683
  10 H :    0.116618
  11 H :    0.105144
Sum of atomic charges:   -0.0000000

LOEWDIN ATOMIC CHARGES
----------------------
   0 C :   -0.000708
   1 O :   -0.011592
   2 H :   -0.034429
   3 H :   -0.000008
   4 H :   -0.000056
   5 H :   -0.000013
   6 C :   -0.411224
   7 O :   -0.024187
   8 H :    0.181726
   9 H :    0.086467
  10 H :    0.121102
  11 H :    0.092923

  Mayer bond orders larger than 0.1
B(  6-C ,  7-O ) :   0.9830 B(  6-C ,  9-H ) :   0.9837 B(  6-C , 10-H ) :   0.9739
B(  6-C , 11-H ) :   0.9754 B(  7-O ,  8-H ) :   0.8940

Dispersion correction           -0.000215992
FINAL SINGLE POINT ENERGY      -115.729061652798

DIPOLE MOMENT
-------------
                                X             Y             Z
Electronic contribution:     -0.33793       1.04572      -1.55978
Nuclear contribution   :      0.46170      -0.80636       2.22229
                        -----------------------------------------
Total Dipole Moment    :      0.12377       0.23936       0.66250
                        -----------------------------------------
Magnitude (a.u.)       :      0.71521
Magnitude (Debye)      :      1.81792

Rotational constants in cm-1:     4.380792     0.864081     0.824453
Rotational constants in MHz : 131332.853250 25904.485178 24716.470239

                             ****ORCA TERMINATED NORMALLY****
TOTAL RUN TIME: 0 days 0 hours 1 minutes 6 seconds 417 msec
