                         Program Version 4.1.2  - RELEASE  -
|  1> #Run DFT-D3 single point of the dimer
|  2> ! wB97X-D3 def2-TZVP TIGHTSCF CHELPG PMODEL PAL8
|  3>
|  4> %base "8-165_DFT_AB"
|  5>
|  6> %scf
|  7> MaxIter 1000
|  8> end
|  9>
| 10> * xyz 0 1
| 11>   C                      -2.232339            6.120175             1.436863
| 12>   O                      -1.684877            5.426233             2.544154
| 13>   H                      -0.759028            5.616553             2.607638
| 14>   H                      -1.450779            6.683787             0.962567
| 15>   H                      -2.595102            5.439515             0.614280
| 16>   H                      -3.038450            6.785370             1.740800
| 17>   C                      -0.724076            2.085475             2.183284
| 18>   O                      -1.374681            2.465893             3.392818
| 19>   H                      -1.953464            3.260510             3.216241
| 20>   H                      0.226551             1.538815             2.290839
| 21>   H                      -1.235051            1.347565             1.552322
| 22>   H                      -0.372481            2.892699             1.636223
| 23> *
| 24>
| 25> #Run DFT-D3 single point of the molecule with dimer basis set
| 26> $new_job
| 27> %base "8-165_DFT_A"
| 28> ! wB97X-D3 def2-TZVP TIGHTSCF CHELPG PMODEL
| 29>
| 30> %scf
| 31> MaxIter 1000
| 32> end
| 33>
| 34> * xyz 0 1
| 35>   C                      -2.232339            6.120175             1.436863
| 36>   O                      -1.684877            5.426233             2.544154
| 37>   H                      -0.759028            5.616553             2.607638
| 38>   H                      -1.450779            6.683787             0.962567
| 39>   H                      -2.595102            5.439515             0.614280
| 40>   H                      -3.038450            6.785370             1.740800
| 41>   C                    : -0.724076            2.085475             2.183284
| 42>   O                    : -1.374681            2.465893             3.392818
| 43>   H                    : -1.953464            3.260510             3.216241
| 44>   H                    : 0.226551             1.538815             2.290839
| 45>   H                    : -1.235051            1.347565             1.552322
| 46>   H                    : -0.372481            2.892699             1.636223
| 47> *
| 48>
| 49> #Run DFT-D3 single point of the particle with dimer basis set
| 50> $new_job
| 51> %base "8-165_DFT_B"
| 52> ! wB97X-D3 def2-TZVP TIGHTSCF CHELPG PMODEL
| 53>
| 54> %scf
| 55> MaxIter 1000
| 56> end
| 57>
| 58> * xyz 0 1
| 59>   C                    : -2.232339            6.120175             1.436863
| 60>   O                    : -1.684877            5.426233             2.544154
| 61>   H                    : -0.759028            5.616553             2.607638
| 62>   H                    : -1.450779            6.683787             0.962567
| 63>   H                    : -2.595102            5.439515             0.614280
| 64>   H                    : -3.038450            6.785370             1.740800
| 65>   C                      -0.724076            2.085475             2.183284
| 66>   O                      -1.374681            2.465893             3.392818
| 67>   H                      -1.953464            3.260510             3.216241
| 68>   H                      0.226551             1.538815             2.290839
| 69>   H                      -1.235051            1.347565             1.552322
| 70>   H                      -0.372481            2.892699             1.636223
| 71> *
| 72>
| 73>                          ****END OF INPUT****
 Total Charge           Charge          ....    0
 Multiplicity           Mult            ....    1
 Number of Electrons    NEL             ....   36
Dispersion correction           -0.001871003
FINAL SINGLE POINT ENERGY      -231.466491542515
Dispersion correction           -0.000250699
FINAL SINGLE POINT ENERGY      -115.734084614690

CARTESIAN COORDINATES (ANGSTROEM)
---------------------------------
  C     -2.232339    6.120175    1.436863
  O     -1.684877    5.426233    2.544154
  H     -0.759028    5.616553    2.607638
  H     -1.450779    6.683787    0.962567
  H     -2.595102    5.439515    0.614280
  H     -3.038450    6.785370    1.740800
  C     -0.724076    2.085475    2.183284
  O     -1.374681    2.465893    3.392818
  H     -1.953464    3.260510    3.216241
  H      0.226551    1.538815    2.290839
  H     -1.235051    1.347565    1.552322
  H     -0.372481    2.892699    1.636223

 Multiplicity           Mult            ....    1
 Number of Electrons    NEL             ....   18
 Basis Dimension        Dim             ....  172

ORBITAL ENERGIES
----------------

  NO   OCC          E(Eh)            E(eV)
   0   2.0000     -19.238632      -523.5098
   1   2.0000     -10.308686      -280.5136
   2   2.0000      -1.126830       -30.6626
   3   2.0000      -0.802607       -21.8400
   4   2.0000      -0.608806       -16.5665
   5   2.0000      -0.546151       -14.8615
   6   2.0000      -0.522598       -14.2206
   7   2.0000      -0.426022       -11.5927
   8   2.0000      -0.377338       -10.2679
   9   0.0000       0.069073         1.8796
  10   0.0000       0.128376         3.4933
  11   0.0000       0.143691         3.9100
  12   0.0000       0.164777         4.4838
  13   0.0000       0.188396         5.1265

MULLIKEN ATOMIC CHARGES
-----------------------
   0 C :   -0.001034
   1 O :   -0.004004
   2 H :   -0.000754
   3 H :   -0.000042
   4 H :    0.000023
   5 H :    0.000085
   6 C :   -0.180489
   7 O :   -0.473569
   8 H :    0.323216
   9 H :    0.113871
  10 H :    0.106062
  11 H :    0.116634
Sum of atomic charges:    0.0000000

LOEWDIN ATOMIC CHARGES
----------------------
   0 C :   -0.001493
   1 O :   -0.009783
   2 H :   -0.001748
   3 H :   -0.000033
   4 H :   -0.000131
   5 H :   -0.000016
   6 C :   -0.387648
   7 O :   -0.089048
   8 H :    0.195172
   9 H :    0.111394
  10 H :    0.097830
  11 H :    0.085504

  Mayer bond orders larger than 0.1
B(  6-C ,  7-O ) :   1.0091 B(  6-C ,  9-H ) :   0.9721 B(  6-C , 10-H ) :   0.9796
B(  6-C , 11-H ) :   0.9764 B(  7-O ,  8-H ) :   0.8927

Dispersion correction           -0.000274384
FINAL SINGLE POINT ENERGY      -115.725491404809

DIPOLE MOMENT
-------------
                                X             Y             Z
Electronic contribution:     -0.91309       0.48902       1.69131
Nuclear contribution   :      0.85515      -0.13814      -2.28819
                        -----------------------------------------
Total Dipole Moment    :     -0.05795       0.35088      -0.59687
                        -----------------------------------------
Magnitude (a.u.)       :      0.69479
Magnitude (Debye)      :      1.76602

Rotational constants in cm-1:     4.624518     0.797540     0.776208
Rotational constants in MHz : 138639.572114 23909.639544 23270.135595

                             ****ORCA TERMINATED NORMALLY****
TOTAL RUN TIME: 0 days 0 hours 0 minutes 47 seconds 103 msec
