                         Program Version 4.1.2  - RELEASE  -
|  1> #Run DFT-D3 single point of the dimer
|  2> ! wB97X-D3 def2-TZVP TIGHTSCF CHELPG PMODEL PAL8
|  3>
|  4> %base "4-111_DFT_AB"
|  5>
|  6> %scf
|  7> MaxIter 1000
|  8> end
|  9>
| 10> * xyz 0 1
| 11>   C                      2.306363             7.977900             -7.049044
| 12>   O                      3.680497             7.508819             -7.003539
| 13>   H                      3.822370             6.627895             -7.386926
| 14>   H                      2.324172             9.011762             -7.391483
| 15>   H                      1.650519             7.439648             -7.782240
| 16>   H                      1.747418             7.886337             -6.125104
| 17>   C                      5.421952             4.296284             -8.629715
| 18>   O                      4.177943             4.330859             -7.945690
| 19>   H                      3.759411             3.478553             -7.920667
| 20>   H                      5.294715             3.661968             -9.550154
| 21>   H                      5.762079             5.348298             -8.977451
| 22>   H                      6.121302             3.829732             -7.913418
| 23> *
| 24>
| 25> #Run DFT-D3 single point of the molecule with dimer basis set
| 26> $new_job
| 27> %base "4-111_DFT_A"
| 28> ! wB97X-D3 def2-TZVP TIGHTSCF CHELPG PMODEL
| 29>
| 30> %scf
| 31> MaxIter 1000
| 32> end
| 33>
| 34> * xyz 0 1
| 35>   C                      2.306363             7.977900             -7.049044
| 36>   O                      3.680497             7.508819             -7.003539
| 37>   H                      3.822370             6.627895             -7.386926
| 38>   H                      2.324172             9.011762             -7.391483
| 39>   H                      1.650519             7.439648             -7.782240
| 40>   H                      1.747418             7.886337             -6.125104
| 41>   C                    : 5.421952             4.296284             -8.629715
| 42>   O                    : 4.177943             4.330859             -7.945690
| 43>   H                    : 3.759411             3.478553             -7.920667
| 44>   H                    : 5.294715             3.661968             -9.550154
| 45>   H                    : 5.762079             5.348298             -8.977451
| 46>   H                    : 6.121302             3.829732             -7.913418
| 47> *
| 48>
| 49> #Run DFT-D3 single point of the particle with dimer basis set
| 50> $new_job
| 51> %base "4-111_DFT_B"
| 52> ! wB97X-D3 def2-TZVP TIGHTSCF CHELPG PMODEL
| 53>
| 54> %scf
| 55> MaxIter 1000
| 56> end
| 57>
| 58> * xyz 0 1
| 59>   C                    : 2.306363             7.977900             -7.049044
| 60>   O                    : 3.680497             7.508819             -7.003539
| 61>   H                    : 3.822370             6.627895             -7.386926
| 62>   H                    : 2.324172             9.011762             -7.391483
| 63>   H                    : 1.650519             7.439648             -7.782240
| 64>   H                    : 1.747418             7.886337             -6.125104
| 65>   C                      5.421952             4.296284             -8.629715
| 66>   O                      4.177943             4.330859             -7.945690
| 67>   H                      3.759411             3.478553             -7.920667
| 68>   H                      5.294715             3.661968             -9.550154
| 69>   H                      5.762079             5.348298             -8.977451
| 70>   H                      6.121302             3.829732             -7.913418
| 71> *
| 72>
| 73>                          ****END OF INPUT****
 Total Charge           Charge          ....    0
 Multiplicity           Mult            ....    1
 Number of Electrons    NEL             ....   36
Dispersion correction           -0.001449647
FINAL SINGLE POINT ENERGY      -231.467924202809
Dispersion correction           -0.000293986
FINAL SINGLE POINT ENERGY      -115.731649597374

CARTESIAN COORDINATES (ANGSTROEM)
---------------------------------
  C      2.306363    7.977900   -7.049044
  O      3.680497    7.508819   -7.003539
  H      3.822370    6.627895   -7.386926
  H      2.324172    9.011762   -7.391483
  H      1.650519    7.439648   -7.782240
  H      1.747418    7.886337   -6.125104
  C      5.421952    4.296284   -8.629715
  O      4.177943    4.330859   -7.945690
  H      3.759411    3.478553   -7.920667
  H      5.294715    3.661968   -9.550154
  H      5.762079    5.348298   -8.977451
  H      6.121302    3.829732   -7.913418

 Multiplicity           Mult            ....    1
 Number of Electrons    NEL             ....   18
 Basis Dimension        Dim             ....  172

ORBITAL ENERGIES
----------------

  NO   OCC          E(Eh)            E(eV)
   0   2.0000     -19.224266      -523.1189
   1   2.0000     -10.326166      -280.9892
   2   2.0000      -1.133090       -30.8329
   3   2.0000      -0.788724       -21.4623
   4   2.0000      -0.605534       -16.4774
   5   2.0000      -0.545225       -14.8363
   6   2.0000      -0.523255       -14.2385
   7   2.0000      -0.422556       -11.4983
   8   2.0000      -0.370318       -10.0769
   9   0.0000       0.098480         2.6798
  10   0.0000       0.117828         3.2063
  11   0.0000       0.150491         4.0951
  12   0.0000       0.180650         4.9157
  13   0.0000       0.197411         5.3718

MULLIKEN ATOMIC CHARGES
-----------------------
   0 C :    0.000246
   1 O :   -0.000144
   2 H :   -0.005177
   3 H :   -0.000062
   4 H :   -0.000748
   5 H :    0.000023
   6 C :   -0.153377
   7 O :   -0.480282
   8 H :    0.312269
   9 H :    0.101200
  10 H :    0.119017
  11 H :    0.107034
Sum of atomic charges:   -0.0000000

LOEWDIN ATOMIC CHARGES
----------------------
   0 C :   -0.000633
   1 O :   -0.000983
   2 H :   -0.014066
   3 H :   -0.000007
   4 H :   -0.000235
   5 H :   -0.000003
   6 C :   -0.384448
   7 O :   -0.075977
   8 H :    0.159017
   9 H :    0.099676
  10 H :    0.119783
  11 H :    0.097877

  Mayer bond orders larger than 0.1
B(  6-C ,  7-O ) :   0.9808 B(  6-C ,  9-H ) :   0.9771 B(  6-C , 10-H ) :   0.9668
B(  6-C , 11-H ) :   0.9780 B(  7-O ,  8-H ) :   0.8962

Dispersion correction           -0.000242407
FINAL SINGLE POINT ENERGY      -115.730167659251

DIPOLE MOMENT
-------------
                                X             Y             Z
Electronic contribution:     -1.48061       0.19474       0.87536
Nuclear contribution   :      1.70679      -0.77483      -1.14782
                        -----------------------------------------
Total Dipole Moment    :      0.22618      -0.58009      -0.27246
                        -----------------------------------------
Magnitude (a.u.)       :      0.67963
Magnitude (Debye)      :      1.72747

Rotational constants in cm-1:     4.057207     0.822319     0.795682
Rotational constants in MHz : 121632.009870 24652.502861 23853.951630

                             ****ORCA TERMINATED NORMALLY****
TOTAL RUN TIME: 0 days 0 hours 1 minutes 32 seconds 728 msec
