                         Program Version 4.1.2  - RELEASE  -
|  1> #Run DFT-D3 single point of the dimer
|  2> ! wB97X-D3 def2-TZVP TIGHTSCF CHELPG PMODEL PAL8
|  3>
|  4> %base "5-79_DFT_AB"
|  5>
|  6> %scf
|  7> MaxIter 1000
|  8> end
|  9>
| 10> * xyz 0 1
| 11>   C                      -1.179900            -8.638037            -6.948018
| 12>   O                      -1.535437            -7.599694            -7.826611
| 13>   H                      -1.999492            -7.996814            -8.546439
| 14>   H                      -1.140443            -8.346784            -5.893805
| 15>   H                      -1.993029            -9.398908            -7.027883
| 16>   H                      -0.248926            -9.165004            -7.282007
| 17>   C                      2.145759             -7.640377            -5.295091
| 18>   O                      1.602418             -6.643994            -4.406657
| 19>   H                      1.492877             -5.865634            -4.983985
| 20>   H                      2.613263             -8.329677            -4.566801
| 21>   H                      1.370464             -8.215374            -5.818654
| 22>   H                      2.981365             -7.362654            -5.935000
| 23> *
| 24>
| 25> #Run DFT-D3 single point of the molecule with dimer basis set
| 26> $new_job
| 27> %base "5-79_DFT_A"
| 28> ! wB97X-D3 def2-TZVP TIGHTSCF CHELPG PMODEL
| 29>
| 30> %scf
| 31> MaxIter 1000
| 32> end
| 33>
| 34> * xyz 0 1
| 35>   C                      -1.179900            -8.638037            -6.948018
| 36>   O                      -1.535437            -7.599694            -7.826611
| 37>   H                      -1.999492            -7.996814            -8.546439
| 38>   H                      -1.140443            -8.346784            -5.893805
| 39>   H                      -1.993029            -9.398908            -7.027883
| 40>   H                      -0.248926            -9.165004            -7.282007
| 41>   C                    : 2.145759             -7.640377            -5.295091
| 42>   O                    : 1.602418             -6.643994            -4.406657
| 43>   H                    : 1.492877             -5.865634            -4.983985
| 44>   H                    : 2.613263             -8.329677            -4.566801
| 45>   H                    : 1.370464             -8.215374            -5.818654
| 46>   H                    : 2.981365             -7.362654            -5.935000
| 47> *
| 48>
| 49> #Run DFT-D3 single point of the particle with dimer basis set
| 50> $new_job
| 51> %base "5-79_DFT_B"
| 52> ! wB97X-D3 def2-TZVP TIGHTSCF CHELPG PMODEL
| 53>
| 54> %scf
| 55> MaxIter 1000
| 56> end
| 57>
| 58> * xyz 0 1
| 59>   C                    : -1.179900            -8.638037            -6.948018
| 60>   O                    : -1.535437            -7.599694            -7.826611
| 61>   H                    : -1.999492            -7.996814            -8.546439
| 62>   H                    : -1.140443            -8.346784            -5.893805
| 63>   H                    : -1.993029            -9.398908            -7.027883
| 64>   H                    : -0.248926            -9.165004            -7.282007
| 65>   C                      2.145759             -7.640377            -5.295091
| 66>   O                      1.602418             -6.643994            -4.406657
| 67>   H                      1.492877             -5.865634            -4.983985
| 68>   H                      2.613263             -8.329677            -4.566801
| 69>   H                      1.370464             -8.215374            -5.818654
| 70>   H                      2.981365             -7.362654            -5.935000
| 71> *
| 72>
| 73>                          ****END OF INPUT****
 Total Charge           Charge          ....    0
 Multiplicity           Mult            ....    1
 Number of Electrons    NEL             ....   36
Dispersion correction           -0.001497206
FINAL SINGLE POINT ENERGY      -231.465380132853
Dispersion correction           -0.000232871
FINAL SINGLE POINT ENERGY      -115.732694886739

CARTESIAN COORDINATES (ANGSTROEM)
---------------------------------
  C     -1.179900   -8.638037   -6.948018
  O     -1.535437   -7.599694   -7.826611
  H     -1.999492   -7.996814   -8.546439
  H     -1.140443   -8.346784   -5.893805
  H     -1.993029   -9.398908   -7.027883
  H     -0.248926   -9.165004   -7.282007
  C      2.145759   -7.640377   -5.295091
  O      1.602418   -6.643994   -4.406657
  H      1.492877   -5.865634   -4.983985
  H      2.613263   -8.329677   -4.566801
  H      1.370464   -8.215374   -5.818654
  H      2.981365   -7.362654   -5.935000

 Multiplicity           Mult            ....    1
 Number of Electrons    NEL             ....   18
 Basis Dimension        Dim             ....  172

ORBITAL ENERGIES
----------------

  NO   OCC          E(Eh)            E(eV)
   0   2.0000     -19.235591      -523.4271
   1   2.0000     -10.314735      -280.6782
   2   2.0000      -1.129471       -30.7345
   3   2.0000      -0.793508       -21.5925
   4   2.0000      -0.604817       -16.4579
   5   2.0000      -0.544663       -14.8210
   6   2.0000      -0.511556       -13.9201
   7   2.0000      -0.438150       -11.9227
   8   2.0000      -0.378903       -10.3105
   9   0.0000       0.085690         2.3317
  10   0.0000       0.117842         3.2066
  11   0.0000       0.148848         4.0504
  12   0.0000       0.170666         4.6441
  13   0.0000       0.190644         5.1877

MULLIKEN ATOMIC CHARGES
-----------------------
   0 C :    0.003788
   1 O :   -0.000215
   2 H :   -0.000008
   3 H :    0.000532
   4 H :    0.000450
   5 H :   -0.002333
   6 C :   -0.186604
   7 O :   -0.468092
   8 H :    0.311139
   9 H :    0.122361
  10 H :    0.100734
  11 H :    0.118248
Sum of atomic charges:   -0.0000000

LOEWDIN ATOMIC CHARGES
----------------------
   0 C :   -0.007820
   1 O :   -0.000021
   2 H :   -0.000011
   3 H :   -0.001658
   4 H :   -0.000029
   5 H :   -0.003973
   6 C :   -0.377596
   7 O :   -0.097317
   8 H :    0.175399
   9 H :    0.114436
  10 H :    0.102148
  11 H :    0.096442

  Mayer bond orders larger than 0.1
B(  6-C ,  7-O ) :   1.0027 B(  6-C ,  9-H ) :   0.9833 B(  6-C , 10-H ) :   0.9682
B(  6-C , 11-H ) :   0.9694 B(  7-O ,  8-H ) :   0.9043

Dispersion correction           -0.000261863
FINAL SINGLE POINT ENERGY      -115.731542436280

DIPOLE MOMENT
-------------
                                X             Y             Z
Electronic contribution:     -0.73836       1.30173       1.07328
Nuclear contribution   :      0.91156      -1.21359      -1.75985
                        -----------------------------------------
Total Dipole Moment    :      0.17321       0.08814      -0.68657
                        -----------------------------------------
Magnitude (a.u.)       :      0.71354
Magnitude (Debye)      :      1.81368

Rotational constants in cm-1:     4.230834     0.805623     0.783147
Rotational constants in MHz : 126837.208662 24151.979238 23478.161064

                             ****ORCA TERMINATED NORMALLY****
TOTAL RUN TIME: 0 days 0 hours 1 minutes 3 seconds 656 msec
