                         Program Version 4.1.2  - RELEASE  -
|  1> #Run DFT-D3 single point of the dimer
|  2> ! wB97X-D3 def2-TZVP TIGHTSCF CHELPG PMODEL PAL8
|  3>
|  4> %base "2-18_DFT_AB"
|  5>
|  6> %scf
|  7> MaxIter 1000
|  8> end
|  9>
| 10> * xyz 0 1
| 11>   C                      3.461109             3.222378             4.105244
| 12>   O                      3.157580             2.071432             3.453058
| 13>   H                      2.370845             1.638740             3.819682
| 14>   H                      3.982423             3.051816             5.032330
| 15>   H                      4.203252             3.873688             3.594400
| 16>   H                      2.649209             3.897304             4.300673
| 17>   C                      4.903913             0.406796             5.553629
| 18>   O                      4.965341             0.096374             6.927694
| 19>   H                      4.245651             0.443145             7.449929
| 20>   H                      3.890953             0.251996             5.036663
| 21>   H                      5.294555             1.436939             5.352639
| 22>   H                      5.521654             -0.336337            5.032475
| 23> *
| 24>
| 25> #Run DFT-D3 single point of the molecule with dimer basis set
| 26> $new_job
| 27> %base "2-18_DFT_A"
| 28> ! wB97X-D3 def2-TZVP TIGHTSCF CHELPG PMODEL
| 29>
| 30> %scf
| 31> MaxIter 1000
| 32> end
| 33>
| 34> * xyz 0 1
| 35>   C                      3.461109             3.222378             4.105244
| 36>   O                      3.157580             2.071432             3.453058
| 37>   H                      2.370845             1.638740             3.819682
| 38>   H                      3.982423             3.051816             5.032330
| 39>   H                      4.203252             3.873688             3.594400
| 40>   H                      2.649209             3.897304             4.300673
| 41>   C                    : 4.903913             0.406796             5.553629
| 42>   O                    : 4.965341             0.096374             6.927694
| 43>   H                    : 4.245651             0.443145             7.449929
| 44>   H                    : 3.890953             0.251996             5.036663
| 45>   H                    : 5.294555             1.436939             5.352639
| 46>   H                    : 5.521654             -0.336337            5.032475
| 47> *
| 48>
| 49> #Run DFT-D3 single point of the particle with dimer basis set
| 50> $new_job
| 51> %base "2-18_DFT_B"
| 52> ! wB97X-D3 def2-TZVP TIGHTSCF CHELPG PMODEL
| 53>
| 54> %scf
| 55> MaxIter 1000
| 56> end
| 57>
| 58> * xyz 0 1
| 59>   C                    : 3.461109             3.222378             4.105244
| 60>   O                    : 3.157580             2.071432             3.453058
| 61>   H                    : 2.370845             1.638740             3.819682
| 62>   H                    : 3.982423             3.051816             5.032330
| 63>   H                    : 4.203252             3.873688             3.594400
| 64>   H                    : 2.649209             3.897304             4.300673
| 65>   C                      4.903913             0.406796             5.553629
| 66>   O                      4.965341             0.096374             6.927694
| 67>   H                      4.245651             0.443145             7.449929
| 68>   H                      3.890953             0.251996             5.036663
| 69>   H                      5.294555             1.436939             5.352639
| 70>   H                      5.521654             -0.336337            5.032475
| 71> *
| 72>
| 73>                          ****END OF INPUT****
 Total Charge           Charge          ....    0
 Multiplicity           Mult            ....    1
 Number of Electrons    NEL             ....   36
Dispersion correction           -0.002094623
FINAL SINGLE POINT ENERGY      -231.463858179626
Dispersion correction           -0.000243364
FINAL SINGLE POINT ENERGY      -115.731453152733

CARTESIAN COORDINATES (ANGSTROEM)
---------------------------------
  C      3.461109    3.222378    4.105244
  O      3.157580    2.071432    3.453058
  H      2.370845    1.638740    3.819682
  H      3.982423    3.051816    5.032330
  H      4.203252    3.873688    3.594400
  H      2.649209    3.897304    4.300673
  C      4.903913    0.406796    5.553629
  O      4.965341    0.096374    6.927694
  H      4.245651    0.443145    7.449929
  H      3.890953    0.251996    5.036663
  H      5.294555    1.436939    5.352639
  H      5.521654   -0.336337    5.032475

 Multiplicity           Mult            ....    1
 Number of Electrons    NEL             ....   18
 Basis Dimension        Dim             ....  172

ORBITAL ENERGIES
----------------

  NO   OCC          E(Eh)            E(eV)
   0   2.0000     -19.229757      -523.2683
   1   2.0000     -10.322120      -280.8792
   2   2.0000      -1.135240       -30.8914
   3   2.0000      -0.794346       -21.6152
   4   2.0000      -0.610876       -16.6228
   5   2.0000      -0.542695       -14.7675
   6   2.0000      -0.520237       -14.1564
   7   2.0000      -0.422252       -11.4901
   8   2.0000      -0.375433       -10.2161
   9   0.0000       0.084017         2.2862
  10   0.0000       0.121696         3.3115
  11   0.0000       0.147614         4.0168
  12   0.0000       0.162929         4.4335
  13   0.0000       0.189776         5.1641

MULLIKEN ATOMIC CHARGES
-----------------------
   0 C :   -0.007506
   1 O :   -0.001777
   2 H :   -0.000646
   3 H :    0.004217
   4 H :    0.000806
   5 H :   -0.000244
   6 C :   -0.149649
   7 O :   -0.481932
   8 H :    0.317195
   9 H :    0.098277
  10 H :    0.103025
  11 H :    0.118232
Sum of atomic charges:   -0.0000000

LOEWDIN ATOMIC CHARGES
----------------------
   0 C :   -0.012366
   1 O :   -0.006604
   2 H :   -0.004575
   3 H :   -0.008499
   4 H :   -0.000241
   5 H :   -0.000120
   6 C :   -0.387996
   7 O :   -0.069570
   8 H :    0.162785
   9 H :    0.110133
  10 H :    0.107704
  11 H :    0.109348

  Mayer bond orders larger than 0.1
B(  6-C ,  7-O ) :   1.0062 B(  6-C ,  9-H ) :   0.9707 B(  6-C , 10-H ) :   0.9720
B(  6-C , 11-H ) :   0.9674 B(  7-O ,  8-H ) :   0.8949

Dispersion correction           -0.000283545
FINAL SINGLE POINT ENERGY      -115.733074971952

DIPOLE MOMENT
-------------
                                X             Y             Z
Electronic contribution:      0.17078      -0.40109       1.82805
Nuclear contribution   :     -0.65795       0.71752      -2.02585
                        -----------------------------------------
Total Dipole Moment    :     -0.48717       0.31643      -0.19779
                        -----------------------------------------
Magnitude (a.u.)       :      0.61366
Magnitude (Debye)      :      1.55981

Rotational constants in cm-1:     4.257418     0.811495     0.796230
Rotational constants in MHz : 127634.187574 24328.019791 23870.371016

                             ****ORCA TERMINATED NORMALLY****
TOTAL RUN TIME: 0 days 0 hours 5 minutes 42 seconds 601 msec
