                         Program Version 4.1.2  - RELEASE  -
|  1> #Run DFT-D3 single point of the dimer
|  2> ! wB97X-D3 def2-TZVP TIGHTSCF CHELPG PMODEL PAL8
|  3>
|  4> %base "18-6_DFT_AB"
|  5>
|  6> %scf
|  7> MaxIter 1000
|  8> end
|  9>
| 10> * xyz 0 1
| 11>   C                      0.886549             0.822237             10.406532
| 12>   O                      -0.359793            0.971877             9.692236
| 13>   H                      -0.550626            0.048280             9.716713
| 14>   H                      1.518922             1.710716             10.116938
| 15>   H                      0.664286             0.723875             11.450918
| 16>   H                      1.397309             -0.146132            10.165140
| 17>   C                      4.314791             1.944755             9.566462
| 18>   O                      4.388719             1.792061             10.983726
| 19>   H                      3.553498             1.371571             11.172228
| 20>   H                      5.240343             2.315913             9.168318
| 21>   H                      4.116550             0.993853             9.151503
| 22>   H                      3.430578             2.508991             9.255235
| 23> *
| 24>
| 25> #Run DFT-D3 single point of the molecule with dimer basis set
| 26> $new_job
| 27> %base "18-6_DFT_A"
| 28> ! wB97X-D3 def2-TZVP TIGHTSCF CHELPG PMODEL
| 29>
| 30> %scf
| 31> MaxIter 1000
| 32> end
| 33>
| 34> * xyz 0 1
| 35>   C                      0.886549             0.822237             10.406532
| 36>   O                      -0.359793            0.971877             9.692236
| 37>   H                      -0.550626            0.048280             9.716713
| 38>   H                      1.518922             1.710716             10.116938
| 39>   H                      0.664286             0.723875             11.450918
| 40>   H                      1.397309             -0.146132            10.165140
| 41>   C                    : 4.314791             1.944755             9.566462
| 42>   O                    : 4.388719             1.792061             10.983726
| 43>   H                    : 3.553498             1.371571             11.172228
| 44>   H                    : 5.240343             2.315913             9.168318
| 45>   H                    : 4.116550             0.993853             9.151503
| 46>   H                    : 3.430578             2.508991             9.255235
| 47> *
| 48>
| 49> #Run DFT-D3 single point of the particle with dimer basis set
| 50> $new_job
| 51> %base "18-6_DFT_B"
| 52> ! wB97X-D3 def2-TZVP TIGHTSCF CHELPG PMODEL
| 53>
| 54> %scf
| 55> MaxIter 1000
| 56> end
| 57>
| 58> * xyz 0 1
| 59>   C                    : 0.886549             0.822237             10.406532
| 60>   O                    : -0.359793            0.971877             9.692236
| 61>   H                    : -0.550626            0.048280             9.716713
| 62>   H                    : 1.518922             1.710716             10.116938
| 63>   H                    : 0.664286             0.723875             11.450918
| 64>   H                    : 1.397309             -0.146132            10.165140
| 65>   C                      4.314791             1.944755             9.566462
| 66>   O                      4.388719             1.792061             10.983726
| 67>   H                      3.553498             1.371571             11.172228
| 68>   H                      5.240343             2.315913             9.168318
| 69>   H                      4.116550             0.993853             9.151503
| 70>   H                      3.430578             2.508991             9.255235
| 71> *
| 72>
| 73>                          ****END OF INPUT****
 Total Charge           Charge          ....    0
 Multiplicity           Mult            ....    1
 Number of Electrons    NEL             ....   36
Dispersion correction           -0.001824324
FINAL SINGLE POINT ENERGY      -231.458306866582
Dispersion correction           -0.000209488
FINAL SINGLE POINT ENERGY      -115.725923634088

CARTESIAN COORDINATES (ANGSTROEM)
---------------------------------
  C      0.886549    0.822237   10.406532
  O     -0.359793    0.971877    9.692236
  H     -0.550626    0.048280    9.716713
  H      1.518922    1.710716   10.116938
  H      0.664286    0.723875   11.450918
  H      1.397309   -0.146132   10.165140
  C      4.314791    1.944755    9.566462
  O      4.388719    1.792061   10.983726
  H      3.553498    1.371571   11.172228
  H      5.240343    2.315913    9.168318
  H      4.116550    0.993853    9.151503
  H      3.430578    2.508991    9.255235

 Multiplicity           Mult            ....    1
 Number of Electrons    NEL             ....   18
 Basis Dimension        Dim             ....  172

ORBITAL ENERGIES
----------------

  NO   OCC          E(Eh)            E(eV)
   0   2.0000     -19.230086      -523.2773
   1   2.0000     -10.308301      -280.5031
   2   2.0000      -1.137604       -30.9558
   3   2.0000      -0.798365       -21.7246
   4   2.0000      -0.613598       -16.6969
   5   2.0000      -0.537555       -14.6276
   6   2.0000      -0.529033       -14.3957
   7   2.0000      -0.448733       -12.2106
   8   2.0000      -0.371217       -10.1013
   9   0.0000       0.068142         1.8542
  10   0.0000       0.132288         3.5997
  11   0.0000       0.149545         4.0693
  12   0.0000       0.169177         4.6035
  13   0.0000       0.192143         5.2285

MULLIKEN ATOMIC CHARGES
-----------------------
   0 C :   -0.002368
   1 O :    0.000016
   2 H :   -0.000004
   3 H :    0.000971
   4 H :    0.000132
   5 H :   -0.000340
   6 C :   -0.178695
   7 O :   -0.463191
   8 H :    0.309401
   9 H :    0.128099
  10 H :    0.105061
  11 H :    0.100917
Sum of atomic charges:    0.0000000

LOEWDIN ATOMIC CHARGES
----------------------
   0 C :   -0.007536
   1 O :   -0.000031
   2 H :   -0.000018
   3 H :   -0.006228
   4 H :   -0.000271
   5 H :   -0.000605
   6 C :   -0.366175
   7 O :   -0.078086
   8 H :    0.166883
   9 H :    0.105085
  10 H :    0.089127
  11 H :    0.097852

  Mayer bond orders larger than 0.1
B(  6-C ,  7-O ) :   0.9900 B(  6-C ,  9-H ) :   0.9747 B(  6-C , 10-H ) :   0.9859
B(  6-C , 11-H ) :   0.9751 B(  7-O ,  8-H ) :   0.9126

Dispersion correction           -0.000208495
FINAL SINGLE POINT ENERGY      -115.732024304899

DIPOLE MOMENT
-------------
                                X             Y             Z
Electronic contribution:      0.34657      -0.02848       1.79345
Nuclear contribution   :     -0.89058      -0.19754      -2.25053
                        -----------------------------------------
Total Dipole Moment    :     -0.54401      -0.22602      -0.45708
                        -----------------------------------------
Magnitude (a.u.)       :      0.74562
Magnitude (Debye)      :      1.89522

Rotational constants in cm-1:     4.345754     0.839010     0.796011
Rotational constants in MHz : 130282.424250 25152.881026 23863.805338

                             ****ORCA TERMINATED NORMALLY****
TOTAL RUN TIME: 0 days 0 hours 0 minutes 54 seconds 490 msec
