                         Program Version 4.1.2  - RELEASE  -
|  1> #Run DFT-D3 single point of the dimer
|  2> ! wB97X-D3 def2-TZVP TIGHTSCF CHELPG PMODEL PAL8
|  3>
|  4> %base "21-164_DFT_AB"
|  5>
|  6> %scf
|  7> MaxIter 1000
|  8> end
|  9>
| 10> * xyz 0 1
| 11>   C                      7.864650             8.323932             0.801968
| 12>   O                      6.679575             8.348322             1.593540
| 13>   H                      6.951194             8.365626             2.475880
| 14>   H                      8.453539             7.464341             1.079208
| 15>   H                      7.598967             8.207350             -0.210237
| 16>   H                      8.404368             9.332742             0.941453
| 17>   C                      7.219055             7.169444             4.966093
| 18>   O                      7.661412             8.280458             4.280042
| 19>   H                      8.536713             8.035610             3.951400
| 20>   H                      6.173010             6.995546             4.965965
| 21>   H                      7.549404             6.229393             4.492122
| 22>   H                      7.548917             7.196411             6.057170
| 23> *
| 24>
| 25> #Run DFT-D3 single point of the molecule with dimer basis set
| 26> $new_job
| 27> %base "21-164_DFT_A"
| 28> ! wB97X-D3 def2-TZVP TIGHTSCF CHELPG PMODEL
| 29>
| 30> %scf
| 31> MaxIter 1000
| 32> end
| 33>
| 34> * xyz 0 1
| 35>   C                      7.864650             8.323932             0.801968
| 36>   O                      6.679575             8.348322             1.593540
| 37>   H                      6.951194             8.365626             2.475880
| 38>   H                      8.453539             7.464341             1.079208
| 39>   H                      7.598967             8.207350             -0.210237
| 40>   H                      8.404368             9.332742             0.941453
| 41>   C                    : 7.219055             7.169444             4.966093
| 42>   O                    : 7.661412             8.280458             4.280042
| 43>   H                    : 8.536713             8.035610             3.951400
| 44>   H                    : 6.173010             6.995546             4.965965
| 45>   H                    : 7.549404             6.229393             4.492122
| 46>   H                    : 7.548917             7.196411             6.057170
| 47> *
| 48>
| 49> #Run DFT-D3 single point of the particle with dimer basis set
| 50> $new_job
| 51> %base "21-164_DFT_B"
| 52> ! wB97X-D3 def2-TZVP TIGHTSCF CHELPG PMODEL
| 53>
| 54> %scf
| 55> MaxIter 1000
| 56> end
| 57>
| 58> * xyz 0 1
| 59>   C                    : 7.864650             8.323932             0.801968
| 60>   O                    : 6.679575             8.348322             1.593540
| 61>   H                    : 6.951194             8.365626             2.475880
| 62>   H                    : 8.453539             7.464341             1.079208
| 63>   H                    : 7.598967             8.207350             -0.210237
| 64>   H                    : 8.404368             9.332742             0.941453
| 65>   C                      7.219055             7.169444             4.966093
| 66>   O                      7.661412             8.280458             4.280042
| 67>   H                      8.536713             8.035610             3.951400
| 68>   H                      6.173010             6.995546             4.965965
| 69>   H                      7.549404             6.229393             4.492122
| 70>   H                      7.548917             7.196411             6.057170
| 71> *
| 72>
| 73>                          ****END OF INPUT****
 Total Charge           Charge          ....    0
 Multiplicity           Mult            ....    1
 Number of Electrons    NEL             ....   36
Dispersion correction           -0.001919663
FINAL SINGLE POINT ENERGY      -231.469400749830
Dispersion correction           -0.000224518
FINAL SINGLE POINT ENERGY      -115.732515739740

CARTESIAN COORDINATES (ANGSTROEM)
---------------------------------
  C      7.864650    8.323932    0.801968
  O      6.679575    8.348322    1.593540
  H      6.951194    8.365626    2.475880
  H      8.453539    7.464341    1.079208
  H      7.598967    8.207350   -0.210237
  H      8.404368    9.332742    0.941453
  C      7.219055    7.169444    4.966093
  O      7.661412    8.280458    4.280042
  H      8.536713    8.035610    3.951400
  H      6.173010    6.995546    4.965965
  H      7.549404    6.229393    4.492122
  H      7.548917    7.196411    6.057170

 Multiplicity           Mult            ....    1
 Number of Electrons    NEL             ....   18
 Basis Dimension        Dim             ....  172

ORBITAL ENERGIES
----------------

  NO   OCC          E(Eh)            E(eV)
   0   2.0000     -19.235983      -523.4377
   1   2.0000     -10.312796      -280.6254
   2   2.0000      -1.151143       -31.3242
   3   2.0000      -0.793897       -21.6030
   4   2.0000      -0.617900       -16.8139
   5   2.0000      -0.546635       -14.8747
   6   2.0000      -0.535135       -14.5618
   7   2.0000      -0.428558       -11.6617
   8   2.0000      -0.374989       -10.2040
   9   0.0000       0.085360         2.3228
  10   0.0000       0.130156         3.5417
  11   0.0000       0.151505         4.1227
  12   0.0000       0.182790         4.9740
  13   0.0000       0.193738         5.2719

MULLIKEN ATOMIC CHARGES
-----------------------
   0 C :   -0.006019
   1 O :    0.000773
   2 H :   -0.007007
   3 H :   -0.001197
   4 H :   -0.000644
   5 H :    0.000497
   6 C :   -0.173556
   7 O :   -0.454438
   8 H :    0.325327
   9 H :    0.123861
  10 H :    0.095122
  11 H :    0.097281
Sum of atomic charges:   -0.0000000

LOEWDIN ATOMIC CHARGES
----------------------
   0 C :   -0.005224
   1 O :   -0.006333
   2 H :   -0.043663
   3 H :   -0.000972
   4 H :   -0.000131
   5 H :   -0.000261
   6 C :   -0.420790
   7 O :   -0.006637
   8 H :    0.184218
   9 H :    0.098383
  10 H :    0.097300
  11 H :    0.104111

  Mayer bond orders larger than 0.1
B(  6-C ,  7-O ) :   0.9987 B(  6-C ,  9-H ) :   0.9744 B(  6-C , 10-H ) :   0.9851
B(  6-C , 11-H ) :   0.9724 B(  7-O ,  8-H ) :   0.8926

Dispersion correction           -0.000234984
FINAL SINGLE POINT ENERGY      -115.730973657926

DIPOLE MOMENT
-------------
                                X             Y             Z
Electronic contribution:      0.42237       1.67329      -0.93309
Nuclear contribution   :     -0.06183      -2.25456       0.95444
                        -----------------------------------------
Total Dipole Moment    :      0.36055      -0.58127       0.02134
                        -----------------------------------------
Magnitude (a.u.)       :      0.68434
Magnitude (Debye)      :      1.73945

Rotational constants in cm-1:     4.326078     0.851681     0.832973
Rotational constants in MHz : 129692.565461 25532.763451 24971.894274

                             ****ORCA TERMINATED NORMALLY****
TOTAL RUN TIME: 0 days 0 hours 1 minutes 8 seconds 359 msec
