                         Program Version 4.1.2  - RELEASE  -
|  1> #Run DFT-D3 single point of the dimer
|  2> ! wB97X-D3 def2-TZVP TIGHTSCF CHELPG PMODEL PAL8
|  3>
|  4> %base "7-6_DFT_AB"
|  5>
|  6> %scf
|  7> MaxIter 1000
|  8> end
|  9>
| 10> * xyz 0 1
| 11>   C                      0.107441             2.741054             -3.055841
| 12>   O                      0.093632             2.479985             -1.676650
| 13>   H                      -0.116713            3.352322             -1.369150
| 14>   H                      0.781831             3.560905             -3.329535
| 15>   H                      0.429337             1.873700             -3.602147
| 16>   H                      -0.921354            2.900499             -3.482296
| 17>   C                      -4.689874            2.477957             -5.657461
| 18>   O                      -4.070348            3.742163             -5.395652
| 19>   H                      -3.950294            3.802633             -4.417182
| 20>   H                      -5.262581            2.615438             -6.581683
| 21>   H                      -3.949888            1.703794             -5.863848
| 22>   H                      -5.266612            2.155315             -4.816156
| 23> *
| 24>
| 25> #Run DFT-D3 single point of the molecule with dimer basis set
| 26> $new_job
| 27> %base "7-6_DFT_A"
| 28> ! wB97X-D3 def2-TZVP TIGHTSCF CHELPG PMODEL
| 29>
| 30> %scf
| 31> MaxIter 1000
| 32> end
| 33>
| 34> * xyz 0 1
| 35>   C                      0.107441             2.741054             -3.055841
| 36>   O                      0.093632             2.479985             -1.676650
| 37>   H                      -0.116713            3.352322             -1.369150
| 38>   H                      0.781831             3.560905             -3.329535
| 39>   H                      0.429337             1.873700             -3.602147
| 40>   H                      -0.921354            2.900499             -3.482296
| 41>   C                    : -4.689874            2.477957             -5.657461
| 42>   O                    : -4.070348            3.742163             -5.395652
| 43>   H                    : -3.950294            3.802633             -4.417182
| 44>   H                    : -5.262581            2.615438             -6.581683
| 45>   H                    : -3.949888            1.703794             -5.863848
| 46>   H                    : -5.266612            2.155315             -4.816156
| 47> *
| 48>
| 49> #Run DFT-D3 single point of the particle with dimer basis set
| 50> $new_job
| 51> %base "7-6_DFT_B"
| 52> ! wB97X-D3 def2-TZVP TIGHTSCF CHELPG PMODEL
| 53>
| 54> %scf
| 55> MaxIter 1000
| 56> end
| 57>
| 58> * xyz 0 1
| 59>   C                    : 0.107441             2.741054             -3.055841
| 60>   O                    : 0.093632             2.479985             -1.676650
| 61>   H                    : -0.116713            3.352322             -1.369150
| 62>   H                    : 0.781831             3.560905             -3.329535
| 63>   H                    : 0.429337             1.873700             -3.602147
| 64>   H                    : -0.921354            2.900499             -3.482296
| 65>   C                      -4.689874            2.477957             -5.657461
| 66>   O                      -4.070348            3.742163             -5.395652
| 67>   H                      -3.950294            3.802633             -4.417182
| 68>   H                      -5.262581            2.615438             -6.581683
| 69>   H                      -3.949888            1.703794             -5.863848
| 70>   H                      -5.266612            2.155315             -4.816156
| 71> *
| 72>
| 73>                          ****END OF INPUT****
 Total Charge           Charge          ....    0
 Multiplicity           Mult            ....    1
 Number of Electrons    NEL             ....   36
Dispersion correction           -0.000807040
FINAL SINGLE POINT ENERGY      -231.467619908408
Dispersion correction           -0.000223019
FINAL SINGLE POINT ENERGY      -115.732554555138

CARTESIAN COORDINATES (ANGSTROEM)
---------------------------------
  C      0.107441    2.741054   -3.055841
  O      0.093632    2.479985   -1.676650
  H     -0.116713    3.352322   -1.369150
  H      0.781831    3.560905   -3.329535
  H      0.429337    1.873700   -3.602147
  H     -0.921354    2.900499   -3.482296
  C     -4.689874    2.477957   -5.657461
  O     -4.070348    3.742163   -5.395652
  H     -3.950294    3.802633   -4.417182
  H     -5.262581    2.615438   -6.581683
  H     -3.949888    1.703794   -5.863848
  H     -5.266612    2.155315   -4.816156

 Multiplicity           Mult            ....    1
 Number of Electrons    NEL             ....   18
 Basis Dimension        Dim             ....  172

ORBITAL ENERGIES
----------------

  NO   OCC          E(Eh)            E(eV)
   0   2.0000     -19.231108      -523.3051
   1   2.0000     -10.311122      -280.5799
   2   2.0000      -1.125789       -30.6343
   3   2.0000      -0.794127       -21.6093
   4   2.0000      -0.608440       -16.5565
   5   2.0000      -0.536926       -14.6105
   6   2.0000      -0.523784       -14.2529
   7   2.0000      -0.440325       -11.9818
   8   2.0000      -0.370834       -10.0909
   9   0.0000       0.082338         2.2405
  10   0.0000       0.113912         3.0997
  11   0.0000       0.155009         4.2180
  12   0.0000       0.166205         4.5227
  13   0.0000       0.193161         5.2562

MULLIKEN ATOMIC CHARGES
-----------------------
   0 C :    0.002509
   1 O :   -0.000023
   2 H :   -0.000027
   3 H :   -0.000091
   4 H :   -0.000119
   5 H :   -0.005396
   6 C :   -0.168665
   7 O :   -0.476640
   8 H :    0.314037
   9 H :    0.120826
  10 H :    0.103054
  11 H :    0.110535
Sum of atomic charges:   -0.0000000

LOEWDIN ATOMIC CHARGES
----------------------
   0 C :   -0.000144
   1 O :   -0.000007
   2 H :   -0.000001
   3 H :   -0.000002
   4 H :   -0.000003
   5 H :   -0.001507
   6 C :   -0.370854
   7 O :   -0.104311
   8 H :    0.182002
   9 H :    0.109058
  10 H :    0.094238
  11 H :    0.091530

  Mayer bond orders larger than 0.1
B(  6-C ,  7-O ) :   1.0034 B(  6-C ,  9-H ) :   0.9777 B(  6-C , 10-H ) :   0.9713
B(  6-C , 11-H ) :   0.9814 B(  7-O ,  8-H ) :   0.8985

Dispersion correction           -0.000240506
FINAL SINGLE POINT ENERGY      -115.734541045953

DIPOLE MOMENT
-------------
                                X             Y             Z
Electronic contribution:      0.69705       1.58480       0.21800
Nuclear contribution   :     -0.88568      -2.06002       0.29084
                        -----------------------------------------
Total Dipole Moment    :     -0.18863      -0.47522       0.50884
                        -----------------------------------------
Magnitude (a.u.)       :      0.72134
Magnitude (Debye)      :      1.83350

Rotational constants in cm-1:     4.226208     0.826225     0.787269
Rotational constants in MHz : 126698.522970 24769.587914 23601.741807

                             ****ORCA TERMINATED NORMALLY****
TOTAL RUN TIME: 0 days 0 hours 1 minutes 9 seconds 425 msec
