                         Program Version 4.1.2  - RELEASE  -
|  1> #Run DFT-D3 single point of the dimer
|  2> ! wB97X-D3 def2-TZVP TIGHTSCF CHELPG PMODEL PAL8
|  3>
|  4> %base "9-77_DFT_AB"
|  5>
|  6> %scf
|  7> MaxIter 1000
|  8> end
|  9>
| 10> * xyz 0 1
| 11>   C                      -6.988085            5.917320             -1.756806
| 12>   O                      -5.841079            5.346315             -1.198149
| 13>   H                      -6.238028            4.725105             -0.596400
| 14>   H                      -7.469596            5.138823             -2.402609
| 15>   H                      -7.670168            6.304700             -1.043612
| 16>   H                      -6.732474            6.712058             -2.340388
| 17>   C                      -4.723180            2.478515             -4.752313
| 18>   O                      -5.544233            3.373510             -5.366435
| 19>   H                      -5.971417            2.996121             -6.150473
| 20>   H                      -5.273834            1.547178             -4.698938
| 21>   H                      -3.747039            2.419369             -5.248474
| 22>   H                      -4.535337            2.705505             -3.659405
| 23> *
| 24>
| 25> #Run DFT-D3 single point of the molecule with dimer basis set
| 26> $new_job
| 27> %base "9-77_DFT_A"
| 28> ! wB97X-D3 def2-TZVP TIGHTSCF CHELPG PMODEL
| 29>
| 30> %scf
| 31> MaxIter 1000
| 32> end
| 33>
| 34> * xyz 0 1
| 35>   C                      -6.988085            5.917320             -1.756806
| 36>   O                      -5.841079            5.346315             -1.198149
| 37>   H                      -6.238028            4.725105             -0.596400
| 38>   H                      -7.469596            5.138823             -2.402609
| 39>   H                      -7.670168            6.304700             -1.043612
| 40>   H                      -6.732474            6.712058             -2.340388
| 41>   C                    : -4.723180            2.478515             -4.752313
| 42>   O                    : -5.544233            3.373510             -5.366435
| 43>   H                    : -5.971417            2.996121             -6.150473
| 44>   H                    : -5.273834            1.547178             -4.698938
| 45>   H                    : -3.747039            2.419369             -5.248474
| 46>   H                    : -4.535337            2.705505             -3.659405
| 47> *
| 48>
| 49> #Run DFT-D3 single point of the particle with dimer basis set
| 50> $new_job
| 51> %base "9-77_DFT_B"
| 52> ! wB97X-D3 def2-TZVP TIGHTSCF CHELPG PMODEL
| 53>
| 54> %scf
| 55> MaxIter 1000
| 56> end
| 57>
| 58> * xyz 0 1
| 59>   C                    : -6.988085            5.917320             -1.756806
| 60>   O                    : -5.841079            5.346315             -1.198149
| 61>   H                    : -6.238028            4.725105             -0.596400
| 62>   H                    : -7.469596            5.138823             -2.402609
| 63>   H                    : -7.670168            6.304700             -1.043612
| 64>   H                    : -6.732474            6.712058             -2.340388
| 65>   C                      -4.723180            2.478515             -4.752313
| 66>   O                      -5.544233            3.373510             -5.366435
| 67>   H                      -5.971417            2.996121             -6.150473
| 68>   H                      -5.273834            1.547178             -4.698938
| 69>   H                      -3.747039            2.419369             -5.248474
| 70>   H                      -4.535337            2.705505             -3.659405
| 71> *
| 72>
| 73>                          ****END OF INPUT****
 Total Charge           Charge          ....    0
 Multiplicity           Mult            ....    1
 Number of Electrons    NEL             ....   36
Dispersion correction           -0.000859305
FINAL SINGLE POINT ENERGY      -231.459871507459
Dispersion correction           -0.000197776
FINAL SINGLE POINT ENERGY      -115.729311834154

CARTESIAN COORDINATES (ANGSTROEM)
---------------------------------
  C     -6.988085    5.917320   -1.756806
  O     -5.841079    5.346315   -1.198149
  H     -6.238028    4.725105   -0.596400
  H     -7.469596    5.138823   -2.402609
  H     -7.670168    6.304700   -1.043612
  H     -6.732474    6.712058   -2.340388
  C     -4.723180    2.478515   -4.752313
  O     -5.544233    3.373510   -5.366435
  H     -5.971417    2.996121   -6.150473
  H     -5.273834    1.547178   -4.698938
  H     -3.747039    2.419369   -5.248474
  H     -4.535337    2.705505   -3.659405

 Multiplicity           Mult            ....    1
 Number of Electrons    NEL             ....   18
 Basis Dimension        Dim             ....  172

ORBITAL ENERGIES
----------------

  NO   OCC          E(Eh)            E(eV)
   0   2.0000     -19.227500      -523.2069
   1   2.0000     -10.311018      -280.5771
   2   2.0000      -1.149257       -31.2729
   3   2.0000      -0.791159       -21.5285
   4   2.0000      -0.616286       -16.7700
   5   2.0000      -0.556951       -15.1554
   6   2.0000      -0.532728       -14.4963
   7   2.0000      -0.413351       -11.2479
   8   2.0000      -0.371747       -10.1158
   9   0.0000       0.091845         2.4992
  10   0.0000       0.115941         3.1549
  11   0.0000       0.150181         4.0866
  12   0.0000       0.177246         4.8231
  13   0.0000       0.193667         5.2700

MULLIKEN ATOMIC CHARGES
-----------------------
   0 C :    0.000126
   1 O :   -0.000026
   2 H :   -0.000041
   3 H :   -0.001134
   4 H :   -0.000049
   5 H :    0.000031
   6 C :   -0.148524
   7 O :   -0.473025
   8 H :    0.322260
   9 H :    0.096668
  10 H :    0.095462
  11 H :    0.108252
Sum of atomic charges:   -0.0000000

LOEWDIN ATOMIC CHARGES
----------------------
   0 C :   -0.000268
   1 O :   -0.000083
   2 H :   -0.000044
   3 H :   -0.000483
   4 H :   -0.000009
   5 H :   -0.000014
   6 C :   -0.430573
   7 O :   -0.046760
   8 H :    0.179071
   9 H :    0.093278
  10 H :    0.092974
  11 H :    0.112912

  Mayer bond orders larger than 0.1
B(  6-C ,  7-O ) :   1.0018 B(  6-C ,  9-H ) :   0.9924 B(  6-C , 10-H ) :   0.9735
B(  6-C , 11-H ) :   0.9684 B(  7-O ,  8-H ) :   0.8891

Dispersion correction           -0.000225324
FINAL SINGLE POINT ENERGY      -115.730192348117

DIPOLE MOMENT
-------------
                                X             Y             Z
Electronic contribution:     -1.00355       1.28310      -0.80362
Nuclear contribution   :      1.01198      -1.87194       0.53305
                        -----------------------------------------
Total Dipole Moment    :      0.00843      -0.58884      -0.27057
                        -----------------------------------------
Magnitude (a.u.)       :      0.64808
Magnitude (Debye)      :      1.64730

Rotational constants in cm-1:     4.294087     0.871141     0.851503
Rotational constants in MHz : 128733.475662 26116.144744 25527.423569

                             ****ORCA TERMINATED NORMALLY****
TOTAL RUN TIME: 0 days 0 hours 0 minutes 41 seconds 596 msec
