                         Program Version 4.1.2  - RELEASE  -
|  1> #Run DFT-D3 single point of the dimer
|  2> ! wB97X-D3 def2-TZVP TIGHTSCF CHELPG PMODEL PAL8
|  3>
|  4> %base "11-5_DFT_AB"
|  5>
|  6> %scf
|  7> MaxIter 1000
|  8> end
|  9>
| 10> * xyz 0 1
| 11>   C                      -2.148013            2.129847             1.911966
| 12>   O                      -0.703100            2.202816             2.039990
| 13>   H                      -0.327344            2.930984             1.522731
| 14>   H                      -2.414317            2.238284             0.914172
| 15>   H                      -2.582117            1.155431             2.198879
| 16>   H                      -2.594961            2.946416             2.554262
| 17>   C                      0.226157             0.355047             4.442395
| 18>   O                      -0.489259            -0.346541            3.477993
| 19>   H                      -0.732001            0.204374             2.709771
| 20>   H                      -0.178238            1.314846             4.774806
| 21>   H                      0.258493             -0.262745            5.341375
| 22>   H                      1.201285             0.667165             4.062171
| 23> *
| 24>
| 25> #Run DFT-D3 single point of the molecule with dimer basis set
| 26> $new_job
| 27> %base "11-5_DFT_A"
| 28> ! wB97X-D3 def2-TZVP TIGHTSCF CHELPG PMODEL
| 29>
| 30> %scf
| 31> MaxIter 1000
| 32> end
| 33>
| 34> * xyz 0 1
| 35>   C                      -2.148013            2.129847             1.911966
| 36>   O                      -0.703100            2.202816             2.039990
| 37>   H                      -0.327344            2.930984             1.522731
| 38>   H                      -2.414317            2.238284             0.914172
| 39>   H                      -2.582117            1.155431             2.198879
| 40>   H                      -2.594961            2.946416             2.554262
| 41>   C                    : 0.226157             0.355047             4.442395
| 42>   O                    : -0.489259            -0.346541            3.477993
| 43>   H                    : -0.732001            0.204374             2.709771
| 44>   H                    : -0.178238            1.314846             4.774806
| 45>   H                    : 0.258493             -0.262745            5.341375
| 46>   H                    : 1.201285             0.667165             4.062171
| 47> *
| 48>
| 49> #Run DFT-D3 single point of the particle with dimer basis set
| 50> $new_job
| 51> %base "11-5_DFT_B"
| 52> ! wB97X-D3 def2-TZVP TIGHTSCF CHELPG PMODEL
| 53>
| 54> %scf
| 55> MaxIter 1000
| 56> end
| 57>
| 58> * xyz 0 1
| 59>   C                    : -2.148013            2.129847             1.911966
| 60>   O                    : -0.703100            2.202816             2.039990
| 61>   H                    : -0.327344            2.930984             1.522731
| 62>   H                    : -2.414317            2.238284             0.914172
| 63>   H                    : -2.582117            1.155431             2.198879
| 64>   H                    : -2.594961            2.946416             2.554262
| 65>   C                      0.226157             0.355047             4.442395
| 66>   O                      -0.489259            -0.346541            3.477993
| 67>   H                      -0.732001            0.204374             2.709771
| 68>   H                      -0.178238            1.314846             4.774806
| 69>   H                      0.258493             -0.262745            5.341375
| 70>   H                      1.201285             0.667165             4.062171
| 71> *
| 72>
| 73>                          ****END OF INPUT****
 Total Charge           Charge          ....    0
 Multiplicity           Mult            ....    1
 Number of Electrons    NEL             ....   36
Dispersion correction           -0.002176351
FINAL SINGLE POINT ENERGY      -231.469963313413
Dispersion correction           -0.000260017
FINAL SINGLE POINT ENERGY      -115.730293213003

CARTESIAN COORDINATES (ANGSTROEM)
---------------------------------
  C     -2.148013    2.129847    1.911966
  O     -0.703100    2.202816    2.039990
  H     -0.327344    2.930984    1.522731
  H     -2.414317    2.238284    0.914172
  H     -2.582117    1.155431    2.198879
  H     -2.594961    2.946416    2.554262
  C      0.226157    0.355047    4.442395
  O     -0.489259   -0.346541    3.477993
  H     -0.732001    0.204374    2.709771
  H     -0.178238    1.314846    4.774806
  H      0.258493   -0.262745    5.341375
  H      1.201285    0.667165    4.062171

 Multiplicity           Mult            ....    1
 Number of Electrons    NEL             ....   18
 Basis Dimension        Dim             ....  172

ORBITAL ENERGIES
----------------

  NO   OCC          E(Eh)            E(eV)
   0   2.0000     -19.232977      -523.3559
   1   2.0000     -10.311020      -280.5771
   2   2.0000      -1.138956       -30.9926
   3   2.0000      -0.797088       -21.6899
   4   2.0000      -0.621372       -16.9084
   5   2.0000      -0.543808       -14.7978
   6   2.0000      -0.521754       -14.1976
   7   2.0000      -0.432526       -11.7696
   8   2.0000      -0.370550       -10.0832
   9   0.0000       0.068605         1.8668
  10   0.0000       0.139358         3.7921
  11   0.0000       0.150990         4.1086
  12   0.0000       0.160911         4.3786
  13   0.0000       0.189161         5.1473

MULLIKEN ATOMIC CHARGES
-----------------------
   0 C :   -0.002528
   1 O :   -0.003844
   2 H :   -0.000295
   3 H :   -0.000078
   4 H :   -0.005784
   5 H :    0.000200
   6 C :   -0.144931
   7 O :   -0.473903
   8 H :    0.321047
   9 H :    0.092157
  10 H :    0.124256
  11 H :    0.093704
Sum of atomic charges:    0.0000000

LOEWDIN ATOMIC CHARGES
----------------------
   0 C :   -0.011394
   1 O :   -0.013228
   2 H :   -0.000476
   3 H :   -0.000157
   4 H :   -0.005557
   5 H :   -0.000157
   6 C :   -0.401659
   7 O :   -0.050181
   8 H :    0.186484
   9 H :    0.091907
  10 H :    0.111140
  11 H :    0.093278

  Mayer bond orders larger than 0.1
B(  6-C ,  7-O ) :   0.9970 B(  6-C ,  9-H ) :   0.9709 B(  6-C , 10-H ) :   0.9739
B(  6-C , 11-H ) :   0.9843 B(  7-O ,  8-H ) :   0.8962

Dispersion correction           -0.000250449
FINAL SINGLE POINT ENERGY      -115.734092627366

DIPOLE MOMENT
-------------
                                X             Y             Z
Electronic contribution:     -0.93109      -1.09486      -1.18438
Nuclear contribution   :      1.04418       1.72208       1.07744
                        -----------------------------------------
Total Dipole Moment    :      0.11309       0.62722      -0.10694
                        -----------------------------------------
Magnitude (a.u.)       :      0.64624
Magnitude (Debye)      :      1.64262

Rotational constants in cm-1:     4.400668     0.847396     0.808869
Rotational constants in MHz : 131928.697784 25404.288225 24249.283653

                             ****ORCA TERMINATED NORMALLY****
TOTAL RUN TIME: 0 days 0 hours 1 minutes 12 seconds 598 msec
