                         Program Version 4.1.2  - RELEASE  -
|  1> #Run DFT-D3 single point of the dimer
|  2> ! wB97X-D3 def2-TZVP TIGHTSCF CHELPG PMODEL PAL8
|  3>
|  4> %base "3-114_DFT_AB"
|  5>
|  6> %scf
|  7> MaxIter 1000
|  8> end
|  9>
| 10> * xyz 0 1
| 11>   C                      0.989700             0.103803             9.865704
| 12>   O                      1.265327             0.630240             11.214209
| 13>   H                      0.451374             1.012931             11.587193
| 14>   H                      0.426579             -0.844866            9.908428
| 15>   H                      0.413281             0.719244             9.217680
| 16>   H                      1.945017             -0.202523            9.432650
| 17>   C                      -1.061053            5.301009             11.263492
| 18>   O                      -1.295647            4.489598             10.101776
| 19>   H                      -1.351680            3.540695             10.358751
| 20>   H                      -0.103723            5.314560             11.688800
| 21>   H                      -1.275487            6.334969             11.016867
| 22>   H                      -1.821840            4.945084             11.969522
| 23> *
| 24>
| 25> #Run DFT-D3 single point of the molecule with dimer basis set
| 26> $new_job
| 27> %base "3-114_DFT_A"
| 28> ! wB97X-D3 def2-TZVP TIGHTSCF CHELPG PMODEL
| 29>
| 30> %scf
| 31> MaxIter 1000
| 32> end
| 33>
| 34> * xyz 0 1
| 35>   C                      0.989700             0.103803             9.865704
| 36>   O                      1.265327             0.630240             11.214209
| 37>   H                      0.451374             1.012931             11.587193
| 38>   H                      0.426579             -0.844866            9.908428
| 39>   H                      0.413281             0.719244             9.217680
| 40>   H                      1.945017             -0.202523            9.432650
| 41>   C                    : -1.061053            5.301009             11.263492
| 42>   O                    : -1.295647            4.489598             10.101776
| 43>   H                    : -1.351680            3.540695             10.358751
| 44>   H                    : -0.103723            5.314560             11.688800
| 45>   H                    : -1.275487            6.334969             11.016867
| 46>   H                    : -1.821840            4.945084             11.969522
| 47> *
| 48>
| 49> #Run DFT-D3 single point of the particle with dimer basis set
| 50> $new_job
| 51> %base "3-114_DFT_B"
| 52> ! wB97X-D3 def2-TZVP TIGHTSCF CHELPG PMODEL
| 53>
| 54> %scf
| 55> MaxIter 1000
| 56> end
| 57>
| 58> * xyz 0 1
| 59>   C                    : 0.989700             0.103803             9.865704
| 60>   O                    : 1.265327             0.630240             11.214209
| 61>   H                    : 0.451374             1.012931             11.587193
| 62>   H                    : 0.426579             -0.844866            9.908428
| 63>   H                    : 0.413281             0.719244             9.217680
| 64>   H                    : 1.945017             -0.202523            9.432650
| 65>   C                      -1.061053            5.301009             11.263492
| 66>   O                      -1.295647            4.489598             10.101776
| 67>   H                      -1.351680            3.540695             10.358751
| 68>   H                      -0.103723            5.314560             11.688800
| 69>   H                      -1.275487            6.334969             11.016867
| 70>   H                      -1.821840            4.945084             11.969522
| 71> *
| 72>
| 73>                          ****END OF INPUT****
 Total Charge           Charge          ....    0
 Multiplicity           Mult            ....    1
 Number of Electrons    NEL             ....   36
Dispersion correction           -0.000942235
FINAL SINGLE POINT ENERGY      -231.461854731745
Dispersion correction           -0.000282072
FINAL SINGLE POINT ENERGY      -115.731823799391

CARTESIAN COORDINATES (ANGSTROEM)
---------------------------------
  C      0.989700    0.103803    9.865704
  O      1.265327    0.630240   11.214209
  H      0.451374    1.012931   11.587193
  H      0.426579   -0.844866    9.908428
  H      0.413281    0.719244    9.217680
  H      1.945017   -0.202523    9.432650
  C     -1.061053    5.301009   11.263492
  O     -1.295647    4.489598   10.101776
  H     -1.351680    3.540695   10.358751
  H     -0.103723    5.314560   11.688800
  H     -1.275487    6.334969   11.016867
  H     -1.821840    4.945084   11.969522

 Multiplicity           Mult            ....    1
 Number of Electrons    NEL             ....   18
 Basis Dimension        Dim             ....  172

ORBITAL ENERGIES
----------------

  NO   OCC          E(Eh)            E(eV)
   0   2.0000     -19.229277      -523.2552
   1   2.0000     -10.309123      -280.5255
   2   2.0000      -1.122673       -30.5495
   3   2.0000      -0.799069       -21.7438
   4   2.0000      -0.602813       -16.4034
   5   2.0000      -0.549652       -14.9568
   6   2.0000      -0.523652       -14.2493
   7   2.0000      -0.427616       -11.6360
   8   2.0000      -0.373464       -10.1625
   9   0.0000       0.074739         2.0338
  10   0.0000       0.117408         3.1948
  11   0.0000       0.152985         4.1629
  12   0.0000       0.165717         4.5094
  13   0.0000       0.194490         5.2923

MULLIKEN ATOMIC CHARGES
-----------------------
   0 C :    0.000388
   1 O :    0.000043
   2 H :   -0.000495
   3 H :   -0.000035
   4 H :   -0.000755
   5 H :   -0.000015
   6 C :   -0.164092
   7 O :   -0.487415
   8 H :    0.317699
   9 H :    0.109997
  10 H :    0.119011
  11 H :    0.105669
Sum of atomic charges:   -0.0000000

LOEWDIN ATOMIC CHARGES
----------------------
   0 C :   -0.000192
   1 O :   -0.000027
   2 H :   -0.000435
   3 H :   -0.000003
   4 H :   -0.000268
   5 H :   -0.000001
   6 C :   -0.363385
   7 O :   -0.107481
   8 H :    0.179248
   9 H :    0.083986
  10 H :    0.107341
  11 H :    0.101215

  Mayer bond orders larger than 0.1
B(  6-C ,  7-O ) :   0.9980 B(  6-C ,  9-H ) :   0.9620 B(  6-C , 10-H ) :   0.9758
B(  6-C , 11-H ) :   0.9950 B(  7-O ,  8-H ) :   0.8947

Dispersion correction           -0.000245344
FINAL SINGLE POINT ENERGY      -115.730532246159

DIPOLE MOMENT
-------------
                                X             Y             Z
Electronic contribution:     -0.12615      -0.88298      -1.50647
Nuclear contribution   :      0.18496       0.63841       2.15178
                        -----------------------------------------
Total Dipole Moment    :      0.05881      -0.24458       0.64531
                        -----------------------------------------
Magnitude (a.u.)       :      0.69260
Magnitude (Debye)      :      1.76046

Rotational constants in cm-1:     4.400309     0.812512     0.782846
Rotational constants in MHz : 131917.945058 24358.484891 23469.144097

                             ****ORCA TERMINATED NORMALLY****
TOTAL RUN TIME: 0 days 0 hours 5 minutes 58 seconds 98 msec
