                         Program Version 4.1.2  - RELEASE  -
|  1> #Run DFT-D3 single point of the dimer
|  2> ! wB97X-D3 def2-TZVP TIGHTSCF CHELPG PMODEL PAL8
|  3>
|  4> %base "12-160_DFT_AB"
|  5>
|  6> %scf
|  7> MaxIter 1000
|  8> end
|  9>
| 10> * xyz 0 1
| 11>   C                      -5.146184            -10.479023           -1.996520
| 12>   O                      -6.108993            -9.500857            -1.845070
| 13>   H                      -6.518291            -9.291486            -2.699533
| 14>   H                      -4.368423            -10.133735           -2.590134
| 15>   H                      -4.699562            -10.679893           -0.967721
| 16>   H                      -5.635315            -11.382812           -2.326898
| 17>   C                      -7.883500            -7.945834            0.809314
| 18>   O                      -8.193881            -9.057241            0.024582
| 19>   H                      -7.296062            -9.387903            -0.184469
| 20>   H                      -8.068939            -7.101845            0.156294
| 21>   H                      -8.598682            -7.878497            1.604359
| 22>   H                      -6.871748            -7.933282            1.248646
| 23> *
| 24>
| 25> #Run DFT-D3 single point of the molecule with dimer basis set
| 26> $new_job
| 27> %base "12-160_DFT_A"
| 28> ! wB97X-D3 def2-TZVP TIGHTSCF CHELPG PMODEL
| 29>
| 30> %scf
| 31> MaxIter 1000
| 32> end
| 33>
| 34> * xyz 0 1
| 35>   C                      -5.146184            -10.479023           -1.996520
| 36>   O                      -6.108993            -9.500857            -1.845070
| 37>   H                      -6.518291            -9.291486            -2.699533
| 38>   H                      -4.368423            -10.133735           -2.590134
| 39>   H                      -4.699562            -10.679893           -0.967721
| 40>   H                      -5.635315            -11.382812           -2.326898
| 41>   C                    : -7.883500            -7.945834            0.809314
| 42>   O                    : -8.193881            -9.057241            0.024582
| 43>   H                    : -7.296062            -9.387903            -0.184469
| 44>   H                    : -8.068939            -7.101845            0.156294
| 45>   H                    : -8.598682            -7.878497            1.604359
| 46>   H                    : -6.871748            -7.933282            1.248646
| 47> *
| 48>
| 49> #Run DFT-D3 single point of the particle with dimer basis set
| 50> $new_job
| 51> %base "12-160_DFT_B"
| 52> ! wB97X-D3 def2-TZVP TIGHTSCF CHELPG PMODEL
| 53>
| 54> %scf
| 55> MaxIter 1000
| 56> end
| 57>
| 58> * xyz 0 1
| 59>   C                    : -5.146184            -10.479023           -1.996520
| 60>   O                    : -6.108993            -9.500857            -1.845070
| 61>   H                    : -6.518291            -9.291486            -2.699533
| 62>   H                    : -4.368423            -10.133735           -2.590134
| 63>   H                    : -4.699562            -10.679893           -0.967721
| 64>   H                    : -5.635315            -11.382812           -2.326898
| 65>   C                      -7.883500            -7.945834            0.809314
| 66>   O                      -8.193881            -9.057241            0.024582
| 67>   H                      -7.296062            -9.387903            -0.184469
| 68>   H                      -8.068939            -7.101845            0.156294
| 69>   H                      -8.598682            -7.878497            1.604359
| 70>   H                      -6.871748            -7.933282            1.248646
| 71> *
| 72>
| 73>                          ****END OF INPUT****
 Total Charge           Charge          ....    0
 Multiplicity           Mult            ....    1
 Number of Electrons    NEL             ....   36
Dispersion correction           -0.001609418
FINAL SINGLE POINT ENERGY      -231.468457342322
Dispersion correction           -0.000213263
FINAL SINGLE POINT ENERGY      -115.731622609147

CARTESIAN COORDINATES (ANGSTROEM)
---------------------------------
  C     -5.146184  -10.479023   -1.996520
  O     -6.108993   -9.500857   -1.845070
  H     -6.518291   -9.291486   -2.699533
  H     -4.368423  -10.133735   -2.590134
  H     -4.699562  -10.679893   -0.967721
  H     -5.635315  -11.382812   -2.326898
  C     -7.883500   -7.945834    0.809314
  O     -8.193881   -9.057241    0.024582
  H     -7.296062   -9.387903   -0.184469
  H     -8.068939   -7.101845    0.156294
  H     -8.598682   -7.878497    1.604359
  H     -6.871748   -7.933282    1.248646

 Multiplicity           Mult            ....    1
 Number of Electrons    NEL             ....   18
 Basis Dimension        Dim             ....  172

ORBITAL ENERGIES
----------------

  NO   OCC          E(Eh)            E(eV)
   0   2.0000     -19.232326      -523.3382
   1   2.0000     -10.307792      -280.4893
   2   2.0000      -1.143738       -31.1227
   3   2.0000      -0.790893       -21.5213
   4   2.0000      -0.612901       -16.6779
   5   2.0000      -0.547262       -14.8918
   6   2.0000      -0.525452       -14.2983
   7   2.0000      -0.444058       -12.0834
   8   2.0000      -0.369030       -10.0418
   9   0.0000       0.070272         1.9122
  10   0.0000       0.128446         3.4952
  11   0.0000       0.158238         4.3059
  12   0.0000       0.160554         4.3689
  13   0.0000       0.193365         5.2617

MULLIKEN ATOMIC CHARGES
-----------------------
   0 C :   -0.002265
   1 O :   -0.005312
   2 H :   -0.001499
   3 H :    0.000051
   4 H :   -0.000210
   5 H :    0.000074
   6 C :   -0.169727
   7 O :   -0.455904
   8 H :    0.314881
   9 H :    0.105116
  10 H :    0.109907
  11 H :    0.104888
Sum of atomic charges:    0.0000000

LOEWDIN ATOMIC CHARGES
----------------------
   0 C :   -0.003017
   1 O :   -0.019072
   2 H :   -0.002468
   3 H :   -0.000072
   4 H :   -0.000336
   5 H :   -0.000088
   6 C :   -0.402201
   7 O :   -0.060280
   8 H :    0.191981
   9 H :    0.097998
  10 H :    0.098282
  11 H :    0.099273

  Mayer bond orders larger than 0.1
B(  6-C ,  7-O ) :   1.0014 B(  6-C ,  9-H ) :   0.9831 B(  6-C , 10-H ) :   0.9773
B(  6-C , 11-H ) :   0.9794 B(  7-O ,  8-H ) :   0.9028

Dispersion correction           -0.000214862
FINAL SINGLE POINT ENERGY      -115.730745461030

DIPOLE MOMENT
-------------
                                X             Y             Z
Electronic contribution:     -0.49506      -1.43711      -0.94109
Nuclear contribution   :      1.15187       1.64956       1.12655
                        -----------------------------------------
Total Dipole Moment    :      0.65681       0.21245       0.18547
                        -----------------------------------------
Magnitude (a.u.)       :      0.71480
Magnitude (Debye)      :      1.81687

Rotational constants in cm-1:     4.202528     0.868313     0.828316
Rotational constants in MHz : 125988.606903 26031.377657 24832.297426

                             ****ORCA TERMINATED NORMALLY****
TOTAL RUN TIME: 0 days 0 hours 1 minutes 15 seconds 208 msec
