                         Program Version 4.1.2  - RELEASE  -
|  1> #Run DFT-D3 single point of the dimer
|  2> ! wB97X-D3 def2-TZVP TIGHTSCF CHELPG PMODEL PAL8
|  3>
|  4> %base "10-43_DFT_AB"
|  5>
|  6> %scf
|  7> MaxIter 1000
|  8> end
|  9>
| 10> * xyz 0 1
| 11>   C                      2.311494             -9.830904            -8.216563
| 12>   O                      3.558891             -10.484770           -8.480704
| 13>   H                      3.941405             -10.762820           -7.664795
| 14>   H                      2.383091             -9.009173            -7.449427
| 15>   H                      1.831679             -9.423599            -9.122781
| 16>   H                      1.578314             -10.570983           -7.892508
| 17>   C                      4.999269             -7.787659            -10.621185
| 18>   O                      6.223927             -7.393043            -11.259496
| 19>   H                      6.016393             -6.779621            -11.954958
| 20>   H                      4.262193             -8.069069            -11.347399
| 21>   H                      5.041425             -8.642465            -9.976267
| 22>   H                      4.608047             -6.987080            -10.034388
| 23> *
| 24>
| 25> #Run DFT-D3 single point of the molecule with dimer basis set
| 26> $new_job
| 27> %base "10-43_DFT_A"
| 28> ! wB97X-D3 def2-TZVP TIGHTSCF CHELPG PMODEL
| 29>
| 30> %scf
| 31> MaxIter 1000
| 32> end
| 33>
| 34> * xyz 0 1
| 35>   C                      2.311494             -9.830904            -8.216563
| 36>   O                      3.558891             -10.484770           -8.480704
| 37>   H                      3.941405             -10.762820           -7.664795
| 38>   H                      2.383091             -9.009173            -7.449427
| 39>   H                      1.831679             -9.423599            -9.122781
| 40>   H                      1.578314             -10.570983           -7.892508
| 41>   C                    : 4.999269             -7.787659            -10.621185
| 42>   O                    : 6.223927             -7.393043            -11.259496
| 43>   H                    : 6.016393             -6.779621            -11.954958
| 44>   H                    : 4.262193             -8.069069            -11.347399
| 45>   H                    : 5.041425             -8.642465            -9.976267
| 46>   H                    : 4.608047             -6.987080            -10.034388
| 47> *
| 48>
| 49> #Run DFT-D3 single point of the particle with dimer basis set
| 50> $new_job
| 51> %base "10-43_DFT_B"
| 52> ! wB97X-D3 def2-TZVP TIGHTSCF CHELPG PMODEL
| 53>
| 54> %scf
| 55> MaxIter 1000
| 56> end
| 57>
| 58> * xyz 0 1
| 59>   C                    : 2.311494             -9.830904            -8.216563
| 60>   O                    : 3.558891             -10.484770           -8.480704
| 61>   H                    : 3.941405             -10.762820           -7.664795
| 62>   H                    : 2.383091             -9.009173            -7.449427
| 63>   H                    : 1.831679             -9.423599            -9.122781
| 64>   H                    : 1.578314             -10.570983           -7.892508
| 65>   C                      4.999269             -7.787659            -10.621185
| 66>   O                      6.223927             -7.393043            -11.259496
| 67>   H                      6.016393             -6.779621            -11.954958
| 68>   H                      4.262193             -8.069069            -11.347399
| 69>   H                      5.041425             -8.642465            -9.976267
| 70>   H                      4.608047             -6.987080            -10.034388
| 71> *
| 72>
| 73>                          ****END OF INPUT****
 Total Charge           Charge          ....    0
 Multiplicity           Mult            ....    1
 Number of Electrons    NEL             ....   36
Dispersion correction           -0.001495359
FINAL SINGLE POINT ENERGY      -231.468607878270
Dispersion correction           -0.000260748
FINAL SINGLE POINT ENERGY      -115.734072995982

CARTESIAN COORDINATES (ANGSTROEM)
---------------------------------
  C      2.311494   -9.830904   -8.216563
  O      3.558891  -10.484770   -8.480704
  H      3.941405  -10.762820   -7.664795
  H      2.383091   -9.009173   -7.449427
  H      1.831679   -9.423599   -9.122781
  H      1.578314  -10.570983   -7.892508
  C      4.999269   -7.787659  -10.621185
  O      6.223927   -7.393043  -11.259496
  H      6.016393   -6.779621  -11.954958
  H      4.262193   -8.069069  -11.347399
  H      5.041425   -8.642465   -9.976267
  H      4.608047   -6.987080  -10.034388

 Multiplicity           Mult            ....    1
 Number of Electrons    NEL             ....   18
 Basis Dimension        Dim             ....  172

ORBITAL ENERGIES
----------------

  NO   OCC          E(Eh)            E(eV)
   0   2.0000     -19.228485      -523.2337
   1   2.0000     -10.307539      -280.4824
   2   2.0000      -1.130282       -30.7565
   3   2.0000      -0.804601       -21.8943
   4   2.0000      -0.608013       -16.5449
   5   2.0000      -0.544658       -14.8209
   6   2.0000      -0.530677       -14.4405
   7   2.0000      -0.431492       -11.7415
   8   2.0000      -0.375481       -10.2174
   9   0.0000       0.078566         2.1379
  10   0.0000       0.118236         3.2174
  11   0.0000       0.151604         4.1254
  12   0.0000       0.155620         4.2346
  13   0.0000       0.187386         5.0990

MULLIKEN ATOMIC CHARGES
-----------------------
   0 C :    0.000292
   1 O :   -0.000084
   2 H :   -0.000111
   3 H :   -0.000099
   4 H :   -0.000096
   5 H :    0.000027
   6 C :   -0.173554
   7 O :   -0.480647
   8 H :    0.315066
   9 H :    0.107488
  10 H :    0.123752
  11 H :    0.107967
Sum of atomic charges:   -0.0000000

LOEWDIN ATOMIC CHARGES
----------------------
   0 C :   -0.001172
   1 O :   -0.001933
   2 H :   -0.000249
   3 H :   -0.000059
   4 H :   -0.000178
   5 H :   -0.000012
   6 C :   -0.361819
   7 O :   -0.088139
   8 H :    0.161902
   9 H :    0.094181
  10 H :    0.105303
  11 H :    0.092175

  Mayer bond orders larger than 0.1
B(  6-C ,  7-O ) :   0.9998 B(  6-C ,  9-H ) :   0.9821 B(  6-C , 10-H ) :   0.9728
B(  6-C , 11-H ) :   0.9785 B(  7-O ,  8-H ) :   0.9006

Dispersion correction           -0.000242873
FINAL SINGLE POINT ENERGY      -115.732459438609

DIPOLE MOMENT
-------------
                                X             Y             Z
Electronic contribution:      1.68224       0.39755      -0.69151
Nuclear contribution   :     -2.34224      -0.18536       0.51243
                        -----------------------------------------
Total Dipole Moment    :     -0.66000       0.21219      -0.17909
                        -----------------------------------------
Magnitude (a.u.)       :      0.71602
Magnitude (Debye)      :      1.81999

Rotational constants in cm-1:     4.588045     0.804538     0.781505
Rotational constants in MHz : 137546.143785 24119.428770 23428.932625

                             ****ORCA TERMINATED NORMALLY****
TOTAL RUN TIME: 0 days 0 hours 1 minutes 5 seconds 340 msec
