                         Program Version 4.1.2  - RELEASE  -
|  1> #Run DFT-D3 single point of the dimer
|  2> ! wB97X-D3 def2-TZVP TIGHTSCF CHELPG PMODEL PAL8
|  3>
|  4> %base "6-131_DFT_AB"
|  5>
|  6> %scf
|  7> MaxIter 1000
|  8> end
|  9>
| 10> * xyz 0 1
| 11>   C                      -1.936839            -7.101095            -2.876770
| 12>   O                      -3.061484            -6.946725            -2.043370
| 13>   H                      -3.335684            -6.055807            -2.122500
| 14>   H                      -1.004453            -6.991422            -2.356135
| 15>   H                      -1.884352            -8.095574            -3.432958
| 16>   H                      -1.945391            -6.367581            -3.715468
| 17>   C                      -6.449756            -7.615354            -0.842301
| 18>   O                      -6.509052            -8.805502            -1.705923
| 19>   H                      -6.635960            -9.581778            -1.119752
| 20>   H                      -5.448720            -7.302162            -0.761370
| 21>   H                      -6.964512            -6.780777            -1.292883
| 22>   H                      -6.923662            -7.772756            0.107971
| 23> *
| 24>
| 25> #Run DFT-D3 single point of the molecule with dimer basis set
| 26> $new_job
| 27> %base "6-131_DFT_A"
| 28> ! wB97X-D3 def2-TZVP TIGHTSCF CHELPG PMODEL
| 29>
| 30> %scf
| 31> MaxIter 1000
| 32> end
| 33>
| 34> * xyz 0 1
| 35>   C                      -1.936839            -7.101095            -2.876770
| 36>   O                      -3.061484            -6.946725            -2.043370
| 37>   H                      -3.335684            -6.055807            -2.122500
| 38>   H                      -1.004453            -6.991422            -2.356135
| 39>   H                      -1.884352            -8.095574            -3.432958
| 40>   H                      -1.945391            -6.367581            -3.715468
| 41>   C                    : -6.449756            -7.615354            -0.842301
| 42>   O                    : -6.509052            -8.805502            -1.705923
| 43>   H                    : -6.635960            -9.581778            -1.119752
| 44>   H                    : -5.448720            -7.302162            -0.761370
| 45>   H                    : -6.964512            -6.780777            -1.292883
| 46>   H                    : -6.923662            -7.772756            0.107971
| 47> *
| 48>
| 49> #Run DFT-D3 single point of the particle with dimer basis set
| 50> $new_job
| 51> %base "6-131_DFT_B"
| 52> ! wB97X-D3 def2-TZVP TIGHTSCF CHELPG PMODEL
| 53>
| 54> %scf
| 55> MaxIter 1000
| 56> end
| 57>
| 58> * xyz 0 1
| 59>   C                    : -1.936839            -7.101095            -2.876770
| 60>   O                    : -3.061484            -6.946725            -2.043370
| 61>   H                    : -3.335684            -6.055807            -2.122500
| 62>   H                    : -1.004453            -6.991422            -2.356135
| 63>   H                    : -1.884352            -8.095574            -3.432958
| 64>   H                    : -1.945391            -6.367581            -3.715468
| 65>   C                      -6.449756            -7.615354            -0.842301
| 66>   O                      -6.509052            -8.805502            -1.705923
| 67>   H                      -6.635960            -9.581778            -1.119752
| 68>   H                      -5.448720            -7.302162            -0.761370
| 69>   H                      -6.964512            -6.780777            -1.292883
| 70>   H                      -6.923662            -7.772756            0.107971
| 71> *
| 72>
| 73>                          ****END OF INPUT****
 Total Charge           Charge          ....    0
 Multiplicity           Mult            ....    1
 Number of Electrons    NEL             ....   36
Dispersion correction           -0.001283708
FINAL SINGLE POINT ENERGY      -231.464317309455
Dispersion correction           -0.000252825
FINAL SINGLE POINT ENERGY      -115.732520601527

CARTESIAN COORDINATES (ANGSTROEM)
---------------------------------
  C     -1.936839   -7.101095   -2.876770
  O     -3.061484   -6.946725   -2.043370
  H     -3.335684   -6.055807   -2.122500
  H     -1.004453   -6.991422   -2.356135
  H     -1.884352   -8.095574   -3.432958
  H     -1.945391   -6.367581   -3.715468
  C     -6.449756   -7.615354   -0.842301
  O     -6.509052   -8.805502   -1.705923
  H     -6.635960   -9.581778   -1.119752
  H     -5.448720   -7.302162   -0.761370
  H     -6.964512   -6.780777   -1.292883
  H     -6.923662   -7.772756    0.107971

 Multiplicity           Mult            ....    1
 Number of Electrons    NEL             ....   18
 Basis Dimension        Dim             ....  172

ORBITAL ENERGIES
----------------

  NO   OCC          E(Eh)            E(eV)
   0   2.0000     -19.230160      -523.2793
   1   2.0000     -10.308974      -280.5215
   2   2.0000      -1.114411       -30.3247
   3   2.0000      -0.802710       -21.8429
   4   2.0000      -0.598230       -16.2787
   5   2.0000      -0.541365       -14.7313
   6   2.0000      -0.522509       -14.2182
   7   2.0000      -0.437652       -11.9091
   8   2.0000      -0.374473       -10.1899
   9   0.0000       0.089046         2.4231
  10   0.0000       0.114537         3.1167
  11   0.0000       0.145397         3.9565
  12   0.0000       0.174650         4.7525
  13   0.0000       0.196237         5.3399

MULLIKEN ATOMIC CHARGES
-----------------------
   0 C :    0.000297
   1 O :    0.001228
   2 H :   -0.000129
   3 H :   -0.000014
   4 H :   -0.000012
   5 H :   -0.000011
   6 C :   -0.174255
   7 O :   -0.487491
   8 H :    0.314970
   9 H :    0.112348
  10 H :    0.116972
  11 H :    0.116098
Sum of atomic charges:   -0.0000000

LOEWDIN ATOMIC CHARGES
----------------------
   0 C :   -0.000124
   1 O :   -0.002167
   2 H :   -0.001021
   3 H :   -0.000003
   4 H :   -0.000013
   5 H :   -0.000003
   6 C :   -0.335970
   7 O :   -0.127166
   8 H :    0.176368
   9 H :    0.091021
  10 H :    0.103773
  11 H :    0.095304

  Mayer bond orders larger than 0.1
B(  6-C ,  7-O ) :   1.0060 B(  6-C ,  9-H ) :   0.9750 B(  6-C , 10-H ) :   0.9775
B(  6-C , 11-H ) :   0.9821 B(  7-O ,  8-H ) :   0.9003

Dispersion correction           -0.000261058
FINAL SINGLE POINT ENERGY      -115.731605362467

DIPOLE MOMENT
-------------
                                X             Y             Z
Electronic contribution:     -0.03269      -1.38412      -1.11317
Nuclear contribution   :     -0.03181       1.42123       1.86033
                        -----------------------------------------
Total Dipole Moment    :     -0.06450       0.03711       0.74716
                        -----------------------------------------
Magnitude (a.u.)       :      0.75086
Magnitude (Debye)      :      1.90853

Rotational constants in cm-1:     4.422389     0.783068     0.753214
Rotational constants in MHz : 132579.897717 23475.793079 22580.793795

                             ****ORCA TERMINATED NORMALLY****
TOTAL RUN TIME: 0 days 0 hours 0 minutes 59 seconds 525 msec
