                         Program Version 4.1.2  - RELEASE  -
|  1> #Run DFT-D3 single point of the dimer
|  2> ! wB97X-D3 def2-TZVP TIGHTSCF CHELPG PMODEL PAL8
|  3>
|  4> %base "11-47_DFT_AB"
|  5>
|  6> %scf
|  7> MaxIter 1000
|  8> end
|  9>
| 10> * xyz 0 1
| 11>   C                      -6.809828            -7.466043            3.576054
| 12>   O                      -7.899568            -7.122431            2.761647
| 13>   H                      -8.485116            -6.571884            3.300043
| 14>   H                      -6.140757            -8.235801            3.211368
| 15>   H                      -6.195975            -6.624707            3.804071
| 16>   H                      -7.153628            -7.872314            4.553636
| 17>   C                      -2.958133            -5.910956            1.866469
| 18>   O                      -2.832775            -7.293299            1.854868
| 19>   H                      -3.467590            -7.636709            1.262656
| 20>   H                      -2.945001            -5.442606            0.902511
| 21>   H                      -3.971730            -5.552848            2.280433
| 22>   H                      -2.192545            -5.548036            2.414765
| 23> *
| 24>
| 25> #Run DFT-D3 single point of the molecule with dimer basis set
| 26> $new_job
| 27> %base "11-47_DFT_A"
| 28> ! wB97X-D3 def2-TZVP TIGHTSCF CHELPG PMODEL
| 29>
| 30> %scf
| 31> MaxIter 1000
| 32> end
| 33>
| 34> * xyz 0 1
| 35>   C                      -6.809828            -7.466043            3.576054
| 36>   O                      -7.899568            -7.122431            2.761647
| 37>   H                      -8.485116            -6.571884            3.300043
| 38>   H                      -6.140757            -8.235801            3.211368
| 39>   H                      -6.195975            -6.624707            3.804071
| 40>   H                      -7.153628            -7.872314            4.553636
| 41>   C                    : -2.958133            -5.910956            1.866469
| 42>   O                    : -2.832775            -7.293299            1.854868
| 43>   H                    : -3.467590            -7.636709            1.262656
| 44>   H                    : -2.945001            -5.442606            0.902511
| 45>   H                    : -3.971730            -5.552848            2.280433
| 46>   H                    : -2.192545            -5.548036            2.414765
| 47> *
| 48>
| 49> #Run DFT-D3 single point of the particle with dimer basis set
| 50> $new_job
| 51> %base "11-47_DFT_B"
| 52> ! wB97X-D3 def2-TZVP TIGHTSCF CHELPG PMODEL
| 53>
| 54> %scf
| 55> MaxIter 1000
| 56> end
| 57>
| 58> * xyz 0 1
| 59>   C                    : -6.809828            -7.466043            3.576054
| 60>   O                    : -7.899568            -7.122431            2.761647
| 61>   H                    : -8.485116            -6.571884            3.300043
| 62>   H                    : -6.140757            -8.235801            3.211368
| 63>   H                    : -6.195975            -6.624707            3.804071
| 64>   H                    : -7.153628            -7.872314            4.553636
| 65>   C                      -2.958133            -5.910956            1.866469
| 66>   O                      -2.832775            -7.293299            1.854868
| 67>   H                      -3.467590            -7.636709            1.262656
| 68>   H                      -2.945001            -5.442606            0.902511
| 69>   H                      -3.971730            -5.552848            2.280433
| 70>   H                      -2.192545            -5.548036            2.414765
| 71> *
| 72>
| 73>                          ****END OF INPUT****
 Total Charge           Charge          ....    0
 Multiplicity           Mult            ....    1
 Number of Electrons    NEL             ....   36
Dispersion correction           -0.001224374
FINAL SINGLE POINT ENERGY      -231.463671713830
Dispersion correction           -0.000234372
FINAL SINGLE POINT ENERGY      -115.733191545268

CARTESIAN COORDINATES (ANGSTROEM)
---------------------------------
  C     -6.809828   -7.466043    3.576054
  O     -7.899568   -7.122431    2.761647
  H     -8.485116   -6.571884    3.300043
  H     -6.140757   -8.235801    3.211368
  H     -6.195975   -6.624707    3.804071
  H     -7.153628   -7.872314    4.553636
  C     -2.958133   -5.910956    1.866469
  O     -2.832775   -7.293299    1.854868
  H     -3.467590   -7.636709    1.262656
  H     -2.945001   -5.442606    0.902511
  H     -3.971730   -5.552848    2.280433
  H     -2.192545   -5.548036    2.414765

 Multiplicity           Mult            ....    1
 Number of Electrons    NEL             ....   18
 Basis Dimension        Dim             ....  172

ORBITAL ENERGIES
----------------

  NO   OCC          E(Eh)            E(eV)
   0   2.0000     -19.229989      -523.2746
   1   2.0000     -10.305315      -280.4219
   2   2.0000      -1.151012       -31.3206
   3   2.0000      -0.804047       -21.8792
   4   2.0000      -0.624643       -16.9974
   5   2.0000      -0.541520       -14.7355
   6   2.0000      -0.531649       -14.4669
   7   2.0000      -0.444262       -12.0890
   8   2.0000      -0.370782       -10.0895
   9   0.0000       0.082719         2.2509
  10   0.0000       0.122544         3.3346
  11   0.0000       0.154223         4.1966
  12   0.0000       0.170526         4.6402
  13   0.0000       0.188485         5.1289

MULLIKEN ATOMIC CHARGES
-----------------------
   0 C :    0.000501
   1 O :   -0.000012
   2 H :    0.000005
   3 H :   -0.002100
   4 H :    0.000707
   5 H :   -0.000012
   6 C :   -0.158466
   7 O :   -0.458251
   8 H :    0.309452
   9 H :    0.101012
  10 H :    0.079490
  11 H :    0.127672
Sum of atomic charges:    0.0000000

LOEWDIN ATOMIC CHARGES
----------------------
   0 C :   -0.001033
   1 O :   -0.000014
   2 H :   -0.000001
   3 H :   -0.000895
   4 H :   -0.001108
   5 H :   -0.000006
   6 C :   -0.392831
   7 O :   -0.037410
   8 H :    0.153814
   9 H :    0.089690
  10 H :    0.100879
  11 H :    0.088913

  Mayer bond orders larger than 0.1
B(  6-C ,  7-O ) :   1.0095 B(  6-C ,  9-H ) :   0.9760 B(  6-C , 10-H ) :   0.9735
B(  6-C , 11-H ) :   0.9787 B(  7-O ,  8-H ) :   0.9062

Dispersion correction           -0.000228277
FINAL SINGLE POINT ENERGY      -115.729053389524

DIPOLE MOMENT
-------------
                                X             Y             Z
Electronic contribution:      0.42973      -1.83813       0.07441
Nuclear contribution   :     -0.84406       2.14032      -0.47466
                        -----------------------------------------
Total Dipole Moment    :     -0.41433       0.30219      -0.40025
                        -----------------------------------------
Magnitude (a.u.)       :      0.65053
Magnitude (Debye)      :      1.65352

Rotational constants in cm-1:     4.487101     0.858477     0.826950
Rotational constants in MHz : 134519.914412 25736.482950 24791.324195

                             ****ORCA TERMINATED NORMALLY****
TOTAL RUN TIME: 0 days 0 hours 1 minutes 7 seconds 719 msec
