                         Program Version 4.1.2  - RELEASE  -
|  1> #Run DFT-D3 single point of the dimer
|  2> ! wB97X-D3 def2-TZVP TIGHTSCF CHELPG PMODEL PAL8
|  3>
|  4> %base "15-101_DFT_AB"
|  5>
|  6> %scf
|  7> MaxIter 1000
|  8> end
|  9>
| 10> * xyz 0 1
| 11>   C                      -3.521737            -6.032928            -3.997539
| 12>   O                      -3.209134            -4.842496            -3.204906
| 13>   H                      -3.319984            -4.094860            -3.795784
| 14>   H                      -3.627151            -6.940647            -3.414398
| 15>   H                      -4.523750            -5.897630            -4.422226
| 16>   H                      -2.762533            -6.264531            -4.740990
| 17>   C                      -2.952406            -6.498806            -0.162085
| 18>   O                      -1.905916            -5.710935            -0.784675
| 19>   H                      -2.092561            -5.473080            -1.718992
| 20>   H                      -3.475766            -5.887332            0.641250
| 21>   H                      -3.772280            -6.829734            -0.810482
| 22>   H                      -2.580405            -7.336790            0.338311
| 23> *
| 24>
| 25> #Run DFT-D3 single point of the molecule with dimer basis set
| 26> $new_job
| 27> %base "15-101_DFT_A"
| 28> ! wB97X-D3 def2-TZVP TIGHTSCF CHELPG PMODEL
| 29>
| 30> %scf
| 31> MaxIter 1000
| 32> end
| 33>
| 34> * xyz 0 1
| 35>   C                      -3.521737            -6.032928            -3.997539
| 36>   O                      -3.209134            -4.842496            -3.204906
| 37>   H                      -3.319984            -4.094860            -3.795784
| 38>   H                      -3.627151            -6.940647            -3.414398
| 39>   H                      -4.523750            -5.897630            -4.422226
| 40>   H                      -2.762533            -6.264531            -4.740990
| 41>   C                    : -2.952406            -6.498806            -0.162085
| 42>   O                    : -1.905916            -5.710935            -0.784675
| 43>   H                    : -2.092561            -5.473080            -1.718992
| 44>   H                    : -3.475766            -5.887332            0.641250
| 45>   H                    : -3.772280            -6.829734            -0.810482
| 46>   H                    : -2.580405            -7.336790            0.338311
| 47> *
| 48>
| 49> #Run DFT-D3 single point of the particle with dimer basis set
| 50> $new_job
| 51> %base "15-101_DFT_B"
| 52> ! wB97X-D3 def2-TZVP TIGHTSCF CHELPG PMODEL
| 53>
| 54> %scf
| 55> MaxIter 1000
| 56> end
| 57>
| 58> * xyz 0 1
| 59>   C                    : -3.521737            -6.032928            -3.997539
| 60>   O                    : -3.209134            -4.842496            -3.204906
| 61>   H                    : -3.319984            -4.094860            -3.795784
| 62>   H                    : -3.627151            -6.940647            -3.414398
| 63>   H                    : -4.523750            -5.897630            -4.422226
| 64>   H                    : -2.762533            -6.264531            -4.740990
| 65>   C                      -2.952406            -6.498806            -0.162085
| 66>   O                      -1.905916            -5.710935            -0.784675
| 67>   H                      -2.092561            -5.473080            -1.718992
| 68>   H                      -3.475766            -5.887332            0.641250
| 69>   H                      -3.772280            -6.829734            -0.810482
| 70>   H                      -2.580405            -7.336790            0.338311
| 71> *
| 72>
| 73>                          ****END OF INPUT****
 Total Charge           Charge          ....    0
 Multiplicity           Mult            ....    1
 Number of Electrons    NEL             ....   36
Dispersion correction           -0.002065474
FINAL SINGLE POINT ENERGY      -231.470194803573
Dispersion correction           -0.000258880
FINAL SINGLE POINT ENERGY      -115.732966009688

CARTESIAN COORDINATES (ANGSTROEM)
---------------------------------
  C     -3.521737   -6.032928   -3.997539
  O     -3.209134   -4.842496   -3.204906
  H     -3.319984   -4.094860   -3.795784
  H     -3.627151   -6.940647   -3.414398
  H     -4.523750   -5.897630   -4.422226
  H     -2.762533   -6.264531   -4.740990
  C     -2.952406   -6.498806   -0.162085
  O     -1.905916   -5.710935   -0.784675
  H     -2.092561   -5.473080   -1.718992
  H     -3.475766   -5.887332    0.641250
  H     -3.772280   -6.829734   -0.810482
  H     -2.580405   -7.336790    0.338311

 Multiplicity           Mult            ....    1
 Number of Electrons    NEL             ....   18
 Basis Dimension        Dim             ....  172

ORBITAL ENERGIES
----------------

  NO   OCC          E(Eh)            E(eV)
   0   2.0000     -19.233323      -523.3653
   1   2.0000     -10.316405      -280.7236
   2   2.0000      -1.118710       -30.4417
   3   2.0000      -0.800511       -21.7830
   4   2.0000      -0.606772       -16.5111
   5   2.0000      -0.536135       -14.5890
   6   2.0000      -0.519277       -14.1302
   7   2.0000      -0.433197       -11.7879
   8   2.0000      -0.373166       -10.1544
   9   0.0000       0.067807         1.8451
  10   0.0000       0.138408         3.7663
  11   0.0000       0.143358         3.9010
  12   0.0000       0.164220         4.4687
  13   0.0000       0.184218         5.0128

MULLIKEN ATOMIC CHARGES
-----------------------
   0 C :   -0.006055
   1 O :   -0.005662
   2 H :   -0.000569
   3 H :    0.000888
   4 H :   -0.000028
   5 H :    0.000558
   6 C :   -0.171400
   7 O :   -0.489893
   8 H :    0.326852
   9 H :    0.105782
  10 H :    0.113269
  11 H :    0.126258
Sum of atomic charges:    0.0000000

LOEWDIN ATOMIC CHARGES
----------------------
   0 C :   -0.007923
   1 O :   -0.019831
   2 H :   -0.000967
   3 H :   -0.002146
   4 H :   -0.000121
   5 H :   -0.000141
   6 C :   -0.357209
   7 O :   -0.098962
   8 H :    0.188092
   9 H :    0.108006
  10 H :    0.099994
  11 H :    0.091210

  Mayer bond orders larger than 0.1
B(  6-C ,  7-O ) :   0.9907 B(  6-C ,  9-H ) :   0.9777 B(  6-C , 10-H ) :   0.9715
B(  6-C , 11-H ) :   0.9755 B(  7-O ,  8-H ) :   0.8947

Dispersion correction           -0.000291818
FINAL SINGLE POINT ENERGY      -115.729972809821

DIPOLE MOMENT
-------------
                                X             Y             Z
Electronic contribution:      1.47992       0.88445      -0.76706
Nuclear contribution   :     -2.04444      -1.08662       0.42300
                        -----------------------------------------
Total Dipole Moment    :     -0.56452      -0.20217      -0.34405
                        -----------------------------------------
Magnitude (a.u.)       :      0.69132
Magnitude (Debye)      :      1.75720

Rotational constants in cm-1:     4.448447     0.780605     0.754637
Rotational constants in MHz : 133361.075598 23401.949502 22623.458617

                             ****ORCA TERMINATED NORMALLY****
TOTAL RUN TIME: 0 days 0 hours 1 minutes 0 seconds 476 msec
