                         Program Version 4.1.2  - RELEASE  -
|  1> #Run DFT-D3 single point of the dimer
|  2> ! wB97X-D3 def2-TZVP TIGHTSCF CHELPG PMODEL PAL8
|  3>
|  4> %base "2-28_DFT_AB"
|  5>
|  6> %scf
|  7> MaxIter 1000
|  8> end
|  9>
| 10> * xyz 0 1
| 11>   C                      3.461109             3.222378             4.105244
| 12>   O                      3.157580             2.071432             3.453058
| 13>   H                      2.370845             1.638740             3.819682
| 14>   H                      3.982423             3.051816             5.032330
| 15>   H                      4.203252             3.873688             3.594400
| 16>   H                      2.649209             3.897304             4.300673
| 17>   C                      2.529571             8.507035             2.508720
| 18>   O                      3.512554             9.481199             2.197412
| 19>   H                      4.406144             9.141253             2.398194
| 20>   H                      2.852111             7.492425             2.456525
| 21>   H                      2.225178             8.679373             3.541326
| 22>   H                      1.629167             8.692176             1.916672
| 23> *
| 24>
| 25> #Run DFT-D3 single point of the molecule with dimer basis set
| 26> $new_job
| 27> %base "2-28_DFT_A"
| 28> ! wB97X-D3 def2-TZVP TIGHTSCF CHELPG PMODEL
| 29>
| 30> %scf
| 31> MaxIter 1000
| 32> end
| 33>
| 34> * xyz 0 1
| 35>   C                      3.461109             3.222378             4.105244
| 36>   O                      3.157580             2.071432             3.453058
| 37>   H                      2.370845             1.638740             3.819682
| 38>   H                      3.982423             3.051816             5.032330
| 39>   H                      4.203252             3.873688             3.594400
| 40>   H                      2.649209             3.897304             4.300673
| 41>   C                    : 2.529571             8.507035             2.508720
| 42>   O                    : 3.512554             9.481199             2.197412
| 43>   H                    : 4.406144             9.141253             2.398194
| 44>   H                    : 2.852111             7.492425             2.456525
| 45>   H                    : 2.225178             8.679373             3.541326
| 46>   H                    : 1.629167             8.692176             1.916672
| 47> *
| 48>
| 49> #Run DFT-D3 single point of the particle with dimer basis set
| 50> $new_job
| 51> %base "2-28_DFT_B"
| 52> ! wB97X-D3 def2-TZVP TIGHTSCF CHELPG PMODEL
| 53>
| 54> %scf
| 55> MaxIter 1000
| 56> end
| 57>
| 58> * xyz 0 1
| 59>   C                    : 3.461109             3.222378             4.105244
| 60>   O                    : 3.157580             2.071432             3.453058
| 61>   H                    : 2.370845             1.638740             3.819682
| 62>   H                    : 3.982423             3.051816             5.032330
| 63>   H                    : 4.203252             3.873688             3.594400
| 64>   H                    : 2.649209             3.897304             4.300673
| 65>   C                      2.529571             8.507035             2.508720
| 66>   O                      3.512554             9.481199             2.197412
| 67>   H                      4.406144             9.141253             2.398194
| 68>   H                      2.852111             7.492425             2.456525
| 69>   H                      2.225178             8.679373             3.541326
| 70>   H                      1.629167             8.692176             1.916672
| 71> *
| 72>
| 73>                          ****END OF INPUT****
 Total Charge           Charge          ....    0
 Multiplicity           Mult            ....    1
 Number of Electrons    NEL             ....   36
Dispersion correction           -0.000661573
FINAL SINGLE POINT ENERGY      -231.464887840076
Dispersion correction           -0.000243364
FINAL SINGLE POINT ENERGY      -115.730886758857

CARTESIAN COORDINATES (ANGSTROEM)
---------------------------------
  C      3.461109    3.222378    4.105244
  O      3.157580    2.071432    3.453058
  H      2.370845    1.638740    3.819682
  H      3.982423    3.051816    5.032330
  H      4.203252    3.873688    3.594400
  H      2.649209    3.897304    4.300673
  C      2.529571    8.507035    2.508720
  O      3.512554    9.481199    2.197412
  H      4.406144    9.141253    2.398194
  H      2.852111    7.492425    2.456525
  H      2.225178    8.679373    3.541326
  H      1.629167    8.692176    1.916672

 Multiplicity           Mult            ....    1
 Number of Electrons    NEL             ....   18
 Basis Dimension        Dim             ....  172

ORBITAL ENERGIES
----------------

  NO   OCC          E(Eh)            E(eV)
   0   2.0000     -19.228981      -523.2472
   1   2.0000     -10.309013      -280.5225
   2   2.0000      -1.128971       -30.7209
   3   2.0000      -0.797361       -21.6973
   4   2.0000      -0.611916       -16.6511
   5   2.0000      -0.534495       -14.5444
   6   2.0000      -0.528968       -14.3940
   7   2.0000      -0.436904       -11.8888
   8   2.0000      -0.368068       -10.0156
   9   0.0000       0.080108         2.1798
  10   0.0000       0.113625         3.0919
  11   0.0000       0.144504         3.9322
  12   0.0000       0.165399         4.5007
  13   0.0000       0.186141         5.0652

MULLIKEN ATOMIC CHARGES
-----------------------
   0 C :    0.000042
   1 O :   -0.000000
   2 H :   -0.000000
   3 H :   -0.000006
   4 H :   -0.000054
   5 H :   -0.000068
   6 C :   -0.161507
   7 O :   -0.483308
   8 H :    0.316411
   9 H :    0.109473
  10 H :    0.099851
  11 H :    0.119167
Sum of atomic charges:    0.0000000

LOEWDIN ATOMIC CHARGES
----------------------
   0 C :   -0.000063
   1 O :   -0.000001
   2 H :   -0.000000
   3 H :   -0.000000
   4 H :   -0.000045
   5 H :   -0.000044
   6 C :   -0.379287
   7 O :   -0.091046
   8 H :    0.177041
   9 H :    0.089676
  10 H :    0.095551
  11 H :    0.108219

  Mayer bond orders larger than 0.1
B(  6-C ,  7-O ) :   0.9992 B(  6-C ,  9-H ) :   0.9755 B(  6-C , 10-H ) :   0.9827
B(  6-C , 11-H ) :   0.9734 B(  7-O ,  8-H ) :   0.8955

Dispersion correction           -0.000246106
FINAL SINGLE POINT ENERGY      -115.733880801430

DIPOLE MOMENT
-------------
                                X             Y             Z
Electronic contribution:      1.19515       1.21373      -0.55271
Nuclear contribution   :     -1.01961      -1.83693       0.80875
                        -----------------------------------------
Total Dipole Moment    :      0.17554      -0.62320       0.25604
                        -----------------------------------------
Magnitude (a.u.)       :      0.69624
Magnitude (Debye)      :      1.76971

Rotational constants in cm-1:     4.369708     0.828940     0.792993
Rotational constants in MHz : 131000.544557 24851.007459 23773.335112

                             ****ORCA TERMINATED NORMALLY****
TOTAL RUN TIME: 0 days 0 hours 5 minutes 35 seconds 151 msec
