                         Program Version 4.1.2  - RELEASE  -
|  1> #Run DFT-D3 single point of the dimer
|  2> ! wB97X-D3 def2-TZVP TIGHTSCF CHELPG PMODEL PAL8
|  3>
|  4> %base "7-42_DFT_AB"
|  5>
|  6> %scf
|  7> MaxIter 1000
|  8> end
|  9>
| 10> * xyz 0 1
| 11>   C                      -9.811344            4.558187             10.207530
| 12>   O                      -8.653833            5.412163             9.985210
| 13>   H                      -8.166910            5.609681             10.804078
| 14>   H                      -10.766672           5.084000             10.437990
| 15>   H                      -10.064099           3.949902             9.357270
| 16>   H                      -9.652676            3.829172             10.959154
| 17>   C                      -10.347060           -0.296101            8.831213
| 18>   O                      -9.959354            0.903798             9.510219
| 19>   H                      -9.588058            1.615518             8.938938
| 20>   H                      -9.510789            -0.780903            8.363430
| 21>   H                      -10.909738           -1.078842            9.385918
| 22>   H                      -11.084347           -0.023327            8.082978
| 23> *
| 24>
| 25> #Run DFT-D3 single point of the molecule with dimer basis set
| 26> $new_job
| 27> %base "7-42_DFT_A"
| 28> ! wB97X-D3 def2-TZVP TIGHTSCF CHELPG PMODEL
| 29>
| 30> %scf
| 31> MaxIter 1000
| 32> end
| 33>
| 34> * xyz 0 1
| 35>   C                      -9.811344            4.558187             10.207530
| 36>   O                      -8.653833            5.412163             9.985210
| 37>   H                      -8.166910            5.609681             10.804078
| 38>   H                      -10.766672           5.084000             10.437990
| 39>   H                      -10.064099           3.949902             9.357270
| 40>   H                      -9.652676            3.829172             10.959154
| 41>   C                    : -10.347060           -0.296101            8.831213
| 42>   O                    : -9.959354            0.903798             9.510219
| 43>   H                    : -9.588058            1.615518             8.938938
| 44>   H                    : -9.510789            -0.780903            8.363430
| 45>   H                    : -10.909738           -1.078842            9.385918
| 46>   H                    : -11.084347           -0.023327            8.082978
| 47> *
| 48>
| 49> #Run DFT-D3 single point of the particle with dimer basis set
| 50> $new_job
| 51> %base "7-42_DFT_B"
| 52> ! wB97X-D3 def2-TZVP TIGHTSCF CHELPG PMODEL
| 53>
| 54> %scf
| 55> MaxIter 1000
| 56> end
| 57>
| 58> * xyz 0 1
| 59>   C                    : -9.811344            4.558187             10.207530
| 60>   O                    : -8.653833            5.412163             9.985210
| 61>   H                    : -8.166910            5.609681             10.804078
| 62>   H                    : -10.766672           5.084000             10.437990
| 63>   H                    : -10.064099           3.949902             9.357270
| 64>   H                    : -9.652676            3.829172             10.959154
| 65>   C                      -10.347060           -0.296101            8.831213
| 66>   O                      -9.959354            0.903798             9.510219
| 67>   H                      -9.588058            1.615518             8.938938
| 68>   H                      -9.510789            -0.780903            8.363430
| 69>   H                      -10.909738           -1.078842            9.385918
| 70>   H                      -11.084347           -0.023327            8.082978
| 71> *
| 72>
| 73>                          ****END OF INPUT****
 Total Charge           Charge          ....    0
 Multiplicity           Mult            ....    1
 Number of Electrons    NEL             ....   36
Dispersion correction           -0.001341083
FINAL SINGLE POINT ENERGY      -231.459205012750
Dispersion correction           -0.000289716
FINAL SINGLE POINT ENERGY      -115.730152317193

CARTESIAN COORDINATES (ANGSTROEM)
---------------------------------
  C     -9.811344    4.558187   10.207530
  O     -8.653833    5.412163    9.985210
  H     -8.166910    5.609681   10.804078
  H    -10.766672    5.084000   10.437990
  H    -10.064099    3.949902    9.357270
  H     -9.652676    3.829172   10.959154
  C    -10.347060   -0.296101    8.831213
  O     -9.959354    0.903798    9.510219
  H     -9.588058    1.615518    8.938938
  H     -9.510789   -0.780903    8.363430
  H    -10.909738   -1.078842    9.385918
  H    -11.084347   -0.023327    8.082978

 Multiplicity           Mult            ....    1
 Number of Electrons    NEL             ....   18
 Basis Dimension        Dim             ....  172

ORBITAL ENERGIES
----------------

  NO   OCC          E(Eh)            E(eV)
   0   2.0000     -19.229332      -523.2567
   1   2.0000     -10.314882      -280.6822
   2   2.0000      -1.120980       -30.5034
   3   2.0000      -0.799335       -21.7510
   4   2.0000      -0.605521       -16.4771
   5   2.0000      -0.545090       -14.8327
   6   2.0000      -0.526827       -14.3357
   7   2.0000      -0.416971       -11.3464
   8   2.0000      -0.373064       -10.1516
   9   0.0000       0.083549         2.2735
  10   0.0000       0.123430         3.3587
  11   0.0000       0.145445         3.9578
  12   0.0000       0.174226         4.7409
  13   0.0000       0.199848         5.4381

MULLIKEN ATOMIC CHARGES
-----------------------
   0 C :    0.003199
   1 O :   -0.000050
   2 H :   -0.000002
   3 H :   -0.000161
   4 H :   -0.006568
   5 H :   -0.001703
   6 C :   -0.162209
   7 O :   -0.498110
   8 H :    0.327004
   9 H :    0.108247
  10 H :    0.123505
  11 H :    0.106848
Sum of atomic charges:   -0.0000000

LOEWDIN ATOMIC CHARGES
----------------------
   0 C :   -0.002949
   1 O :   -0.000022
   2 H :   -0.000003
   3 H :   -0.000015
   4 H :   -0.003428
   5 H :   -0.001272
   6 C :   -0.372673
   7 O :   -0.104964
   8 H :    0.184352
   9 H :    0.091171
  10 H :    0.114372
  11 H :    0.095430

  Mayer bond orders larger than 0.1
B(  6-C ,  7-O ) :   0.9846 B(  6-C ,  9-H ) :   0.9781 B(  6-C , 10-H ) :   0.9673
B(  6-C , 11-H ) :   0.9839 B(  7-O ,  8-H ) :   0.8825

Dispersion correction           -0.000268470
FINAL SINGLE POINT ENERGY      -115.727599332390

DIPOLE MOMENT
-------------
                                X             Y             Z
Electronic contribution:      0.53622       1.41665       1.04878
Nuclear contribution   :     -0.48155      -1.48796      -1.72103
                        -----------------------------------------
Total Dipole Moment    :      0.05466      -0.07130      -0.67224
                        -----------------------------------------
Magnitude (a.u.)       :      0.67822
Magnitude (Debye)      :      1.72390

Rotational constants in cm-1:     4.531355     0.792064     0.772021
Rotational constants in MHz : 135846.618827 23745.493808 23144.598372

                             ****ORCA TERMINATED NORMALLY****
TOTAL RUN TIME: 0 days 0 hours 0 minutes 59 seconds 78 msec
