                         Program Version 4.1.2  - RELEASE  -
|  1> #Run DFT-D3 single point of the dimer
|  2> ! wB97X-D3 def2-TZVP TIGHTSCF CHELPG PMODEL PAL8
|  3>
|  4> %base "14-208_DFT_AB"
|  5>
|  6> %scf
|  7> MaxIter 1000
|  8> end
|  9>
| 10> * xyz 0 1
| 11>   C                      8.923813             -0.098767            0.102245
| 12>   O                      9.582362             -1.326979            0.347016
| 13>   H                      9.023009             -2.103097            0.072596
| 14>   H                      8.093396             -0.021769            0.727830
| 15>   H                      9.461664             0.800306             0.080617
| 16>   H                      8.508285             -0.104171            -0.930753
| 17>   C                      10.252695            1.042961             2.946133
| 18>   O                      10.630903            -0.307615            2.602449
| 19>   H                      10.463660            -0.463555            1.629546
| 20>   H                      9.211106             1.053468             3.160243
| 21>   H                      10.716787            1.501780             3.818177
| 22>   H                      10.449982            1.739359             2.112815
| 23> *
| 24>
| 25> #Run DFT-D3 single point of the molecule with dimer basis set
| 26> $new_job
| 27> %base "14-208_DFT_A"
| 28> ! wB97X-D3 def2-TZVP TIGHTSCF CHELPG PMODEL
| 29>
| 30> %scf
| 31> MaxIter 1000
| 32> end
| 33>
| 34> * xyz 0 1
| 35>   C                      8.923813             -0.098767            0.102245
| 36>   O                      9.582362             -1.326979            0.347016
| 37>   H                      9.023009             -2.103097            0.072596
| 38>   H                      8.093396             -0.021769            0.727830
| 39>   H                      9.461664             0.800306             0.080617
| 40>   H                      8.508285             -0.104171            -0.930753
| 41>   C                    : 10.252695            1.042961             2.946133
| 42>   O                    : 10.630903            -0.307615            2.602449
| 43>   H                    : 10.463660            -0.463555            1.629546
| 44>   H                    : 9.211106             1.053468             3.160243
| 45>   H                    : 10.716787            1.501780             3.818177
| 46>   H                    : 10.449982            1.739359             2.112815
| 47> *
| 48>
| 49> #Run DFT-D3 single point of the particle with dimer basis set
| 50> $new_job
| 51> %base "14-208_DFT_B"
| 52> ! wB97X-D3 def2-TZVP TIGHTSCF CHELPG PMODEL
| 53>
| 54> %scf
| 55> MaxIter 1000
| 56> end
| 57>
| 58> * xyz 0 1
| 59>   C                    : 8.923813             -0.098767            0.102245
| 60>   O                    : 9.582362             -1.326979            0.347016
| 61>   H                    : 9.023009             -2.103097            0.072596
| 62>   H                    : 8.093396             -0.021769            0.727830
| 63>   H                    : 9.461664             0.800306             0.080617
| 64>   H                    : 8.508285             -0.104171            -0.930753
| 65>   C                      10.252695            1.042961             2.946133
| 66>   O                      10.630903            -0.307615            2.602449
| 67>   H                      10.463660            -0.463555            1.629546
| 68>   H                      9.211106             1.053468             3.160243
| 69>   H                      10.716787            1.501780             3.818177
| 70>   H                      10.449982            1.739359             2.112815
| 71> *
| 72>
| 73>                          ****END OF INPUT****
 Total Charge           Charge          ....    0
 Multiplicity           Mult            ....    1
 Number of Electrons    NEL             ....   36
Dispersion correction           -0.002263760
FINAL SINGLE POINT ENERGY      -231.456774519784
Dispersion correction           -0.000237773
FINAL SINGLE POINT ENERGY      -115.725410154033

CARTESIAN COORDINATES (ANGSTROEM)
---------------------------------
  C      8.923813   -0.098767    0.102245
  O      9.582362   -1.326979    0.347016
  H      9.023009   -2.103097    0.072596
  H      8.093396   -0.021769    0.727830
  H      9.461664    0.800306    0.080617
  H      8.508285   -0.104171   -0.930753
  C     10.252695    1.042961    2.946133
  O     10.630903   -0.307615    2.602449
  H     10.463660   -0.463555    1.629546
  H      9.211106    1.053468    3.160243
  H     10.716787    1.501780    3.818177
  H     10.449982    1.739359    2.112815

 Multiplicity           Mult            ....    1
 Number of Electrons    NEL             ....   18
 Basis Dimension        Dim             ....  172

ORBITAL ENERGIES
----------------

  NO   OCC          E(Eh)            E(eV)
   0   2.0000     -19.234428      -523.3954
   1   2.0000     -10.313037      -280.6320
   2   2.0000      -1.119439       -30.4615
   3   2.0000      -0.797916       -21.7124
   4   2.0000      -0.600302       -16.3350
   5   2.0000      -0.539709       -14.6862
   6   2.0000      -0.529734       -14.4148
   7   2.0000      -0.429033       -11.6746
   8   2.0000      -0.373931       -10.1752
   9   0.0000       0.070102         1.9076
  10   0.0000       0.137122         3.7313
  11   0.0000       0.144941         3.9440
  12   0.0000       0.168385         4.5820
  13   0.0000       0.182753         4.9729

MULLIKEN ATOMIC CHARGES
-----------------------
   0 C :   -0.014920
   1 O :   -0.001064
   2 H :   -0.000256
   3 H :    0.001479
   4 H :    0.000292
   5 H :   -0.000735
   6 C :   -0.183786
   7 O :   -0.476118
   8 H :    0.322648
   9 H :    0.114841
  10 H :    0.127920
  11 H :    0.109700
Sum of atomic charges:   -0.0000000

LOEWDIN ATOMIC CHARGES
----------------------
   0 C :   -0.027698
   1 O :   -0.028552
   2 H :   -0.001222
   3 H :   -0.001725
   4 H :   -0.004741
   5 H :   -0.000366
   6 C :   -0.359818
   7 O :   -0.091140
   8 H :    0.213541
   9 H :    0.092724
  10 H :    0.107022
  11 H :    0.101977

  Mayer bond orders larger than 0.1
B(  6-C ,  7-O ) :   0.9859 B(  6-C ,  9-H ) :   0.9829 B(  6-C , 10-H ) :   0.9697
B(  6-C , 11-H ) :   0.9835 B(  7-O ,  8-H ) :   0.8943

Dispersion correction           -0.000260757
FINAL SINGLE POINT ENERGY      -115.730454815260

DIPOLE MOMENT
-------------
                                X             Y             Z
Electronic contribution:      0.58163      -1.75989      -0.21075
Nuclear contribution   :     -0.84460       2.24134      -0.23047
                        -----------------------------------------
Total Dipole Moment    :     -0.26297       0.48145      -0.44122
                        -----------------------------------------
Magnitude (a.u.)       :      0.70401
Magnitude (Debye)      :      1.78945

Rotational constants in cm-1:     4.408961     0.794488     0.764933
Rotational constants in MHz : 132177.324963 23818.139608 22932.106820

                             ****ORCA TERMINATED NORMALLY****
TOTAL RUN TIME: 0 days 0 hours 1 minutes 10 seconds 767 msec
