                         Program Version 4.1.2  - RELEASE  -
|  1> #Run DFT-D3 single point of the dimer
|  2> ! wB97X-D3 def2-TZVP TIGHTSCF CHELPG PMODEL PAL8
|  3>
|  4> %base "10-145_DFT_AB"
|  5>
|  6> %scf
|  7> MaxIter 1000
|  8> end
|  9>
| 10> * xyz 0 1
| 11>   C                      -2.728455            -8.294067            -3.970005
| 12>   O                      -1.346350            -8.753726            -4.049427
| 13>   H                      -1.341560            -9.587864            -3.613665
| 14>   H                      -3.399248            -9.087153            -4.171375
| 15>   H                      -2.930991            -7.956123            -2.995674
| 16>   H                      -2.988727            -7.505298            -4.671363
| 17>   C                      -5.799757            -5.382301            -3.309285
| 18>   O                      -5.571578            -6.796406            -3.245755
| 19>   H                      -6.066309            -7.120056            -2.492047
| 20>   H                      -4.931166            -4.812003            -2.829833
| 21>   H                      -5.700627            -5.082467            -4.383925
| 22>   H                      -6.754512            -4.977609            -3.005592
| 23> *
| 24>
| 25> #Run DFT-D3 single point of the molecule with dimer basis set
| 26> $new_job
| 27> %base "10-145_DFT_A"
| 28> ! wB97X-D3 def2-TZVP TIGHTSCF CHELPG PMODEL
| 29>
| 30> %scf
| 31> MaxIter 1000
| 32> end
| 33>
| 34> * xyz 0 1
| 35>   C                      -2.728455            -8.294067            -3.970005
| 36>   O                      -1.346350            -8.753726            -4.049427
| 37>   H                      -1.341560            -9.587864            -3.613665
| 38>   H                      -3.399248            -9.087153            -4.171375
| 39>   H                      -2.930991            -7.956123            -2.995674
| 40>   H                      -2.988727            -7.505298            -4.671363
| 41>   C                    : -5.799757            -5.382301            -3.309285
| 42>   O                    : -5.571578            -6.796406            -3.245755
| 43>   H                    : -6.066309            -7.120056            -2.492047
| 44>   H                    : -4.931166            -4.812003            -2.829833
| 45>   H                    : -5.700627            -5.082467            -4.383925
| 46>   H                    : -6.754512            -4.977609            -3.005592
| 47> *
| 48>
| 49> #Run DFT-D3 single point of the particle with dimer basis set
| 50> $new_job
| 51> %base "10-145_DFT_B"
| 52> ! wB97X-D3 def2-TZVP TIGHTSCF CHELPG PMODEL
| 53>
| 54> %scf
| 55> MaxIter 1000
| 56> end
| 57>
| 58> * xyz 0 1
| 59>   C                    : -2.728455            -8.294067            -3.970005
| 60>   O                    : -1.346350            -8.753726            -4.049427
| 61>   H                    : -1.341560            -9.587864            -3.613665
| 62>   H                    : -3.399248            -9.087153            -4.171375
| 63>   H                    : -2.930991            -7.956123            -2.995674
| 64>   H                    : -2.988727            -7.505298            -4.671363
| 65>   C                      -5.799757            -5.382301            -3.309285
| 66>   O                      -5.571578            -6.796406            -3.245755
| 67>   H                      -6.066309            -7.120056            -2.492047
| 68>   H                      -4.931166            -4.812003            -2.829833
| 69>   H                      -5.700627            -5.082467            -4.383925
| 70>   H                      -6.754512            -4.977609            -3.005592
| 71> *
| 72>
| 73>                          ****END OF INPUT****
 Total Charge           Charge          ....    0
 Multiplicity           Mult            ....    1
 Number of Electrons    NEL             ....   36
Dispersion correction           -0.001624814
FINAL SINGLE POINT ENERGY      -231.465274014539
Dispersion correction           -0.000236137
FINAL SINGLE POINT ENERGY      -115.731517213106

CARTESIAN COORDINATES (ANGSTROEM)
---------------------------------
  C     -2.728455   -8.294067   -3.970005
  O     -1.346350   -8.753726   -4.049427
  H     -1.341560   -9.587864   -3.613665
  H     -3.399248   -9.087153   -4.171375
  H     -2.930991   -7.956123   -2.995674
  H     -2.988727   -7.505298   -4.671363
  C     -5.799757   -5.382301   -3.309285
  O     -5.571578   -6.796406   -3.245755
  H     -6.066309   -7.120056   -2.492047
  H     -4.931166   -4.812003   -2.829833
  H     -5.700627   -5.082467   -4.383925
  H     -6.754512   -4.977609   -3.005592

 Multiplicity           Mult            ....    1
 Number of Electrons    NEL             ....   18
 Basis Dimension        Dim             ....  172

ORBITAL ENERGIES
----------------

  NO   OCC          E(Eh)            E(eV)
   0   2.0000     -19.235620      -523.4278
   1   2.0000     -10.321109      -280.8517
   2   2.0000      -1.134077       -30.8598
   3   2.0000      -0.793578       -21.5943
   4   2.0000      -0.611331       -16.6352
   5   2.0000      -0.532277       -14.4840
   6   2.0000      -0.519458       -14.1352
   7   2.0000      -0.440656       -11.9909
   8   2.0000      -0.374174       -10.1818
   9   0.0000       0.096022         2.6129
  10   0.0000       0.122977         3.3464
  11   0.0000       0.146980         3.9995
  12   0.0000       0.178609         4.8602
  13   0.0000       0.192783         5.2459

MULLIKEN ATOMIC CHARGES
-----------------------
   0 C :    0.014210
   1 O :   -0.000174
   2 H :   -0.000033
   3 H :   -0.003780
   4 H :   -0.011437
   5 H :   -0.004038
   6 C :   -0.182683
   7 O :   -0.461587
   8 H :    0.312744
   9 H :    0.104308
  10 H :    0.117311
  11 H :    0.115160
Sum of atomic charges:   -0.0000000

LOEWDIN ATOMIC CHARGES
----------------------
   0 C :   -0.011176
   1 O :   -0.000043
   2 H :   -0.000018
   3 H :   -0.001160
   4 H :   -0.005049
   5 H :   -0.001988
   6 C :   -0.387993
   7 O :   -0.069653
   8 H :    0.166404
   9 H :    0.105518
  10 H :    0.111851
  11 H :    0.093306

  Mayer bond orders larger than 0.1
B(  6-C ,  7-O ) :   1.0040 B(  6-C ,  9-H ) :   0.9754 B(  6-C , 10-H ) :   0.9786
B(  6-C , 11-H ) :   0.9645 B(  7-O ,  8-H ) :   0.9009

Dispersion correction           -0.000279559
FINAL SINGLE POINT ENERGY      -115.731615439262

DIPOLE MOMENT
-------------
                                X             Y             Z
Electronic contribution:      0.19342      -1.90747       0.11894
Nuclear contribution   :     -0.63372       2.25980       0.31236
                        -----------------------------------------
Total Dipole Moment    :     -0.44030       0.35233       0.43129
                        -----------------------------------------
Magnitude (a.u.)       :      0.70994
Magnitude (Debye)      :      1.80452

Rotational constants in cm-1:     4.250033     0.800939     0.776177
Rotational constants in MHz : 127412.776030 24011.542734 23269.203600

                             ****ORCA TERMINATED NORMALLY****
TOTAL RUN TIME: 0 days 0 hours 1 minutes 4 seconds 582 msec
