                         Program Version 4.1.2  - RELEASE  -
|  1> #Run DFT-D3 single point of the dimer
|  2> ! wB97X-D3 def2-TZVP TIGHTSCF CHELPG PMODEL PAL8
|  3>
|  4> %base "14-137_DFT_AB"
|  5>
|  6> %scf
|  7> MaxIter 1000
|  8> end
|  9>
| 10> * xyz 0 1
| 11>   C                      -5.134553            -7.098486            -11.157631
| 12>   O                      -6.287362            -7.656914            -11.565071
| 13>   H                      -6.782959            -7.946052            -10.769581
| 14>   H                      -4.525751            -6.722699            -12.042924
| 15>   H                      -5.230122            -6.248975            -10.453781
| 16>   H                      -4.588261            -7.930617            -10.645087
| 17>   C                      -5.754778            -3.235846            -8.383707
| 18>   O                      -6.142483            -3.431664            -9.751502
| 19>   H                      -6.132992            -2.534112            -10.024750
| 20>   H                      -5.479652            -4.266098            -7.984247
| 21>   H                      -4.861742            -2.610038            -8.240362
| 22>   H                      -6.566594            -2.828277            -7.769260
| 23> *
| 24>
| 25> #Run DFT-D3 single point of the molecule with dimer basis set
| 26> $new_job
| 27> %base "14-137_DFT_A"
| 28> ! wB97X-D3 def2-TZVP TIGHTSCF CHELPG PMODEL
| 29>
| 30> %scf
| 31> MaxIter 1000
| 32> end
| 33>
| 34> * xyz 0 1
| 35>   C                      -5.134553            -7.098486            -11.157631
| 36>   O                      -6.287362            -7.656914            -11.565071
| 37>   H                      -6.782959            -7.946052            -10.769581
| 38>   H                      -4.525751            -6.722699            -12.042924
| 39>   H                      -5.230122            -6.248975            -10.453781
| 40>   H                      -4.588261            -7.930617            -10.645087
| 41>   C                    : -5.754778            -3.235846            -8.383707
| 42>   O                    : -6.142483            -3.431664            -9.751502
| 43>   H                    : -6.132992            -2.534112            -10.024750
| 44>   H                    : -5.479652            -4.266098            -7.984247
| 45>   H                    : -4.861742            -2.610038            -8.240362
| 46>   H                    : -6.566594            -2.828277            -7.769260
| 47> *
| 48>
| 49> #Run DFT-D3 single point of the particle with dimer basis set
| 50> $new_job
| 51> %base "14-137_DFT_B"
| 52> ! wB97X-D3 def2-TZVP TIGHTSCF CHELPG PMODEL
| 53>
| 54> %scf
| 55> MaxIter 1000
| 56> end
| 57>
| 58> * xyz 0 1
| 59>   C                    : -5.134553            -7.098486            -11.157631
| 60>   O                    : -6.287362            -7.656914            -11.565071
| 61>   H                    : -6.782959            -7.946052            -10.769581
| 62>   H                    : -4.525751            -6.722699            -12.042924
| 63>   H                    : -5.230122            -6.248975            -10.453781
| 64>   H                    : -4.588261            -7.930617            -10.645087
| 65>   C                      -5.754778            -3.235846            -8.383707
| 66>   O                      -6.142483            -3.431664            -9.751502
| 67>   H                      -6.132992            -2.534112            -10.024750
| 68>   H                      -5.479652            -4.266098            -7.984247
| 69>   H                      -4.861742            -2.610038            -8.240362
| 70>   H                      -6.566594            -2.828277            -7.769260
| 71> *
| 72>
| 73>                          ****END OF INPUT****
 Total Charge           Charge          ....    0
 Multiplicity           Mult            ....    1
 Number of Electrons    NEL             ....   36
Dispersion correction           -0.001091240
FINAL SINGLE POINT ENERGY      -231.462096680121
Dispersion correction           -0.000213970
FINAL SINGLE POINT ENERGY      -115.728978097673

CARTESIAN COORDINATES (ANGSTROEM)
---------------------------------
  C     -5.134553   -7.098486  -11.157631
  O     -6.287362   -7.656914  -11.565071
  H     -6.782959   -7.946052  -10.769581
  H     -4.525751   -6.722699  -12.042924
  H     -5.230122   -6.248975  -10.453781
  H     -4.588261   -7.930617  -10.645087
  C     -5.754778   -3.235846   -8.383707
  O     -6.142483   -3.431664   -9.751502
  H     -6.132992   -2.534112  -10.024750
  H     -5.479652   -4.266098   -7.984247
  H     -4.861742   -2.610038   -8.240362
  H     -6.566594   -2.828277   -7.769260

 Multiplicity           Mult            ....    1
 Number of Electrons    NEL             ....   18
 Basis Dimension        Dim             ....  172

ORBITAL ENERGIES
----------------

  NO   OCC          E(Eh)            E(eV)
   0   2.0000     -19.233889      -523.3807
   1   2.0000     -10.320786      -280.8429
   2   2.0000      -1.142996       -31.1025
   3   2.0000      -0.790445       -21.5091
   4   2.0000      -0.610451       -16.6112
   5   2.0000      -0.542380       -14.7589
   6   2.0000      -0.515969       -14.0402
   7   2.0000      -0.444928       -12.1071
   8   2.0000      -0.379209       -10.3188
   9   0.0000       0.096652         2.6300
  10   0.0000       0.118993         3.2380
  11   0.0000       0.153093         4.1659
  12   0.0000       0.176229         4.7954
  13   0.0000       0.183089         4.9821

MULLIKEN ATOMIC CHARGES
-----------------------
   0 C :    0.000201
   1 O :    0.000000
   2 H :   -0.000024
   3 H :   -0.000001
   4 H :   -0.002950
   5 H :   -0.000061
   6 C :   -0.192758
   7 O :   -0.446520
   8 H :    0.305699
   9 H :    0.116033
  10 H :    0.109104
  11 H :    0.111276
Sum of atomic charges:    0.0000000

LOEWDIN ATOMIC CHARGES
----------------------
   0 C :   -0.001314
   1 O :   -0.000009
   2 H :   -0.000009
   3 H :   -0.000042
   4 H :   -0.002595
   5 H :   -0.000008
   6 C :   -0.385072
   7 O :   -0.074419
   8 H :    0.156451
   9 H :    0.116566
  10 H :    0.095333
  11 H :    0.095116

  Mayer bond orders larger than 0.1
B(  6-C ,  7-O ) :   1.0010 B(  6-C ,  9-H ) :   0.9779 B(  6-C , 10-H ) :   0.9711
B(  6-C , 11-H ) :   0.9680 B(  7-O ,  8-H ) :   0.9104

Dispersion correction           -0.000237106
FINAL SINGLE POINT ENERGY      -115.732218557624

DIPOLE MOMENT
-------------
                                X             Y             Z
Electronic contribution:     -0.54353      -0.30586      -1.79956
Nuclear contribution   :      0.70568       0.94321       2.15627
                        -----------------------------------------
Total Dipole Moment    :      0.16215       0.63735       0.35671
                        -----------------------------------------
Magnitude (a.u.)       :      0.74816
Magnitude (Debye)      :      1.90168

Rotational constants in cm-1:     4.160943     0.818495     0.787070
Rotational constants in MHz : 124741.928887 24537.870766 23595.761001

                             ****ORCA TERMINATED NORMALLY****
TOTAL RUN TIME: 0 days 0 hours 1 minutes 7 seconds 225 msec
