                         Program Version 4.1.2  - RELEASE  -
|  1> #Run DFT-D3 single point of the dimer
|  2> ! wB97X-D3 def2-TZVP TIGHTSCF CHELPG PMODEL PAL8
|  3>
|  4> %base "10-221_DFT_AB"
|  5>
|  6> %scf
|  7> MaxIter 1000
|  8> end
|  9>
| 10> * xyz 0 1
| 11>   C                      2.675618             -6.203368            1.633675
| 12>   O                      2.444537             -7.647593            1.736509
| 13>   H                      2.723204             -7.991222            2.578155
| 14>   H                      3.587809             -5.803961            2.130303
| 15>   H                      2.623426             -5.896592            0.648112
| 16>   H                      1.901644             -5.689782            2.197919
| 17>   C                      4.927070             -7.136852            4.687210
| 18>   O                      3.481489             -7.286531            4.707330
| 19>   H                      3.231415             -7.831343            5.483614
| 20>   H                      5.359156             -6.790389            3.759214
| 21>   H                      5.171913             -6.330077            5.394438
| 22>   H                      5.407996             -8.090754            4.960268
| 23> *
| 24>
| 25> #Run DFT-D3 single point of the molecule with dimer basis set
| 26> $new_job
| 27> %base "10-221_DFT_A"
| 28> ! wB97X-D3 def2-TZVP TIGHTSCF CHELPG PMODEL
| 29>
| 30> %scf
| 31> MaxIter 1000
| 32> end
| 33>
| 34> * xyz 0 1
| 35>   C                      2.675618             -6.203368            1.633675
| 36>   O                      2.444537             -7.647593            1.736509
| 37>   H                      2.723204             -7.991222            2.578155
| 38>   H                      3.587809             -5.803961            2.130303
| 39>   H                      2.623426             -5.896592            0.648112
| 40>   H                      1.901644             -5.689782            2.197919
| 41>   C                    : 4.927070             -7.136852            4.687210
| 42>   O                    : 3.481489             -7.286531            4.707330
| 43>   H                    : 3.231415             -7.831343            5.483614
| 44>   H                    : 5.359156             -6.790389            3.759214
| 45>   H                    : 5.171913             -6.330077            5.394438
| 46>   H                    : 5.407996             -8.090754            4.960268
| 47> *
| 48>
| 49> #Run DFT-D3 single point of the particle with dimer basis set
| 50> $new_job
| 51> %base "10-221_DFT_B"
| 52> ! wB97X-D3 def2-TZVP TIGHTSCF CHELPG PMODEL
| 53>
| 54> %scf
| 55> MaxIter 1000
| 56> end
| 57>
| 58> * xyz 0 1
| 59>   C                    : 2.675618             -6.203368            1.633675
| 60>   O                    : 2.444537             -7.647593            1.736509
| 61>   H                    : 2.723204             -7.991222            2.578155
| 62>   H                    : 3.587809             -5.803961            2.130303
| 63>   H                    : 2.623426             -5.896592            0.648112
| 64>   H                    : 1.901644             -5.689782            2.197919
| 65>   C                      4.927070             -7.136852            4.687210
| 66>   O                      3.481489             -7.286531            4.707330
| 67>   H                      3.231415             -7.831343            5.483614
| 68>   H                      5.359156             -6.790389            3.759214
| 69>   H                      5.171913             -6.330077            5.394438
| 70>   H                      5.407996             -8.090754            4.960268
| 71> *
| 72>
| 73>                          ****END OF INPUT****
 Total Charge           Charge          ....    0
 Multiplicity           Mult            ....    1
 Number of Electrons    NEL             ....   36
Dispersion correction           -0.002143712
FINAL SINGLE POINT ENERGY      -231.468330857566
Dispersion correction           -0.000275861
FINAL SINGLE POINT ENERGY      -115.729896413831

CARTESIAN COORDINATES (ANGSTROEM)
---------------------------------
  C      2.675618   -6.203368    1.633675
  O      2.444537   -7.647593    1.736509
  H      2.723204   -7.991222    2.578155
  H      3.587809   -5.803961    2.130303
  H      2.623426   -5.896592    0.648112
  H      1.901644   -5.689782    2.197919
  C      4.927070   -7.136852    4.687210
  O      3.481489   -7.286531    4.707330
  H      3.231415   -7.831343    5.483614
  H      5.359156   -6.790389    3.759214
  H      5.171913   -6.330077    5.394438
  H      5.407996   -8.090754    4.960268

 Multiplicity           Mult            ....    1
 Number of Electrons    NEL             ....   18
 Basis Dimension        Dim             ....  172

ORBITAL ENERGIES
----------------

  NO   OCC          E(Eh)            E(eV)
   0   2.0000     -19.230958      -523.3010
   1   2.0000     -10.317577      -280.7555
   2   2.0000      -1.119856       -30.4728
   3   2.0000      -0.796378       -21.6705
   4   2.0000      -0.597921       -16.2703
   5   2.0000      -0.539479       -14.6800
   6   2.0000      -0.529766       -14.4157
   7   2.0000      -0.430340       -11.7101
   8   2.0000      -0.372547       -10.1375
   9   0.0000       0.097224         2.6456
  10   0.0000       0.125812         3.4235
  11   0.0000       0.148784         4.0486
  12   0.0000       0.187686         5.1072
  13   0.0000       0.197155         5.3648

MULLIKEN ATOMIC CHARGES
-----------------------
   0 C :    0.004812
   1 O :   -0.000127
   2 H :   -0.010090
   3 H :   -0.000901
   4 H :   -0.000149
   5 H :   -0.002680
   6 C :   -0.170552
   7 O :   -0.480271
   8 H :    0.315984
   9 H :    0.125266
  10 H :    0.108737
  11 H :    0.109972
Sum of atomic charges:   -0.0000000

LOEWDIN ATOMIC CHARGES
----------------------
   0 C :   -0.006594
   1 O :   -0.002063
   2 H :   -0.018433
   3 H :   -0.002314
   4 H :   -0.000062
   5 H :   -0.000955
   6 C :   -0.356162
   7 O :   -0.095890
   8 H :    0.178476
   9 H :    0.104695
  10 H :    0.100107
  11 H :    0.099195

  Mayer bond orders larger than 0.1
B(  6-C ,  7-O ) :   0.9822 B(  6-C ,  9-H ) :   0.9727 B(  6-C , 10-H ) :   0.9777
B(  6-C , 11-H ) :   0.9781 B(  7-O ,  8-H ) :   0.8941

Dispersion correction           -0.000256482
FINAL SINGLE POINT ENERGY      -115.731938466677

DIPOLE MOMENT
-------------
                                X             Y             Z
Electronic contribution:     -1.79126      -0.14504      -0.18117
Nuclear contribution   :      2.25718      -0.12650       0.65809
                        -----------------------------------------
Total Dipole Moment    :      0.46592      -0.27154       0.47692
                        -----------------------------------------
Magnitude (a.u.)       :      0.71991
Magnitude (Debye)      :      1.82985

Rotational constants in cm-1:     4.293568     0.790306     0.764387
Rotational constants in MHz : 128717.925138 23692.766563 22915.731588

                             ****ORCA TERMINATED NORMALLY****
TOTAL RUN TIME: 0 days 0 hours 1 minutes 7 seconds 37 msec
