                         Program Version 4.1.2  - RELEASE  -
|  1> #Run DFT-D3 single point of the dimer
|  2> ! wB97X-D3 def2-TZVP TIGHTSCF CHELPG PMODEL PAL8
|  3>
|  4> %base "4-2_DFT_AB"
|  5>
|  6> %scf
|  7> MaxIter 1000
|  8> end
|  9>
| 10> * xyz 0 1
| 11>   C                      9.510002             3.753170             -5.325528
| 12>   O                      9.876401             4.225670             -4.068210
| 13>   H                      10.364098            5.018810             -4.265636
| 14>   H                      8.978419             2.857762             -5.197583
| 15>   H                      8.779346             4.325251             -5.874902
| 16>   H                      10.363160            3.582555             -6.031037
| 17>   C                      9.810884             8.419185             -3.583492
| 18>   O                      9.612407             7.131015             -3.055956
| 19>   H                      10.353074            6.900716             -2.494215
| 20>   H                      9.693423             9.099199             -2.713995
| 21>   H                      10.802785            8.513540             -3.972885
| 22>   H                      9.103682             8.572283             -4.367532
| 23> *
| 24>
| 25> #Run DFT-D3 single point of the molecule with dimer basis set
| 26> $new_job
| 27> %base "4-2_DFT_A"
| 28> ! wB97X-D3 def2-TZVP TIGHTSCF CHELPG PMODEL
| 29>
| 30> %scf
| 31> MaxIter 1000
| 32> end
| 33>
| 34> * xyz 0 1
| 35>   C                      9.510002             3.753170             -5.325528
| 36>   O                      9.876401             4.225670             -4.068210
| 37>   H                      10.364098            5.018810             -4.265636
| 38>   H                      8.978419             2.857762             -5.197583
| 39>   H                      8.779346             4.325251             -5.874902
| 40>   H                      10.363160            3.582555             -6.031037
| 41>   C                    : 9.810884             8.419185             -3.583492
| 42>   O                    : 9.612407             7.131015             -3.055956
| 43>   H                    : 10.353074            6.900716             -2.494215
| 44>   H                    : 9.693423             9.099199             -2.713995
| 45>   H                    : 10.802785            8.513540             -3.972885
| 46>   H                    : 9.103682             8.572283             -4.367532
| 47> *
| 48>
| 49> #Run DFT-D3 single point of the particle with dimer basis set
| 50> $new_job
| 51> %base "4-2_DFT_B"
| 52> ! wB97X-D3 def2-TZVP TIGHTSCF CHELPG PMODEL
| 53>
| 54> %scf
| 55> MaxIter 1000
| 56> end
| 57>
| 58> * xyz 0 1
| 59>   C                    : 9.510002             3.753170             -5.325528
| 60>   O                    : 9.876401             4.225670             -4.068210
| 61>   H                    : 10.364098            5.018810             -4.265636
| 62>   H                    : 8.978419             2.857762             -5.197583
| 63>   H                    : 8.779346             4.325251             -5.874902
| 64>   H                    : 10.363160            3.582555             -6.031037
| 65>   C                      9.810884             8.419185             -3.583492
| 66>   O                      9.612407             7.131015             -3.055956
| 67>   H                      10.353074            6.900716             -2.494215
| 68>   H                      9.693423             9.099199             -2.713995
| 69>   H                      10.802785            8.513540             -3.972885
| 70>   H                      9.103682             8.572283             -4.367532
| 71> *
| 72>
| 73>                          ****END OF INPUT****
 Total Charge           Charge          ....    0
 Multiplicity           Mult            ....    1
 Number of Electrons    NEL             ....   36
Dispersion correction           -0.001402198
FINAL SINGLE POINT ENERGY      -231.467603602649
Dispersion correction           -0.000233802
FINAL SINGLE POINT ENERGY      -115.732487226805

CARTESIAN COORDINATES (ANGSTROEM)
---------------------------------
  C      9.510002    3.753170   -5.325528
  O      9.876401    4.225670   -4.068210
  H     10.364098    5.018810   -4.265636
  H      8.978419    2.857762   -5.197583
  H      8.779346    4.325251   -5.874902
  H     10.363160    3.582555   -6.031037
  C      9.810884    8.419185   -3.583492
  O      9.612407    7.131015   -3.055956
  H     10.353074    6.900716   -2.494215
  H      9.693423    9.099199   -2.713995
  H     10.802785    8.513540   -3.972885
  H      9.103682    8.572283   -4.367532

 Multiplicity           Mult            ....    1
 Number of Electrons    NEL             ....   18
 Basis Dimension        Dim             ....  172

ORBITAL ENERGIES
----------------

  NO   OCC          E(Eh)            E(eV)
   0   2.0000     -19.224769      -523.1326
   1   2.0000     -10.308683      -280.5135
   2   2.0000      -1.137033       -30.9402
   3   2.0000      -0.796745       -21.6805
   4   2.0000      -0.611577       -16.6419
   5   2.0000      -0.548732       -14.9318
   6   2.0000      -0.530060       -14.4237
   7   2.0000      -0.433331       -11.7915
   8   2.0000      -0.368769       -10.0347
   9   0.0000       0.094700         2.5769
  10   0.0000       0.119539         3.2528
  11   0.0000       0.159358         4.3364
  12   0.0000       0.190596         5.1864
  13   0.0000       0.197687         5.3793

MULLIKEN ATOMIC CHARGES
-----------------------
   0 C :    0.000867
   1 O :    0.002955
   2 H :   -0.014725
   3 H :    0.000069
   4 H :   -0.000479
   5 H :   -0.000095
   6 C :   -0.147196
   7 O :   -0.477135
   8 H :    0.314393
   9 H :    0.098507
  10 H :    0.101881
  11 H :    0.120957
Sum of atomic charges:   -0.0000000

LOEWDIN ATOMIC CHARGES
----------------------
   0 C :   -0.001089
   1 O :   -0.004767
   2 H :   -0.014363
   3 H :   -0.000013
   4 H :   -0.000146
   5 H :   -0.000010
   6 C :   -0.377969
   7 O :   -0.062618
   8 H :    0.166630
   9 H :    0.101007
  10 H :    0.089713
  11 H :    0.103625

  Mayer bond orders larger than 0.1
B(  6-C ,  7-O ) :   0.9834 B(  6-C ,  9-H ) :   0.9823 B(  6-C , 10-H ) :   0.9796
B(  6-C , 11-H ) :   0.9736 B(  7-O ,  8-H ) :   0.8982

Dispersion correction           -0.000210236
FINAL SINGLE POINT ENERGY      -115.734295801575

DIPOLE MOMENT
-------------
                                X             Y             Z
Electronic contribution:     -0.39401      -1.54294       0.47479
Nuclear contribution   :      0.95192       1.91979      -0.34087
                        -----------------------------------------
Total Dipole Moment    :      0.55791       0.37684       0.13392
                        -----------------------------------------
Magnitude (a.u.)       :      0.68645
Magnitude (Debye)      :      1.74481

Rotational constants in cm-1:     4.257083     0.852970     0.822570
Rotational constants in MHz : 127624.135091 25571.389749 24660.027707

                             ****ORCA TERMINATED NORMALLY****
TOTAL RUN TIME: 0 days 0 hours 1 minutes 36 seconds 146 msec
