                         Program Version 4.1.2  - RELEASE  -
|  1> #Run DFT-D3 single point of the dimer
|  2> ! wB97X-D3 def2-TZVP TIGHTSCF CHELPG PMODEL PAL8
|  3>
|  4> %base "14-143_DFT_AB"
|  5>
|  6> %scf
|  7> MaxIter 1000
|  8> end
|  9>
| 10> * xyz 0 1
| 11>   C                      -6.355175            4.803348             -0.633554
| 12>   O                      -6.165207            4.170899             0.606047
| 13>   H                      -6.825564            3.483296             0.638373
| 14>   H                      -7.380405            5.187809             -0.791474
| 15>   H                      -5.628031            5.602576             -0.976239
| 16>   H                      -6.191720            4.108695             -1.435763
| 17>   C                      -2.993871            4.808309             1.070892
| 18>   O                      -3.326245            3.552007             0.491658
| 19>   H                      -4.295734            3.647251             0.335591
| 20>   H                      -3.327835            5.618493             0.369833
| 21>   H                      -3.499959            4.935140             1.987450
| 22>   H                      -1.906721            4.852058             1.179640
| 23> *
| 24>
| 25> #Run DFT-D3 single point of the molecule with dimer basis set
| 26> $new_job
| 27> %base "14-143_DFT_A"
| 28> ! wB97X-D3 def2-TZVP TIGHTSCF CHELPG PMODEL
| 29>
| 30> %scf
| 31> MaxIter 1000
| 32> end
| 33>
| 34> * xyz 0 1
| 35>   C                      -6.355175            4.803348             -0.633554
| 36>   O                      -6.165207            4.170899             0.606047
| 37>   H                      -6.825564            3.483296             0.638373
| 38>   H                      -7.380405            5.187809             -0.791474
| 39>   H                      -5.628031            5.602576             -0.976239
| 40>   H                      -6.191720            4.108695             -1.435763
| 41>   C                    : -2.993871            4.808309             1.070892
| 42>   O                    : -3.326245            3.552007             0.491658
| 43>   H                    : -4.295734            3.647251             0.335591
| 44>   H                    : -3.327835            5.618493             0.369833
| 45>   H                    : -3.499959            4.935140             1.987450
| 46>   H                    : -1.906721            4.852058             1.179640
| 47> *
| 48>
| 49> #Run DFT-D3 single point of the particle with dimer basis set
| 50> $new_job
| 51> %base "14-143_DFT_B"
| 52> ! wB97X-D3 def2-TZVP TIGHTSCF CHELPG PMODEL
| 53>
| 54> %scf
| 55> MaxIter 1000
| 56> end
| 57>
| 58> * xyz 0 1
| 59>   C                    : -6.355175            4.803348             -0.633554
| 60>   O                    : -6.165207            4.170899             0.606047
| 61>   H                    : -6.825564            3.483296             0.638373
| 62>   H                    : -7.380405            5.187809             -0.791474
| 63>   H                    : -5.628031            5.602576             -0.976239
| 64>   H                    : -6.191720            4.108695             -1.435763
| 65>   C                      -2.993871            4.808309             1.070892
| 66>   O                      -3.326245            3.552007             0.491658
| 67>   H                      -4.295734            3.647251             0.335591
| 68>   H                      -3.327835            5.618493             0.369833
| 69>   H                      -3.499959            4.935140             1.987450
| 70>   H                      -1.906721            4.852058             1.179640
| 71> *
| 72>
| 73>                          ****END OF INPUT****
 Total Charge           Charge          ....    0
 Multiplicity           Mult            ....    1
 Number of Electrons    NEL             ....   36
Dispersion correction           -0.002187034
FINAL SINGLE POINT ENERGY      -231.470777934917
Dispersion correction           -0.000243351
FINAL SINGLE POINT ENERGY      -115.729108058815

CARTESIAN COORDINATES (ANGSTROEM)
---------------------------------
  C     -6.355175    4.803348   -0.633554
  O     -6.165207    4.170899    0.606047
  H     -6.825564    3.483296    0.638373
  H     -7.380405    5.187809   -0.791474
  H     -5.628031    5.602576   -0.976239
  H     -6.191720    4.108695   -1.435763
  C     -2.993871    4.808309    1.070892
  O     -3.326245    3.552007    0.491658
  H     -4.295734    3.647251    0.335591
  H     -3.327835    5.618493    0.369833
  H     -3.499959    4.935140    1.987450
  H     -1.906721    4.852058    1.179640

 Multiplicity           Mult            ....    1
 Number of Electrons    NEL             ....   18
 Basis Dimension        Dim             ....  172

ORBITAL ENERGIES
----------------

  NO   OCC          E(Eh)            E(eV)
   0   2.0000     -19.232538      -523.3440
   1   2.0000     -10.312081      -280.6060
   2   2.0000      -1.132316       -30.8119
   3   2.0000      -0.790589       -21.5130
   4   2.0000      -0.606916       -16.5150
   5   2.0000      -0.544906       -14.8276
   6   2.0000      -0.523103       -14.2343
   7   2.0000      -0.441351       -12.0098
   8   2.0000      -0.372336       -10.1318
   9   0.0000       0.065942         1.7944
  10   0.0000       0.139949         3.8082
  11   0.0000       0.143934         3.9166
  12   0.0000       0.163673         4.4538
  13   0.0000       0.195958         5.3323

MULLIKEN ATOMIC CHARGES
-----------------------
   0 C :   -0.006421
   1 O :   -0.003377
   2 H :   -0.000619
   3 H :   -0.000205
   4 H :    0.000602
   5 H :    0.000846
   6 C :   -0.178172
   7 O :   -0.464529
   8 H :    0.313066
   9 H :    0.102059
  10 H :    0.111231
  11 H :    0.125519
Sum of atomic charges:    0.0000000

LOEWDIN ATOMIC CHARGES
----------------------
   0 C :   -0.010984
   1 O :   -0.017735
   2 H :   -0.001356
   3 H :   -0.000186
   4 H :   -0.001829
   5 H :   -0.000919
   6 C :   -0.376393
   7 O :   -0.083215
   8 H :    0.194659
   9 H :    0.101694
  10 H :    0.087037
  11 H :    0.109227

  Mayer bond orders larger than 0.1
B(  6-C ,  7-O ) :   0.9872 B(  6-C ,  9-H ) :   0.9799 B(  6-C , 10-H ) :   0.9764
B(  6-C , 11-H ) :   0.9732 B(  7-O ,  8-H ) :   0.9112

Dispersion correction           -0.000211750
FINAL SINGLE POINT ENERGY      -115.733970418712

DIPOLE MOMENT
-------------
                                X             Y             Z
Electronic contribution:     -0.20033      -1.65238      -0.59853
Nuclear contribution   :     -0.24421       2.19695       0.74414
                        -----------------------------------------
Total Dipole Moment    :     -0.44455       0.54456       0.14561
                        -----------------------------------------
Magnitude (a.u.)       :      0.71789
Magnitude (Debye)      :      1.82474

Rotational constants in cm-1:     4.127631     0.840920     0.803055
Rotational constants in MHz : 123743.264455 25210.133311 24074.977955

                             ****ORCA TERMINATED NORMALLY****
TOTAL RUN TIME: 0 days 0 hours 1 minutes 9 seconds 917 msec
