                         Program Version 4.1.2  - RELEASE  -
|  1> #Run DFT-D3 single point of the dimer
|  2> ! wB97X-D3 def2-TZVP TIGHTSCF CHELPG PMODEL PAL8
|  3>
|  4> %base "10-211_DFT_AB"
|  5>
|  6> %scf
|  7> MaxIter 1000
|  8> end
|  9>
| 10> * xyz 0 1
| 11>   C                      -4.404088            8.301421             -11.045758
| 12>   O                      -3.754674            9.139103             -10.163553
| 13>   H                      -3.325640            8.637226             -9.468099
| 14>   H                      -3.700890            7.749729             -11.725088
| 15>   H                      -5.091400            7.647098             -10.565923
| 16>   H                      -4.980767            8.861053             -11.734512
| 17>   C                      -1.296609            7.293209             -7.531955
| 18>   O                      -1.946589            7.464727             -8.781406
| 19>   H                      -1.329584            7.170655             -9.429763
| 20>   H                      -1.560090            6.288227             -7.259894
| 21>   H                      -0.201861            7.420259             -7.582336
| 22>   H                      -1.695462            7.848368             -6.655559
| 23> *
| 24>
| 25> #Run DFT-D3 single point of the molecule with dimer basis set
| 26> $new_job
| 27> %base "10-211_DFT_A"
| 28> ! wB97X-D3 def2-TZVP TIGHTSCF CHELPG PMODEL
| 29>
| 30> %scf
| 31> MaxIter 1000
| 32> end
| 33>
| 34> * xyz 0 1
| 35>   C                      -4.404088            8.301421             -11.045758
| 36>   O                      -3.754674            9.139103             -10.163553
| 37>   H                      -3.325640            8.637226             -9.468099
| 38>   H                      -3.700890            7.749729             -11.725088
| 39>   H                      -5.091400            7.647098             -10.565923
| 40>   H                      -4.980767            8.861053             -11.734512
| 41>   C                    : -1.296609            7.293209             -7.531955
| 42>   O                    : -1.946589            7.464727             -8.781406
| 43>   H                    : -1.329584            7.170655             -9.429763
| 44>   H                    : -1.560090            6.288227             -7.259894
| 45>   H                    : -0.201861            7.420259             -7.582336
| 46>   H                    : -1.695462            7.848368             -6.655559
| 47> *
| 48>
| 49> #Run DFT-D3 single point of the particle with dimer basis set
| 50> $new_job
| 51> %base "10-211_DFT_B"
| 52> ! wB97X-D3 def2-TZVP TIGHTSCF CHELPG PMODEL
| 53>
| 54> %scf
| 55> MaxIter 1000
| 56> end
| 57>
| 58> * xyz 0 1
| 59>   C                    : -4.404088            8.301421             -11.045758
| 60>   O                    : -3.754674            9.139103             -10.163553
| 61>   H                    : -3.325640            8.637226             -9.468099
| 62>   H                    : -3.700890            7.749729             -11.725088
| 63>   H                    : -5.091400            7.647098             -10.565923
| 64>   H                    : -4.980767            8.861053             -11.734512
| 65>   C                      -1.296609            7.293209             -7.531955
| 66>   O                      -1.946589            7.464727             -8.781406
| 67>   H                      -1.329584            7.170655             -9.429763
| 68>   H                      -1.560090            6.288227             -7.259894
| 69>   H                      -0.201861            7.420259             -7.582336
| 70>   H                      -1.695462            7.848368             -6.655559
| 71> *
| 72>
| 73>                          ****END OF INPUT****
 Total Charge           Charge          ....    0
 Multiplicity           Mult            ....    1
 Number of Electrons    NEL             ....   36
Dispersion correction           -0.001604685
FINAL SINGLE POINT ENERGY      -231.470735207957
Dispersion correction           -0.000237062
FINAL SINGLE POINT ENERGY      -115.734229694791

CARTESIAN COORDINATES (ANGSTROEM)
---------------------------------
  C     -4.404088    8.301421  -11.045758
  O     -3.754674    9.139103  -10.163553
  H     -3.325640    8.637226   -9.468099
  H     -3.700890    7.749729  -11.725088
  H     -5.091400    7.647098  -10.565923
  H     -4.980767    8.861053  -11.734512
  C     -1.296609    7.293209   -7.531955
  O     -1.946589    7.464727   -8.781406
  H     -1.329584    7.170655   -9.429763
  H     -1.560090    6.288227   -7.259894
  H     -0.201861    7.420259   -7.582336
  H     -1.695462    7.848368   -6.655559

 Multiplicity           Mult            ....    1
 Number of Electrons    NEL             ....   18
 Basis Dimension        Dim             ....  172

ORBITAL ENERGIES
----------------

  NO   OCC          E(Eh)            E(eV)
   0   2.0000     -19.229390      -523.2583
   1   2.0000     -10.314750      -280.6786
   2   2.0000      -1.140872       -31.0447
   3   2.0000      -0.796782       -21.6816
   4   2.0000      -0.610915       -16.6238
   5   2.0000      -0.542567       -14.7640
   6   2.0000      -0.531728       -14.4690
   7   2.0000      -0.436802       -11.8860
   8   2.0000      -0.369596       -10.0572
   9   0.0000       0.098520         2.6809
  10   0.0000       0.125464         3.4141
  11   0.0000       0.153234         4.1697
  12   0.0000       0.186906         5.0860
  13   0.0000       0.201637         5.4868

MULLIKEN ATOMIC CHARGES
-----------------------
   0 C :    0.001251
   1 O :    0.001233
   2 H :   -0.012982
   3 H :   -0.000924
   4 H :   -0.000969
   5 H :   -0.000188
   6 C :   -0.172828
   7 O :   -0.460213
   8 H :    0.313394
   9 H :    0.106009
  10 H :    0.108255
  11 H :    0.117960
Sum of atomic charges:   -0.0000000

LOEWDIN ATOMIC CHARGES
----------------------
   0 C :   -0.004632
   1 O :   -0.006939
   2 H :   -0.042543
   3 H :   -0.000380
   4 H :   -0.000335
   5 H :   -0.000068
   6 C :   -0.382665
   7 O :   -0.029012
   8 H :    0.161294
   9 H :    0.095037
  10 H :    0.099049
  11 H :    0.111194

  Mayer bond orders larger than 0.1
B(  6-C ,  7-O ) :   0.9833 B(  6-C ,  9-H ) :   0.9867 B(  6-C , 10-H ) :   0.9742
B(  6-C , 11-H ) :   0.9728 B(  7-O ,  8-H ) :   0.9003

Dispersion correction           -0.000234001
FINAL SINGLE POINT ENERGY      -115.728835389256

DIPOLE MOMENT
-------------
                                X             Y             Z
Electronic contribution:     -0.88700       0.41193      -1.57268
Nuclear contribution   :      1.54051      -0.68513       1.67643
                        -----------------------------------------
Total Dipole Moment    :      0.65350      -0.27320       0.10375
                        -----------------------------------------
Magnitude (a.u.)       :      0.71587
Magnitude (Debye)      :      1.81960

Rotational constants in cm-1:     4.379656     0.829957     0.793132
Rotational constants in MHz : 131298.769652 24881.483781 23777.487850

                             ****ORCA TERMINATED NORMALLY****
TOTAL RUN TIME: 0 days 0 hours 1 minutes 9 seconds 771 msec
