                         Program Version 4.1.2  - RELEASE  -
|  1> #Run DFT-D3 single point of the dimer
|  2> ! wB97X-D3 def2-TZVP TIGHTSCF CHELPG PMODEL PAL8
|  3>
|  4> %base "13-78_DFT_AB"
|  5>
|  6> %scf
|  7> MaxIter 1000
|  8> end
|  9>
| 10> * xyz 0 1
| 11>   C                      9.028161             -7.584521            4.100614
| 12>   O                      8.192791             -6.828802            5.014434
| 13>   H                      7.594326             -6.269406            4.519792
| 14>   H                      8.513725             -7.939866            3.227101
| 15>   H                      9.834166             -6.927564            3.751375
| 16>   H                      9.510038             -8.408056            4.560258
| 17>   C                      4.431725             -7.665055            2.090697
| 18>   O                      3.952023             -6.491349            1.410912
| 19>   H                      3.328230             -6.798843            0.777364
| 20>   H                      4.780630             -7.528567            3.165821
| 21>   H                      3.676790             -8.425385            2.224436
| 22>   H                      5.257846             -8.104573            1.525051
| 23> *
| 24>
| 25> #Run DFT-D3 single point of the molecule with dimer basis set
| 26> $new_job
| 27> %base "13-78_DFT_A"
| 28> ! wB97X-D3 def2-TZVP TIGHTSCF CHELPG PMODEL
| 29>
| 30> %scf
| 31> MaxIter 1000
| 32> end
| 33>
| 34> * xyz 0 1
| 35>   C                      9.028161             -7.584521            4.100614
| 36>   O                      8.192791             -6.828802            5.014434
| 37>   H                      7.594326             -6.269406            4.519792
| 38>   H                      8.513725             -7.939866            3.227101
| 39>   H                      9.834166             -6.927564            3.751375
| 40>   H                      9.510038             -8.408056            4.560258
| 41>   C                    : 4.431725             -7.665055            2.090697
| 42>   O                    : 3.952023             -6.491349            1.410912
| 43>   H                    : 3.328230             -6.798843            0.777364
| 44>   H                    : 4.780630             -7.528567            3.165821
| 45>   H                    : 3.676790             -8.425385            2.224436
| 46>   H                    : 5.257846             -8.104573            1.525051
| 47> *
| 48>
| 49> #Run DFT-D3 single point of the particle with dimer basis set
| 50> $new_job
| 51> %base "13-78_DFT_B"
| 52> ! wB97X-D3 def2-TZVP TIGHTSCF CHELPG PMODEL
| 53>
| 54> %scf
| 55> MaxIter 1000
| 56> end
| 57>
| 58> * xyz 0 1
| 59>   C                    : 9.028161             -7.584521            4.100614
| 60>   O                    : 8.192791             -6.828802            5.014434
| 61>   H                    : 7.594326             -6.269406            4.519792
| 62>   H                    : 8.513725             -7.939866            3.227101
| 63>   H                    : 9.834166             -6.927564            3.751375
| 64>   H                    : 9.510038             -8.408056            4.560258
| 65>   C                      4.431725             -7.665055            2.090697
| 66>   O                      3.952023             -6.491349            1.410912
| 67>   H                      3.328230             -6.798843            0.777364
| 68>   H                      4.780630             -7.528567            3.165821
| 69>   H                      3.676790             -8.425385            2.224436
| 70>   H                      5.257846             -8.104573            1.525051
| 71> *
| 72>
| 73>                          ****END OF INPUT****
 Total Charge           Charge          ....    0
 Multiplicity           Mult            ....    1
 Number of Electrons    NEL             ....   36
Dispersion correction           -0.000967553
FINAL SINGLE POINT ENERGY      -231.465750138618
Dispersion correction           -0.000256721
FINAL SINGLE POINT ENERGY      -115.733707887397

CARTESIAN COORDINATES (ANGSTROEM)
---------------------------------
  C      9.028161   -7.584521    4.100614
  O      8.192791   -6.828802    5.014434
  H      7.594326   -6.269406    4.519792
  H      8.513725   -7.939866    3.227101
  H      9.834166   -6.927564    3.751375
  H      9.510038   -8.408056    4.560258
  C      4.431725   -7.665055    2.090697
  O      3.952023   -6.491349    1.410912
  H      3.328230   -6.798843    0.777364
  H      4.780630   -7.528567    3.165821
  H      3.676790   -8.425385    2.224436
  H      5.257846   -8.104573    1.525051

 Multiplicity           Mult            ....    1
 Number of Electrons    NEL             ....   18
 Basis Dimension        Dim             ....  172

ORBITAL ENERGIES
----------------

  NO   OCC          E(Eh)            E(eV)
   0   2.0000     -19.231332      -523.3112
   1   2.0000     -10.318932      -280.7924
   2   2.0000      -1.135257       -30.8919
   3   2.0000      -0.796672       -21.6786
   4   2.0000      -0.610481       -16.6120
   5   2.0000      -0.541264       -14.7286
   6   2.0000      -0.521202       -14.1826
   7   2.0000      -0.433447       -11.7947
   8   2.0000      -0.377469       -10.2714
   9   0.0000       0.085691         2.3318
  10   0.0000       0.118440         3.2229
  11   0.0000       0.144698         3.9374
  12   0.0000       0.163059         4.4371
  13   0.0000       0.190760         5.1908

MULLIKEN ATOMIC CHARGES
-----------------------
   0 C :   -0.000018
   1 O :   -0.000004
   2 H :    0.000024
   3 H :   -0.000141
   4 H :   -0.000006
   5 H :    0.000002
   6 C :   -0.184090
   7 O :   -0.467206
   8 H :    0.313683
   9 H :    0.117353
  10 H :    0.111132
  11 H :    0.109270
Sum of atomic charges:   -0.0000000

LOEWDIN ATOMIC CHARGES
----------------------
   0 C :   -0.000130
   1 O :   -0.000040
   2 H :   -0.000317
   3 H :   -0.000192
   4 H :   -0.000001
   5 H :   -0.000001
   6 C :   -0.376772
   7 O :   -0.083622
   8 H :    0.156951
   9 H :    0.115628
  10 H :    0.092255
  11 H :    0.096241

  Mayer bond orders larger than 0.1
B(  6-C ,  7-O ) :   1.0005 B(  6-C ,  9-H ) :   0.9696 B(  6-C , 10-H ) :   0.9771
B(  6-C , 11-H ) :   0.9767 B(  7-O ,  8-H ) :   0.9039

Dispersion correction           -0.000260129
FINAL SINGLE POINT ENERGY      -115.731081304348

DIPOLE MOMENT
-------------
                                X             Y             Z
Electronic contribution:     -0.56352       1.66230      -0.84159
Nuclear contribution   :      0.33515      -2.35216       0.71947
                        -----------------------------------------
Total Dipole Moment    :     -0.22837      -0.68987      -0.12212
                        -----------------------------------------
Magnitude (a.u.)       :      0.73687
Magnitude (Debye)      :      1.87298

Rotational constants in cm-1:     4.386250     0.795735     0.774028
Rotational constants in MHz : 131496.481178 23855.528343 23204.775449

                             ****ORCA TERMINATED NORMALLY****
TOTAL RUN TIME: 0 days 0 hours 0 minutes 58 seconds 129 msec
