                         Program Version 4.1.2  - RELEASE  -
|  1> #Run DFT-D3 single point of the dimer
|  2> ! wB97X-D3 def2-TZVP TIGHTSCF CHELPG PMODEL PAL8
|  3>
|  4> %base "21-199_DFT_AB"
|  5>
|  6> %scf
|  7> MaxIter 1000
|  8> end
|  9>
| 10> * xyz 0 1
| 11>   C                      -8.595847            -6.154089            -5.484625
| 12>   O                      -9.426855            -6.482091            -4.449052
| 13>   H                      -8.852341            -7.088361            -3.970164
| 14>   H                      -7.546045            -5.835245            -5.055620
| 15>   H                      -8.455440            -7.067868            -6.005202
| 16>   H                      -8.996814            -5.380698            -6.153007
| 17>   C                      -6.433659            -7.688560            -2.264360
| 18>   O                      -7.821233            -7.958168            -2.522958
| 19>   H                      -8.350406            -7.525737            -1.852029
| 20>   H                      -5.984123            -8.200384            -1.403321
| 21>   H                      -5.834364            -7.884514            -3.193238
| 22>   H                      -6.276113            -6.608584            -2.092495
| 23> *
| 24>
| 25> #Run DFT-D3 single point of the molecule with dimer basis set
| 26> $new_job
| 27> %base "21-199_DFT_A"
| 28> ! wB97X-D3 def2-TZVP TIGHTSCF CHELPG PMODEL
| 29>
| 30> %scf
| 31> MaxIter 1000
| 32> end
| 33>
| 34> * xyz 0 1
| 35>   C                      -8.595847            -6.154089            -5.484625
| 36>   O                      -9.426855            -6.482091            -4.449052
| 37>   H                      -8.852341            -7.088361            -3.970164
| 38>   H                      -7.546045            -5.835245            -5.055620
| 39>   H                      -8.455440            -7.067868            -6.005202
| 40>   H                      -8.996814            -5.380698            -6.153007
| 41>   C                    : -6.433659            -7.688560            -2.264360
| 42>   O                    : -7.821233            -7.958168            -2.522958
| 43>   H                    : -8.350406            -7.525737            -1.852029
| 44>   H                    : -5.984123            -8.200384            -1.403321
| 45>   H                    : -5.834364            -7.884514            -3.193238
| 46>   H                    : -6.276113            -6.608584            -2.092495
| 47> *
| 48>
| 49> #Run DFT-D3 single point of the particle with dimer basis set
| 50> $new_job
| 51> %base "21-199_DFT_B"
| 52> ! wB97X-D3 def2-TZVP TIGHTSCF CHELPG PMODEL
| 53>
| 54> %scf
| 55> MaxIter 1000
| 56> end
| 57>
| 58> * xyz 0 1
| 59>   C                    : -8.595847            -6.154089            -5.484625
| 60>   O                    : -9.426855            -6.482091            -4.449052
| 61>   H                    : -8.852341            -7.088361            -3.970164
| 62>   H                    : -7.546045            -5.835245            -5.055620
| 63>   H                    : -8.455440            -7.067868            -6.005202
| 64>   H                    : -8.996814            -5.380698            -6.153007
| 65>   C                      -6.433659            -7.688560            -2.264360
| 66>   O                      -7.821233            -7.958168            -2.522958
| 67>   H                      -8.350406            -7.525737            -1.852029
| 68>   H                      -5.984123            -8.200384            -1.403321
| 69>   H                      -5.834364            -7.884514            -3.193238
| 70>   H                      -6.276113            -6.608584            -2.092495
| 71> *
| 72>
| 73>                          ****END OF INPUT****
 Total Charge           Charge          ....    0
 Multiplicity           Mult            ....    1
 Number of Electrons    NEL             ....   36
Dispersion correction           -0.001927859
FINAL SINGLE POINT ENERGY      -231.468791490389
Dispersion correction           -0.000189814
FINAL SINGLE POINT ENERGY      -115.724848383288

CARTESIAN COORDINATES (ANGSTROEM)
---------------------------------
  C     -8.595847   -6.154089   -5.484625
  O     -9.426855   -6.482091   -4.449052
  H     -8.852341   -7.088361   -3.970164
  H     -7.546045   -5.835245   -5.055620
  H     -8.455440   -7.067868   -6.005202
  H     -8.996814   -5.380698   -6.153007
  C     -6.433659   -7.688560   -2.264360
  O     -7.821233   -7.958168   -2.522958
  H     -8.350406   -7.525737   -1.852029
  H     -5.984123   -8.200384   -1.403321
  H     -5.834364   -7.884514   -3.193238
  H     -6.276113   -6.608584   -2.092495

 Multiplicity           Mult            ....    1
 Number of Electrons    NEL             ....   18
 Basis Dimension        Dim             ....  172

ORBITAL ENERGIES
----------------

  NO   OCC          E(Eh)            E(eV)
   0   2.0000     -19.233312      -523.3650
   1   2.0000     -10.320217      -280.8274
   2   2.0000      -1.130961       -30.7750
   3   2.0000      -0.795067       -21.6349
   4   2.0000      -0.609754       -16.5922
   5   2.0000      -0.538024       -14.6404
   6   2.0000      -0.520772       -14.1709
   7   2.0000      -0.433171       -11.7872
   8   2.0000      -0.377407       -10.2698
   9   0.0000       0.094773         2.5789
  10   0.0000       0.127803         3.4777
  11   0.0000       0.144927         3.9437
  12   0.0000       0.186234         5.0677
  13   0.0000       0.198360         5.3976

MULLIKEN ATOMIC CHARGES
-----------------------
   0 C :    0.002480
   1 O :   -0.001763
   2 H :   -0.011708
   3 H :   -0.000936
   4 H :   -0.000785
   5 H :    0.000009
   6 C :   -0.178269
   7 O :   -0.469646
   8 H :    0.316366
   9 H :    0.111713
  10 H :    0.126277
  11 H :    0.106262
Sum of atomic charges:   -0.0000000

LOEWDIN ATOMIC CHARGES
----------------------
   0 C :   -0.003252
   1 O :   -0.005827
   2 H :   -0.041042
   3 H :   -0.000710
   4 H :   -0.000225
   5 H :   -0.000043
   6 C :   -0.377855
   7 O :   -0.048882
   8 H :    0.167706
   9 H :    0.096564
  10 H :    0.116225
  11 H :    0.097340

  Mayer bond orders larger than 0.1
B(  6-C ,  7-O ) :   0.9857 B(  6-C ,  9-H ) :   0.9623 B(  6-C , 10-H ) :   0.9757
B(  6-C , 11-H ) :   0.9806 B(  7-O ,  8-H ) :   0.8968

Dispersion correction           -0.000267510
FINAL SINGLE POINT ENERGY      -115.734928138467

DIPOLE MOMENT
-------------
                                X             Y             Z
Electronic contribution:     -1.76803      -0.53997      -0.37045
Nuclear contribution   :      2.00747       0.94172       0.90587
                        -----------------------------------------
Total Dipole Moment    :      0.23944       0.40176       0.53542
                        -----------------------------------------
Magnitude (a.u.)       :      0.71093
Magnitude (Debye)      :      1.80703

Rotational constants in cm-1:     4.286110     0.799936     0.772656
Rotational constants in MHz : 128494.355254 23981.466540 23163.647323

                             ****ORCA TERMINATED NORMALLY****
TOTAL RUN TIME: 0 days 0 hours 1 minutes 7 seconds 455 msec
