                         Program Version 4.1.2  - RELEASE  -
|  1> #Run DFT-D3 single point of the dimer
|  2> ! wB97X-D3 def2-TZVP TIGHTSCF CHELPG PMODEL PAL8
|  3>
|  4> %base "4-3_DFT_AB"
|  5>
|  6> %scf
|  7> MaxIter 1000
|  8> end
|  9>
| 10> * xyz 0 1
| 11>   C                      9.510002             3.753170             -5.325528
| 12>   O                      9.876401             4.225670             -4.068210
| 13>   H                      10.364098            5.018810             -4.265636
| 14>   H                      8.978419             2.857762             -5.197583
| 15>   H                      8.779346             4.325251             -5.874902
| 16>   H                      10.363160            3.582555             -6.031037
| 17>   C                      8.803671             5.429537             -0.344730
| 18>   O                      7.914857             5.250084             -1.418711
| 19>   H                      8.278456             5.800383             -2.093842
| 20>   H                      9.875000             5.493104             -0.713531
| 21>   H                      8.621284             6.403243             0.179232
| 22>   H                      8.789780             4.531197             0.299483
| 23> *
| 24>
| 25> #Run DFT-D3 single point of the molecule with dimer basis set
| 26> $new_job
| 27> %base "4-3_DFT_A"
| 28> ! wB97X-D3 def2-TZVP TIGHTSCF CHELPG PMODEL
| 29>
| 30> %scf
| 31> MaxIter 1000
| 32> end
| 33>
| 34> * xyz 0 1
| 35>   C                      9.510002             3.753170             -5.325528
| 36>   O                      9.876401             4.225670             -4.068210
| 37>   H                      10.364098            5.018810             -4.265636
| 38>   H                      8.978419             2.857762             -5.197583
| 39>   H                      8.779346             4.325251             -5.874902
| 40>   H                      10.363160            3.582555             -6.031037
| 41>   C                    : 8.803671             5.429537             -0.344730
| 42>   O                    : 7.914857             5.250084             -1.418711
| 43>   H                    : 8.278456             5.800383             -2.093842
| 44>   H                    : 9.875000             5.493104             -0.713531
| 45>   H                    : 8.621284             6.403243             0.179232
| 46>   H                    : 8.789780             4.531197             0.299483
| 47> *
| 48>
| 49> #Run DFT-D3 single point of the particle with dimer basis set
| 50> $new_job
| 51> %base "4-3_DFT_B"
| 52> ! wB97X-D3 def2-TZVP TIGHTSCF CHELPG PMODEL
| 53>
| 54> %scf
| 55> MaxIter 1000
| 56> end
| 57>
| 58> * xyz 0 1
| 59>   C                    : 9.510002             3.753170             -5.325528
| 60>   O                    : 9.876401             4.225670             -4.068210
| 61>   H                    : 10.364098            5.018810             -4.265636
| 62>   H                    : 8.978419             2.857762             -5.197583
| 63>   H                    : 8.779346             4.325251             -5.874902
| 64>   H                    : 10.363160            3.582555             -6.031037
| 65>   C                      8.803671             5.429537             -0.344730
| 66>   O                      7.914857             5.250084             -1.418711
| 67>   H                      8.278456             5.800383             -2.093842
| 68>   H                      9.875000             5.493104             -0.713531
| 69>   H                      8.621284             6.403243             0.179232
| 70>   H                      8.789780             4.531197             0.299483
| 71> *
| 72>
| 73>                          ****END OF INPUT****
 Total Charge           Charge          ....    0
 Multiplicity           Mult            ....    1
 Number of Electrons    NEL             ....   36
Dispersion correction           -0.001285488
FINAL SINGLE POINT ENERGY      -231.465644316675
Dispersion correction           -0.000233802
FINAL SINGLE POINT ENERGY      -115.732407654859

CARTESIAN COORDINATES (ANGSTROEM)
---------------------------------
  C      9.510002    3.753170   -5.325528
  O      9.876401    4.225670   -4.068210
  H     10.364098    5.018810   -4.265636
  H      8.978419    2.857762   -5.197583
  H      8.779346    4.325251   -5.874902
  H     10.363160    3.582555   -6.031037
  C      8.803671    5.429537   -0.344730
  O      7.914857    5.250084   -1.418711
  H      8.278456    5.800383   -2.093842
  H      9.875000    5.493104   -0.713531
  H      8.621284    6.403243    0.179232
  H      8.789780    4.531197    0.299483

 Multiplicity           Mult            ....    1
 Number of Electrons    NEL             ....   18
 Basis Dimension        Dim             ....  172

ORBITAL ENERGIES
----------------

  NO   OCC          E(Eh)            E(eV)
   0   2.0000     -19.231559      -523.3173
   1   2.0000     -10.321412      -280.8599
   2   2.0000      -1.146977       -31.2108
   3   2.0000      -0.788446       -21.4547
   4   2.0000      -0.614272       -16.7152
   5   2.0000      -0.545302       -14.8384
   6   2.0000      -0.522073       -14.2063
   7   2.0000      -0.436866       -11.8877
   8   2.0000      -0.374397       -10.1879
   9   0.0000       0.078112         2.1255
  10   0.0000       0.118584         3.2268
  11   0.0000       0.154690         4.2093
  12   0.0000       0.171911         4.6779
  13   0.0000       0.197240         5.3672

MULLIKEN ATOMIC CHARGES
-----------------------
   0 C :   -0.001623
   1 O :   -0.001216
   2 H :   -0.000297
   3 H :    0.000182
   4 H :    0.000062
   5 H :   -0.000009
   6 C :   -0.184576
   7 O :   -0.456317
   8 H :    0.314557
   9 H :    0.098422
  10 H :    0.106342
  11 H :    0.124474
Sum of atomic charges:   -0.0000000

LOEWDIN ATOMIC CHARGES
----------------------
   0 C :   -0.000664
   1 O :   -0.002549
   2 H :   -0.000467
   3 H :   -0.000032
   4 H :   -0.000021
   5 H :   -0.000020
   6 C :   -0.403970
   7 O :   -0.061402
   8 H :    0.161327
   9 H :    0.099370
  10 H :    0.098840
  11 H :    0.109588

  Mayer bond orders larger than 0.1
B(  6-C ,  7-O ) :   0.9999 B(  6-C ,  9-H ) :   0.9804 B(  6-C , 10-H ) :   0.9706
B(  6-C , 11-H ) :   0.9718 B(  7-O ,  8-H ) :   0.9042

Dispersion correction           -0.000231076
FINAL SINGLE POINT ENERGY      -115.733184282514

DIPOLE MOMENT
-------------
                                X             Y             Z
Electronic contribution:     -1.37320      -0.35371      -1.25496
Nuclear contribution   :      1.94560       0.75277       1.22599
                        -----------------------------------------
Total Dipole Moment    :      0.57241       0.39905      -0.02897
                        -----------------------------------------
Magnitude (a.u.)       :      0.69838
Magnitude (Debye)      :      1.77514

Rotational constants in cm-1:     4.098339     0.841201     0.811765
Rotational constants in MHz : 122865.110840 25218.586508 24336.087574

                             ****ORCA TERMINATED NORMALLY****
TOTAL RUN TIME: 0 days 0 hours 1 minutes 34 seconds 291 msec
