                         Program Version 4.1.2  - RELEASE  -
|  1> #Run DFT-D3 single point of the dimer
|  2> ! wB97X-D3 def2-TZVP TIGHTSCF CHELPG PMODEL PAL8
|  3>
|  4> %base "17-153_DFT_AB"
|  5>
|  6> %scf
|  7> MaxIter 1000
|  8> end
|  9>
| 10> * xyz 0 1
| 11>   C                      -0.014004            -8.914242            3.677463
| 12>   O                      -0.243283            -7.666548            3.192443
| 13>   H                      -0.330893            -7.706242            2.229205
| 14>   H                      0.478737             -9.580093            2.996806
| 15>   H                      0.624726             -8.936190            4.581951
| 16>   H                      -0.910941            -9.473797            3.977538
| 17>   C                      -1.686690            -6.880099            0.001016
| 18>   O                      -0.515030            -7.702419            0.231291
| 19>   H                      0.195622             -7.628837            -0.433345
| 20>   H                      -1.448333            -5.827464            -0.095840
| 21>   H                      -2.181151            -7.114668            -0.914702
| 22>   H                      -2.365929            -7.077965            0.815531
| 23> *
| 24>
| 25> #Run DFT-D3 single point of the molecule with dimer basis set
| 26> $new_job
| 27> %base "17-153_DFT_A"
| 28> ! wB97X-D3 def2-TZVP TIGHTSCF CHELPG PMODEL
| 29>
| 30> %scf
| 31> MaxIter 1000
| 32> end
| 33>
| 34> * xyz 0 1
| 35>   C                      -0.014004            -8.914242            3.677463
| 36>   O                      -0.243283            -7.666548            3.192443
| 37>   H                      -0.330893            -7.706242            2.229205
| 38>   H                      0.478737             -9.580093            2.996806
| 39>   H                      0.624726             -8.936190            4.581951
| 40>   H                      -0.910941            -9.473797            3.977538
| 41>   C                    : -1.686690            -6.880099            0.001016
| 42>   O                    : -0.515030            -7.702419            0.231291
| 43>   H                    : 0.195622             -7.628837            -0.433345
| 44>   H                    : -1.448333            -5.827464            -0.095840
| 45>   H                    : -2.181151            -7.114668            -0.914702
| 46>   H                    : -2.365929            -7.077965            0.815531
| 47> *
| 48>
| 49> #Run DFT-D3 single point of the particle with dimer basis set
| 50> $new_job
| 51> %base "17-153_DFT_B"
| 52> ! wB97X-D3 def2-TZVP TIGHTSCF CHELPG PMODEL
| 53>
| 54> %scf
| 55> MaxIter 1000
| 56> end
| 57>
| 58> * xyz 0 1
| 59>   C                    : -0.014004            -8.914242            3.677463
| 60>   O                    : -0.243283            -7.666548            3.192443
| 61>   H                    : -0.330893            -7.706242            2.229205
| 62>   H                    : 0.478737             -9.580093            2.996806
| 63>   H                    : 0.624726             -8.936190            4.581951
| 64>   H                    : -0.910941            -9.473797            3.977538
| 65>   C                      -1.686690            -6.880099            0.001016
| 66>   O                      -0.515030            -7.702419            0.231291
| 67>   H                      0.195622             -7.628837            -0.433345
| 68>   H                      -1.448333            -5.827464            -0.095840
| 69>   H                      -2.181151            -7.114668            -0.914702
| 70>   H                      -2.365929            -7.077965            0.815531
| 71> *
| 72>
| 73>                          ****END OF INPUT****
 Total Charge           Charge          ....    0
 Multiplicity           Mult            ....    1
 Number of Electrons    NEL             ....   36
Dispersion correction           -0.001720995
FINAL SINGLE POINT ENERGY      -231.476301039111
Dispersion correction           -0.000240954
FINAL SINGLE POINT ENERGY      -115.732784360552

CARTESIAN COORDINATES (ANGSTROEM)
---------------------------------
  C     -0.014004   -8.914242    3.677463
  O     -0.243283   -7.666548    3.192443
  H     -0.330893   -7.706242    2.229205
  H      0.478737   -9.580093    2.996806
  H      0.624726   -8.936190    4.581951
  H     -0.910941   -9.473797    3.977538
  C     -1.686690   -6.880099    0.001016
  O     -0.515030   -7.702419    0.231291
  H      0.195622   -7.628837   -0.433345
  H     -1.448333   -5.827464   -0.095840
  H     -2.181151   -7.114668   -0.914702
  H     -2.365929   -7.077965    0.815531

 Multiplicity           Mult            ....    1
 Number of Electrons    NEL             ....   18
 Basis Dimension        Dim             ....  172

ORBITAL ENERGIES
----------------

  NO   OCC          E(Eh)            E(eV)
   0   2.0000     -19.227569      -523.2087
   1   2.0000     -10.311517      -280.5906
   2   2.0000      -1.116767       -30.3888
   3   2.0000      -0.803127       -21.8542
   4   2.0000      -0.608729       -16.5644
   5   2.0000      -0.534194       -14.5362
   6   2.0000      -0.525719       -14.3055
   7   2.0000      -0.430844       -11.7238
   8   2.0000      -0.372577       -10.1383
   9   0.0000       0.099182         2.6989
  10   0.0000       0.123138         3.3508
  11   0.0000       0.149681         4.0730
  12   0.0000       0.187428         5.1002
  13   0.0000       0.206277         5.6131

MULLIKEN ATOMIC CHARGES
-----------------------
   0 C :    0.000800
   1 O :   -0.003166
   2 H :   -0.000262
   3 H :   -0.001878
   4 H :   -0.000077
   5 H :   -0.000153
   6 C :   -0.152690
   7 O :   -0.503642
   8 H :    0.315405
   9 H :    0.106511
  10 H :    0.108449
  11 H :    0.130705
Sum of atomic charges:   -0.0000000

LOEWDIN ATOMIC CHARGES
----------------------
   0 C :   -0.002281
   1 O :   -0.003765
   2 H :   -0.035324
   3 H :   -0.000711
   4 H :   -0.000020
   5 H :   -0.000027
   6 C :   -0.345124
   7 O :   -0.079987
   8 H :    0.170707
   9 H :    0.094627
  10 H :    0.091082
  11 H :    0.110824

  Mayer bond orders larger than 0.1
B(  6-C ,  7-O ) :   0.9750 B(  6-C ,  9-H ) :   0.9746 B(  6-C , 10-H ) :   0.9723
B(  6-C , 11-H ) :   0.9765 B(  7-O ,  8-H ) :   0.8914

Dispersion correction           -0.000271137
FINAL SINGLE POINT ENERGY      -115.733569755797

DIPOLE MOMENT
-------------
                                X             Y             Z
Electronic contribution:      1.34537      -1.02253       0.39596
Nuclear contribution   :     -1.41056       1.42940      -0.94815
                        -----------------------------------------
Total Dipole Moment    :     -0.06519       0.40687      -0.55219
                        -----------------------------------------
Magnitude (a.u.)       :      0.68899
Magnitude (Debye)      :      1.75126

Rotational constants in cm-1:     4.475696     0.794368     0.762326
Rotational constants in MHz : 134177.983409 23814.555033 22853.965091

                             ****ORCA TERMINATED NORMALLY****
TOTAL RUN TIME: 0 days 0 hours 1 minutes 13 seconds 321 msec
