                         Program Version 4.1.2  - RELEASE  -
|  1> #Run DFT-D3 single point of the dimer
|  2> ! wB97X-D3 def2-TZVP TIGHTSCF CHELPG PMODEL PAL8
|  3>
|  4> %base "8-210_DFT_AB"
|  5>
|  6> %scf
|  7> MaxIter 1000
|  8> end
|  9>
| 10> * xyz 0 1
| 11>   C                      -8.857847            6.244264             -1.636799
| 12>   O                      -8.977274            7.455130             -0.955601
| 13>   H                      -8.043500            7.683408             -0.815293
| 14>   H                      -9.747294            6.078535             -2.222804
| 15>   H                      -7.913861            6.266944             -2.240316
| 16>   H                      -8.755962            5.427798             -0.893530
| 17>   C                      -5.698905            6.472710             -0.050581
| 18>   O                      -6.167140            7.758519             -0.349432
| 19>   H                      -5.604538            8.434394             0.014177
| 20>   H                      -5.887236            6.185308             0.984061
| 21>   H                      -6.249780            5.744899             -0.681023
| 22>   H                      -4.697418            6.409595             -0.437304
| 23> *
| 24>
| 25> #Run DFT-D3 single point of the molecule with dimer basis set
| 26> $new_job
| 27> %base "8-210_DFT_A"
| 28> ! wB97X-D3 def2-TZVP TIGHTSCF CHELPG PMODEL
| 29>
| 30> %scf
| 31> MaxIter 1000
| 32> end
| 33>
| 34> * xyz 0 1
| 35>   C                      -8.857847            6.244264             -1.636799
| 36>   O                      -8.977274            7.455130             -0.955601
| 37>   H                      -8.043500            7.683408             -0.815293
| 38>   H                      -9.747294            6.078535             -2.222804
| 39>   H                      -7.913861            6.266944             -2.240316
| 40>   H                      -8.755962            5.427798             -0.893530
| 41>   C                    : -5.698905            6.472710             -0.050581
| 42>   O                    : -6.167140            7.758519             -0.349432
| 43>   H                    : -5.604538            8.434394             0.014177
| 44>   H                    : -5.887236            6.185308             0.984061
| 45>   H                    : -6.249780            5.744899             -0.681023
| 46>   H                    : -4.697418            6.409595             -0.437304
| 47> *
| 48>
| 49> #Run DFT-D3 single point of the particle with dimer basis set
| 50> $new_job
| 51> %base "8-210_DFT_B"
| 52> ! wB97X-D3 def2-TZVP TIGHTSCF CHELPG PMODEL
| 53>
| 54> %scf
| 55> MaxIter 1000
| 56> end
| 57>
| 58> * xyz 0 1
| 59>   C                    : -8.857847            6.244264             -1.636799
| 60>   O                    : -8.977274            7.455130             -0.955601
| 61>   H                    : -8.043500            7.683408             -0.815293
| 62>   H                    : -9.747294            6.078535             -2.222804
| 63>   H                    : -7.913861            6.266944             -2.240316
| 64>   H                    : -8.755962            5.427798             -0.893530
| 65>   C                      -5.698905            6.472710             -0.050581
| 66>   O                      -6.167140            7.758519             -0.349432
| 67>   H                      -5.604538            8.434394             0.014177
| 68>   H                      -5.887236            6.185308             0.984061
| 69>   H                      -6.249780            5.744899             -0.681023
| 70>   H                      -4.697418            6.409595             -0.437304
| 71> *
| 72>
| 73>                          ****END OF INPUT****
 Total Charge           Charge          ....    0
 Multiplicity           Mult            ....    1
 Number of Electrons    NEL             ....   36
Dispersion correction           -0.002233994
FINAL SINGLE POINT ENERGY      -231.475117598464
Dispersion correction           -0.000207186
FINAL SINGLE POINT ENERGY      -115.732662410001

CARTESIAN COORDINATES (ANGSTROEM)
---------------------------------
  C     -8.857847    6.244264   -1.636799
  O     -8.977274    7.455130   -0.955601
  H     -8.043500    7.683408   -0.815293
  H     -9.747294    6.078535   -2.222804
  H     -7.913861    6.266944   -2.240316
  H     -8.755962    5.427798   -0.893530
  C     -5.698905    6.472710   -0.050581
  O     -6.167140    7.758519   -0.349432
  H     -5.604538    8.434394    0.014177
  H     -5.887236    6.185308    0.984061
  H     -6.249780    5.744899   -0.681023
  H     -4.697418    6.409595   -0.437304

 Multiplicity           Mult            ....    1
 Number of Electrons    NEL             ....   18
 Basis Dimension        Dim             ....  172

ORBITAL ENERGIES
----------------

  NO   OCC          E(Eh)            E(eV)
   0   2.0000     -19.225530      -523.1533
   1   2.0000     -10.310817      -280.5716
   2   2.0000      -1.138536       -30.9811
   3   2.0000      -0.797636       -21.7048
   4   2.0000      -0.608461       -16.5571
   5   2.0000      -0.558331       -15.1930
   6   2.0000      -0.525880       -14.3099
   7   2.0000      -0.418890       -11.3986
   8   2.0000      -0.375633       -10.2215
   9   0.0000       0.099322         2.7027
  10   0.0000       0.128435         3.4949
  11   0.0000       0.157085         4.2745
  12   0.0000       0.191145         5.2013
  13   0.0000       0.200984         5.4691

MULLIKEN ATOMIC CHARGES
-----------------------
   0 C :    0.007000
   1 O :   -0.002314
   2 H :   -0.007762
   3 H :    0.000317
   4 H :   -0.001878
   5 H :   -0.001169
   6 C :   -0.143419
   7 O :   -0.479620
   8 H :    0.311960
   9 H :    0.103910
  10 H :    0.107323
  11 H :    0.105652
Sum of atomic charges:   -0.0000000

LOEWDIN ATOMIC CHARGES
----------------------
   0 C :   -0.009685
   1 O :   -0.004635
   2 H :   -0.041973
   3 H :   -0.000030
   4 H :   -0.003350
   5 H :   -0.002008
   6 C :   -0.382111
   7 O :   -0.026998
   8 H :    0.161422
   9 H :    0.095765
  10 H :    0.117451
  11 H :    0.096153

  Mayer bond orders larger than 0.1
B(  6-C ,  7-O ) :   0.9879 B(  6-C ,  9-H ) :   0.9736 B(  6-C , 10-H ) :   0.9787
B(  6-C , 11-H ) :   0.9803 B(  7-O ,  8-H ) :   0.8971

Dispersion correction           -0.000234944
FINAL SINGLE POINT ENERGY      -115.733452713227

DIPOLE MOMENT
-------------
                                X             Y             Z
Electronic contribution:     -0.60937       1.58868      -0.29374
Nuclear contribution   :      1.16623      -1.67575       0.62517
                        -----------------------------------------
Total Dipole Moment    :      0.55686      -0.08707       0.33143
                        -----------------------------------------
Magnitude (a.u.)       :      0.65385
Magnitude (Debye)      :      1.66195

Rotational constants in cm-1:     4.330138     0.838544     0.823596
Rotational constants in MHz : 129814.284684 25138.909484 24690.791745

                             ****ORCA TERMINATED NORMALLY****
TOTAL RUN TIME: 0 days 0 hours 0 minutes 49 seconds 907 msec
