                         Program Version 4.1.2  - RELEASE  -
|  1> #Run DFT-D3 single point of the dimer
|  2> ! wB97X-D3 def2-TZVP TIGHTSCF CHELPG PMODEL PAL8
|  3>
|  4> %base "21-121_DFT_AB"
|  5>
|  6> %scf
|  7> MaxIter 1000
|  8> end
|  9>
| 10> * xyz 0 1
| 11>   C                      7.874232             -11.071143           3.966624
| 12>   O                      7.687014             -11.846176           5.116566
| 13>   H                      7.956098             -12.702588           4.813071
| 14>   H                      7.097583             -10.318167           3.915558
| 15>   H                      8.832153             -10.564399           3.880598
| 16>   H                      7.813907             -11.598509           3.043541
| 17>   C                      5.749419             -9.874577            7.272263
| 18>   O                      6.902295             -9.710720            6.483287
| 19>   H                      6.983640             -10.309345           5.776016
| 20>   H                      4.869274             -9.851773            6.609872
| 21>   H                      5.770182             -10.899882           7.782322
| 22>   H                      5.602472             -9.040919            7.981364
| 23> *
| 24>
| 25> #Run DFT-D3 single point of the molecule with dimer basis set
| 26> $new_job
| 27> %base "21-121_DFT_A"
| 28> ! wB97X-D3 def2-TZVP TIGHTSCF CHELPG PMODEL
| 29>
| 30> %scf
| 31> MaxIter 1000
| 32> end
| 33>
| 34> * xyz 0 1
| 35>   C                      7.874232             -11.071143           3.966624
| 36>   O                      7.687014             -11.846176           5.116566
| 37>   H                      7.956098             -12.702588           4.813071
| 38>   H                      7.097583             -10.318167           3.915558
| 39>   H                      8.832153             -10.564399           3.880598
| 40>   H                      7.813907             -11.598509           3.043541
| 41>   C                    : 5.749419             -9.874577            7.272263
| 42>   O                    : 6.902295             -9.710720            6.483287
| 43>   H                    : 6.983640             -10.309345           5.776016
| 44>   H                    : 4.869274             -9.851773            6.609872
| 45>   H                    : 5.770182             -10.899882           7.782322
| 46>   H                    : 5.602472             -9.040919            7.981364
| 47> *
| 48>
| 49> #Run DFT-D3 single point of the particle with dimer basis set
| 50> $new_job
| 51> %base "21-121_DFT_B"
| 52> ! wB97X-D3 def2-TZVP TIGHTSCF CHELPG PMODEL
| 53>
| 54> %scf
| 55> MaxIter 1000
| 56> end
| 57>
| 58> * xyz 0 1
| 59>   C                    : 7.874232             -11.071143           3.966624
| 60>   O                    : 7.687014             -11.846176           5.116566
| 61>   H                    : 7.956098             -12.702588           4.813071
| 62>   H                    : 7.097583             -10.318167           3.915558
| 63>   H                    : 8.832153             -10.564399           3.880598
| 64>   H                    : 7.813907             -11.598509           3.043541
| 65>   C                      5.749419             -9.874577            7.272263
| 66>   O                      6.902295             -9.710720            6.483287
| 67>   H                      6.983640             -10.309345           5.776016
| 68>   H                      4.869274             -9.851773            6.609872
| 69>   H                      5.770182             -10.899882           7.782322
| 70>   H                      5.602472             -9.040919            7.981364
| 71> *
| 72>
| 73>                          ****END OF INPUT****
 Total Charge           Charge          ....    0
 Multiplicity           Mult            ....    1
 Number of Electrons    NEL             ....   36
Dispersion correction           -0.001851999
FINAL SINGLE POINT ENERGY      -231.462702803078
Dispersion correction           -0.000231476
FINAL SINGLE POINT ENERGY      -115.732449830420

CARTESIAN COORDINATES (ANGSTROEM)
---------------------------------
  C      7.874232  -11.071143    3.966624
  O      7.687014  -11.846176    5.116566
  H      7.956098  -12.702588    4.813071
  H      7.097583  -10.318167    3.915558
  H      8.832153  -10.564399    3.880598
  H      7.813907  -11.598509    3.043541
  C      5.749419   -9.874577    7.272263
  O      6.902295   -9.710720    6.483287
  H      6.983640  -10.309345    5.776016
  H      4.869274   -9.851773    6.609872
  H      5.770182  -10.899882    7.782322
  H      5.602472   -9.040919    7.981364

 Multiplicity           Mult            ....    1
 Number of Electrons    NEL             ....   18
 Basis Dimension        Dim             ....  172

ORBITAL ENERGIES
----------------

  NO   OCC          E(Eh)            E(eV)
   0   2.0000     -19.225139      -523.1426
   1   2.0000     -10.322226      -280.8820
   2   2.0000      -1.140444       -31.0331
   3   2.0000      -0.796932       -21.6856
   4   2.0000      -0.614398       -16.7186
   5   2.0000      -0.540983       -14.7209
   6   2.0000      -0.531406       -14.4603
   7   2.0000      -0.424541       -11.5523
   8   2.0000      -0.371105       -10.0983
   9   0.0000       0.075047         2.0421
  10   0.0000       0.133697         3.6381
  11   0.0000       0.158295         4.3074
  12   0.0000       0.165029         4.4907
  13   0.0000       0.192196         5.2299

MULLIKEN ATOMIC CHARGES
-----------------------
   0 C :    0.004091
   1 O :   -0.008689
   2 H :   -0.000644
   3 H :   -0.008149
   4 H :   -0.000172
   5 H :    0.000270
   6 C :   -0.158047
   7 O :   -0.467473
   8 H :    0.311786
   9 H :    0.100775
  10 H :    0.099771
  11 H :    0.126481
Sum of atomic charges:   -0.0000000

LOEWDIN ATOMIC CHARGES
----------------------
   0 C :   -0.020936
   1 O :   -0.026586
   2 H :   -0.001003
   3 H :   -0.007813
   4 H :   -0.000515
   5 H :   -0.000161
   6 C :   -0.387965
   7 O :   -0.032909
   8 H :    0.167725
   9 H :    0.095079
  10 H :    0.103407
  11 H :    0.111676

  Mayer bond orders larger than 0.1
B(  6-C ,  7-O ) :   0.9917 B(  6-C ,  9-H ) :   0.9829 B(  6-C , 10-H ) :   0.9747
B(  6-C , 11-H ) :   0.9678 B(  7-O ,  8-H ) :   0.9021

Dispersion correction           -0.000249016
FINAL SINGLE POINT ENERGY      -115.732619567796

DIPOLE MOMENT
-------------
                                X             Y             Z
Electronic contribution:      1.53851       0.37357      -0.85175
Nuclear contribution   :     -1.96490      -0.80057       0.70247
                        -----------------------------------------
Total Dipole Moment    :     -0.42639      -0.42700      -0.14928
                        -----------------------------------------
Magnitude (a.u.)       :      0.62163
Magnitude (Debye)      :      1.58007

Rotational constants in cm-1:     4.252072     0.828430     0.802955
Rotational constants in MHz : 127473.915479 24835.716304 24071.980702

                             ****ORCA TERMINATED NORMALLY****
TOTAL RUN TIME: 0 days 0 hours 1 minutes 4 seconds 783 msec
