                         Program Version 4.1.2  - RELEASE  -
|  1> #Run DFT-D3 single point of the dimer
|  2> ! wB97X-D3 def2-TZVP TIGHTSCF CHELPG PMODEL PAL8
|  3>
|  4> %base "7-3_DFT_AB"
|  5>
|  6> %scf
|  7> MaxIter 1000
|  8> end
|  9>
| 10> * xyz 0 1
| 11>   C                      0.107441             2.741054             -3.055841
| 12>   O                      0.093632             2.479985             -1.676650
| 13>   H                      -0.116713            3.352322             -1.369150
| 14>   H                      0.781831             3.560905             -3.329535
| 15>   H                      0.429337             1.873700             -3.602147
| 16>   H                      -0.921354            2.900499             -3.482296
| 17>   C                      3.721256             2.865454             0.278842
| 18>   O                      3.810652             4.224513             0.718855
| 19>   H                      3.847158             4.251311             1.654711
| 20>   H                      4.630489             2.337793             0.330650
| 21>   H                      3.118835             2.213713             0.975832
| 22>   H                      3.309772             2.784025             -0.718189
| 23> *
| 24>
| 25> #Run DFT-D3 single point of the molecule with dimer basis set
| 26> $new_job
| 27> %base "7-3_DFT_A"
| 28> ! wB97X-D3 def2-TZVP TIGHTSCF CHELPG PMODEL
| 29>
| 30> %scf
| 31> MaxIter 1000
| 32> end
| 33>
| 34> * xyz 0 1
| 35>   C                      0.107441             2.741054             -3.055841
| 36>   O                      0.093632             2.479985             -1.676650
| 37>   H                      -0.116713            3.352322             -1.369150
| 38>   H                      0.781831             3.560905             -3.329535
| 39>   H                      0.429337             1.873700             -3.602147
| 40>   H                      -0.921354            2.900499             -3.482296
| 41>   C                    : 3.721256             2.865454             0.278842
| 42>   O                    : 3.810652             4.224513             0.718855
| 43>   H                    : 3.847158             4.251311             1.654711
| 44>   H                    : 4.630489             2.337793             0.330650
| 45>   H                    : 3.118835             2.213713             0.975832
| 46>   H                    : 3.309772             2.784025             -0.718189
| 47> *
| 48>
| 49> #Run DFT-D3 single point of the particle with dimer basis set
| 50> $new_job
| 51> %base "7-3_DFT_B"
| 52> ! wB97X-D3 def2-TZVP TIGHTSCF CHELPG PMODEL
| 53>
| 54> %scf
| 55> MaxIter 1000
| 56> end
| 57>
| 58> * xyz 0 1
| 59>   C                    : 0.107441             2.741054             -3.055841
| 60>   O                    : 0.093632             2.479985             -1.676650
| 61>   H                    : -0.116713            3.352322             -1.369150
| 62>   H                    : 0.781831             3.560905             -3.329535
| 63>   H                    : 0.429337             1.873700             -3.602147
| 64>   H                    : -0.921354            2.900499             -3.482296
| 65>   C                      3.721256             2.865454             0.278842
| 66>   O                      3.810652             4.224513             0.718855
| 67>   H                      3.847158             4.251311             1.654711
| 68>   H                      4.630489             2.337793             0.330650
| 69>   H                      3.118835             2.213713             0.975832
| 70>   H                      3.309772             2.784025             -0.718189
| 71> *
| 72>
| 73>                          ****END OF INPUT****
 Total Charge           Charge          ....    0
 Multiplicity           Mult            ....    1
 Number of Electrons    NEL             ....   36
Dispersion correction           -0.001055921
FINAL SINGLE POINT ENERGY      -231.465425319191
Dispersion correction           -0.000223019
FINAL SINGLE POINT ENERGY      -115.732810156592

CARTESIAN COORDINATES (ANGSTROEM)
---------------------------------
  C      0.107441    2.741054   -3.055841
  O      0.093632    2.479985   -1.676650
  H     -0.116713    3.352322   -1.369150
  H      0.781831    3.560905   -3.329535
  H      0.429337    1.873700   -3.602147
  H     -0.921354    2.900499   -3.482296
  C      3.721256    2.865454    0.278842
  O      3.810652    4.224513    0.718855
  H      3.847158    4.251311    1.654711
  H      4.630489    2.337793    0.330650
  H      3.118835    2.213713    0.975832
  H      3.309772    2.784025   -0.718189

 Multiplicity           Mult            ....    1
 Number of Electrons    NEL             ....   18
 Basis Dimension        Dim             ....  172

ORBITAL ENERGIES
----------------

  NO   OCC          E(Eh)            E(eV)
   0   2.0000     -19.229195      -523.2530
   1   2.0000     -10.313534      -280.6455
   2   2.0000      -1.134967       -30.8840
   3   2.0000      -0.802910       -21.8483
   4   2.0000      -0.616957       -16.7883
   5   2.0000      -0.536325       -14.5941
   6   2.0000      -0.525092       -14.2885
   7   2.0000      -0.438217       -11.9245
   8   2.0000      -0.373397       -10.1607
   9   0.0000       0.085133         2.3166
  10   0.0000       0.118034         3.2119
  11   0.0000       0.150901         4.1062
  12   0.0000       0.169178         4.6036
  13   0.0000       0.183008         4.9799

MULLIKEN ATOMIC CHARGES
-----------------------
   0 C :   -0.000274
   1 O :    0.000040
   2 H :    0.000088
   3 H :    0.000038
   4 H :   -0.000018
   5 H :    0.000002
   6 C :   -0.169034
   7 O :   -0.473579
   8 H :    0.310811
   9 H :    0.109596
  10 H :    0.095123
  11 H :    0.127206
Sum of atomic charges:   -0.0000000

LOEWDIN ATOMIC CHARGES
----------------------
   0 C :   -0.000361
   1 O :   -0.000257
   2 H :   -0.000083
   3 H :   -0.000055
   4 H :   -0.000015
   5 H :   -0.000005
   6 C :   -0.369737
   7 O :   -0.075609
   8 H :    0.152454
   9 H :    0.086028
  10 H :    0.101330
  11 H :    0.106310

  Mayer bond orders larger than 0.1
B(  6-C ,  7-O ) :   0.9991 B(  6-C ,  9-H ) :   0.9706 B(  6-C , 10-H ) :   0.9817
B(  6-C , 11-H ) :   0.9739 B(  7-O ,  8-H ) :   0.9050

Dispersion correction           -0.000256119
FINAL SINGLE POINT ENERGY      -115.731166490668

DIPOLE MOMENT
-------------
                                X             Y             Z
Electronic contribution:      0.15032       1.88216       0.32785
Nuclear contribution   :     -0.14944      -2.43403       0.10305
                        -----------------------------------------
Total Dipole Moment    :      0.00088      -0.55187       0.43090
                        -----------------------------------------
Magnitude (a.u.)       :      0.70017
Magnitude (Debye)      :      1.77969

Rotational constants in cm-1:     4.494721     0.812288     0.774331
Rotational constants in MHz : 134748.352578 24351.777133 23213.854575

                             ****ORCA TERMINATED NORMALLY****
TOTAL RUN TIME: 0 days 0 hours 0 minutes 59 seconds 887 msec
