                         Program Version 4.1.2  - RELEASE  -
|  1> #Run DFT-D3 single point of the dimer
|  2> ! wB97X-D3 def2-TZVP TIGHTSCF CHELPG PMODEL PAL8
|  3>
|  4> %base "3-167_DFT_AB"
|  5>
|  6> %scf
|  7> MaxIter 1000
|  8> end
|  9>
| 10> * xyz 0 1
| 11>   C                      -7.953217            11.105020            3.421729
| 12>   O                      -7.496028            10.377599            2.266500
| 13>   H                      -8.096600            9.615735             2.207716
| 14>   H                      -8.264087            10.519951            4.242746
| 15>   H                      -7.282128            11.905598            3.801026
| 16>   H                      -8.870092            11.657492            3.264073
| 17>   C                      -4.582969            7.909168             1.847280
| 18>   O                      -5.334719            8.945546             1.391980
| 19>   H                      -5.895309            8.567870             0.703625
| 20>   H                      -4.173860            7.483875             0.891925
| 21>   H                      -3.773770            8.245750             2.467020
| 22>   H                      -5.128192            7.222290             2.457084
| 23> *
| 24>
| 25> #Run DFT-D3 single point of the molecule with dimer basis set
| 26> $new_job
| 27> %base "3-167_DFT_A"
| 28> ! wB97X-D3 def2-TZVP TIGHTSCF CHELPG PMODEL
| 29>
| 30> %scf
| 31> MaxIter 1000
| 32> end
| 33>
| 34> * xyz 0 1
| 35>   C                      -7.953217            11.105020            3.421729
| 36>   O                      -7.496028            10.377599            2.266500
| 37>   H                      -8.096600            9.615735             2.207716
| 38>   H                      -8.264087            10.519951            4.242746
| 39>   H                      -7.282128            11.905598            3.801026
| 40>   H                      -8.870092            11.657492            3.264073
| 41>   C                    : -4.582969            7.909168             1.847280
| 42>   O                    : -5.334719            8.945546             1.391980
| 43>   H                    : -5.895309            8.567870             0.703625
| 44>   H                    : -4.173860            7.483875             0.891925
| 45>   H                    : -3.773770            8.245750             2.467020
| 46>   H                    : -5.128192            7.222290             2.457084
| 47> *
| 48>
| 49> #Run DFT-D3 single point of the particle with dimer basis set
| 50> $new_job
| 51> %base "3-167_DFT_B"
| 52> ! wB97X-D3 def2-TZVP TIGHTSCF CHELPG PMODEL
| 53>
| 54> %scf
| 55> MaxIter 1000
| 56> end
| 57>
| 58> * xyz 0 1
| 59>   C                    : -7.953217            11.105020            3.421729
| 60>   O                    : -7.496028            10.377599            2.266500
| 61>   H                    : -8.096600            9.615735             2.207716
| 62>   H                    : -8.264087            10.519951            4.242746
| 63>   H                    : -7.282128            11.905598            3.801026
| 64>   H                    : -8.870092            11.657492            3.264073
| 65>   C                      -4.582969            7.909168             1.847280
| 66>   O                      -5.334719            8.945546             1.391980
| 67>   H                      -5.895309            8.567870             0.703625
| 68>   H                      -4.173860            7.483875             0.891925
| 69>   H                      -3.773770            8.245750             2.467020
| 70>   H                      -5.128192            7.222290             2.457084
| 71> *
| 72>
| 73>                          ****END OF INPUT****
 Total Charge           Charge          ....    0
 Multiplicity           Mult            ....    1
 Number of Electrons    NEL             ....   36
Dispersion correction           -0.001419249
FINAL SINGLE POINT ENERGY      -231.449839109773
Dispersion correction           -0.000260550
FINAL SINGLE POINT ENERGY      -115.728491990243

CARTESIAN COORDINATES (ANGSTROEM)
---------------------------------
  C     -7.953217   11.105020    3.421729
  O     -7.496028   10.377599    2.266500
  H     -8.096600    9.615735    2.207716
  H     -8.264087   10.519951    4.242746
  H     -7.282128   11.905598    3.801026
  H     -8.870092   11.657492    3.264073
  C     -4.582969    7.909168    1.847280
  O     -5.334719    8.945546    1.391980
  H     -5.895309    8.567870    0.703625
  H     -4.173860    7.483875    0.891925
  H     -3.773770    8.245750    2.467020
  H     -5.128192    7.222290    2.457084

 Multiplicity           Mult            ....    1
 Number of Electrons    NEL             ....   18
 Basis Dimension        Dim             ....  172

ORBITAL ENERGIES
----------------

  NO   OCC          E(Eh)            E(eV)
   0   2.0000     -19.228105      -523.2234
   1   2.0000     -10.306636      -280.4578
   2   2.0000      -1.156043       -31.4575
   3   2.0000      -0.791831       -21.5468
   4   2.0000      -0.615208       -16.7407
   5   2.0000      -0.561002       -15.2657
   6   2.0000      -0.538217       -14.6456
   7   2.0000      -0.425290       -11.5727
   8   2.0000      -0.369359       -10.0508
   9   0.0000       0.092268         2.5107
  10   0.0000       0.116959         3.1826
  11   0.0000       0.160048         4.3551
  12   0.0000       0.179836         4.8936
  13   0.0000       0.201993         5.4965

MULLIKEN ATOMIC CHARGES
-----------------------
   0 C :   -0.002163
   1 O :    0.001091
   2 H :   -0.005058
   3 H :   -0.000091
   4 H :    0.000388
   5 H :   -0.000240
   6 C :   -0.145412
   7 O :   -0.458908
   8 H :    0.318849
   9 H :    0.085071
  10 H :    0.113011
  11 H :    0.093463
Sum of atomic charges:   -0.0000000

LOEWDIN ATOMIC CHARGES
----------------------
   0 C :   -0.002307
   1 O :   -0.017188
   2 H :   -0.004563
   3 H :   -0.000060
   4 H :   -0.000064
   5 H :   -0.000089
   6 C :   -0.424337
   7 O :   -0.023966
   8 H :    0.180151
   9 H :    0.103332
  10 H :    0.102811
  11 H :    0.086280

  Mayer bond orders larger than 0.1
B(  6-C ,  7-O ) :   1.0002 B(  6-C ,  9-H ) :   0.9991 B(  6-C , 10-H ) :   0.9740
B(  6-C , 11-H ) :   0.9711 B(  7-O ,  8-H ) :   0.8960

Dispersion correction           -0.000194387
FINAL SINGLE POINT ENERGY      -115.728312283718

DIPOLE MOMENT
-------------
                                X             Y             Z
Electronic contribution:     -0.93865       1.43227      -0.38886
Nuclear contribution   :      0.87908      -2.03007       0.13710
                        -----------------------------------------
Total Dipole Moment    :     -0.05957      -0.59780      -0.25176
                        -----------------------------------------
Magnitude (a.u.)       :      0.65138
Magnitude (Debye)      :      1.65568

Rotational constants in cm-1:     4.249825     0.899299     0.867874
Rotational constants in MHz : 127406.559218 26960.320728 26018.219607

                             ****ORCA TERMINATED NORMALLY****
TOTAL RUN TIME: 0 days 0 hours 5 minutes 40 seconds 134 msec
