                         Program Version 4.1.2  - RELEASE  -
|  1> #Run DFT-D3 single point of the dimer
|  2> ! wB97X-D3 def2-TZVP TIGHTSCF CHELPG PMODEL PAL8
|  3>
|  4> %base "5-85_DFT_AB"
|  5>
|  6> %scf
|  7> MaxIter 1000
|  8> end
|  9>
| 10> * xyz 0 1
| 11>   C                      7.210825             8.632815             -10.573525
| 12>   O                      6.489195             9.621712             -11.265290
| 13>   H                      5.643977             9.593942             -10.878869
| 14>   H                      8.271137             8.672598             -10.791634
| 15>   H                      7.248490             8.656114             -9.461360
| 16>   H                      6.873795             7.608064             -10.845225
| 17>   C                      9.232826             7.132321             -7.033316
| 18>   O                      10.592627            7.419423             -6.848917
| 19>   H                      10.680403            8.235310             -6.330198
| 20>   H                      8.796829             7.760952             -7.816381
| 21>   H                      9.160430             6.058070             -7.413036
| 22>   H                      8.596397             7.211376             -6.145535
| 23> *
| 24>
| 25> #Run DFT-D3 single point of the molecule with dimer basis set
| 26> $new_job
| 27> %base "5-85_DFT_A"
| 28> ! wB97X-D3 def2-TZVP TIGHTSCF CHELPG PMODEL
| 29>
| 30> %scf
| 31> MaxIter 1000
| 32> end
| 33>
| 34> * xyz 0 1
| 35>   C                      7.210825             8.632815             -10.573525
| 36>   O                      6.489195             9.621712             -11.265290
| 37>   H                      5.643977             9.593942             -10.878869
| 38>   H                      8.271137             8.672598             -10.791634
| 39>   H                      7.248490             8.656114             -9.461360
| 40>   H                      6.873795             7.608064             -10.845225
| 41>   C                    : 9.232826             7.132321             -7.033316
| 42>   O                    : 10.592627            7.419423             -6.848917
| 43>   H                    : 10.680403            8.235310             -6.330198
| 44>   H                    : 8.796829             7.760952             -7.816381
| 45>   H                    : 9.160430             6.058070             -7.413036
| 46>   H                    : 8.596397             7.211376             -6.145535
| 47> *
| 48>
| 49> #Run DFT-D3 single point of the particle with dimer basis set
| 50> $new_job
| 51> %base "5-85_DFT_B"
| 52> ! wB97X-D3 def2-TZVP TIGHTSCF CHELPG PMODEL
| 53>
| 54> %scf
| 55> MaxIter 1000
| 56> end
| 57>
| 58> * xyz 0 1
| 59>   C                    : 7.210825             8.632815             -10.573525
| 60>   O                    : 6.489195             9.621712             -11.265290
| 61>   H                    : 5.643977             9.593942             -10.878869
| 62>   H                    : 8.271137             8.672598             -10.791634
| 63>   H                    : 7.248490             8.656114             -9.461360
| 64>   H                    : 6.873795             7.608064             -10.845225
| 65>   C                      9.232826             7.132321             -7.033316
| 66>   O                      10.592627            7.419423             -6.848917
| 67>   H                      10.680403            8.235310             -6.330198
| 68>   H                      8.796829             7.760952             -7.816381
| 69>   H                      9.160430             6.058070             -7.413036
| 70>   H                      8.596397             7.211376             -6.145535
| 71> *
| 72>
| 73>                          ****END OF INPUT****
 Total Charge           Charge          ....    0
 Multiplicity           Mult            ....    1
 Number of Electrons    NEL             ....   36
Dispersion correction           -0.001168957
FINAL SINGLE POINT ENERGY      -231.467929655304
Dispersion correction           -0.000252767
FINAL SINGLE POINT ENERGY      -115.732258055459

CARTESIAN COORDINATES (ANGSTROEM)
---------------------------------
  C      7.210825    8.632815  -10.573525
  O      6.489195    9.621712  -11.265290
  H      5.643977    9.593942  -10.878869
  H      8.271137    8.672598  -10.791634
  H      7.248490    8.656114   -9.461360
  H      6.873795    7.608064  -10.845225
  C      9.232826    7.132321   -7.033316
  O     10.592627    7.419423   -6.848917
  H     10.680403    8.235310   -6.330198
  H      8.796829    7.760952   -7.816381
  H      9.160430    6.058070   -7.413036
  H      8.596397    7.211376   -6.145535

 Multiplicity           Mult            ....    1
 Number of Electrons    NEL             ....   18
 Basis Dimension        Dim             ....  172

ORBITAL ENERGIES
----------------

  NO   OCC          E(Eh)            E(eV)
   0   2.0000     -19.232350      -523.3389
   1   2.0000     -10.316376      -280.7229
   2   2.0000      -1.137849       -30.9624
   3   2.0000      -0.791036       -21.5252
   4   2.0000      -0.613929       -16.7059
   5   2.0000      -0.540847       -14.7172
   6   2.0000      -0.521999       -14.2043
   7   2.0000      -0.430853       -11.7241
   8   2.0000      -0.373343       -10.1592
   9   0.0000       0.084776         2.3069
  10   0.0000       0.116511         3.1704
  11   0.0000       0.148490         4.0406
  12   0.0000       0.170861         4.6494
  13   0.0000       0.191870         5.2211

MULLIKEN ATOMIC CHARGES
-----------------------
   0 C :    0.001301
   1 O :   -0.000008
   2 H :   -0.000008
   3 H :    0.000139
   4 H :   -0.002784
   5 H :   -0.000121
   6 C :   -0.164973
   7 O :   -0.472227
   8 H :    0.315447
   9 H :    0.104125
  10 H :    0.113388
  11 H :    0.105722
Sum of atomic charges:   -0.0000000

LOEWDIN ATOMIC CHARGES
----------------------
   0 C :   -0.002582
   1 O :   -0.000016
   2 H :   -0.000002
   3 H :   -0.000276
   4 H :   -0.004636
   5 H :   -0.000065
   6 C :   -0.403304
   7 O :   -0.072045
   8 H :    0.175291
   9 H :    0.095852
  10 H :    0.118524
  11 H :    0.093260

  Mayer bond orders larger than 0.1
B(  6-C ,  7-O ) :   0.9970 B(  6-C ,  9-H ) :   0.9763 B(  6-C , 10-H ) :   0.9701
B(  6-C , 11-H ) :   0.9713 B(  7-O ,  8-H ) :   0.8962

Dispersion correction           -0.000253040
FINAL SINGLE POINT ENERGY      -115.735279712574

DIPOLE MOMENT
-------------
                                X             Y             Z
Electronic contribution:      1.82216       0.34097       0.25893
Nuclear contribution   :     -2.28974       0.06778       0.00675
                        -----------------------------------------
Total Dipole Moment    :     -0.46758       0.40875       0.26567
                        -----------------------------------------
Magnitude (a.u.)       :      0.67549
Magnitude (Debye)      :      1.71696

Rotational constants in cm-1:     4.229056     0.835888     0.802515
Rotational constants in MHz : 126783.899761 25059.305101 24058.787976

                             ****ORCA TERMINATED NORMALLY****
TOTAL RUN TIME: 0 days 0 hours 1 minutes 3 seconds 0 msec
