                         Program Version 4.1.2  - RELEASE  -
|  1> #Run DFT-D3 single point of the dimer
|  2> ! wB97X-D3 def2-TZVP TIGHTSCF CHELPG PMODEL PAL8
|  3>
|  4> %base "5-179_DFT_AB"
|  5>
|  6> %scf
|  7> MaxIter 1000
|  8> end
|  9>
| 10> * xyz 0 1
| 11>   C                      -7.955104            7.258988             -0.000909
| 12>   O                      -6.999402            6.220627             -0.233799
| 13>   H                      -7.240570            5.795469             -1.073477
| 14>   H                      -8.423059            7.641103             -0.925569
| 15>   H                      -8.745755            6.813650             0.565362
| 16>   H                      -7.638297            8.141113             0.464087
| 17>   C                      -10.905900           4.691083             -2.253207
| 18>   O                      -10.279769           5.614224             -1.330346
| 19>   H                      -9.385260            5.194568             -1.209136
| 20>   H                      -10.600966           3.681428             -1.983528
| 21>   H                      -12.013929           4.621975             -2.190608
| 22>   H                      -10.508942           4.939356             -3.231760
| 23> *
| 24>
| 25> #Run DFT-D3 single point of the molecule with dimer basis set
| 26> $new_job
| 27> %base "5-179_DFT_A"
| 28> ! wB97X-D3 def2-TZVP TIGHTSCF CHELPG PMODEL
| 29>
| 30> %scf
| 31> MaxIter 1000
| 32> end
| 33>
| 34> * xyz 0 1
| 35>   C                      -7.955104            7.258988             -0.000909
| 36>   O                      -6.999402            6.220627             -0.233799
| 37>   H                      -7.240570            5.795469             -1.073477
| 38>   H                      -8.423059            7.641103             -0.925569
| 39>   H                      -8.745755            6.813650             0.565362
| 40>   H                      -7.638297            8.141113             0.464087
| 41>   C                    : -10.905900           4.691083             -2.253207
| 42>   O                    : -10.279769           5.614224             -1.330346
| 43>   H                    : -9.385260            5.194568             -1.209136
| 44>   H                    : -10.600966           3.681428             -1.983528
| 45>   H                    : -12.013929           4.621975             -2.190608
| 46>   H                    : -10.508942           4.939356             -3.231760
| 47> *
| 48>
| 49> #Run DFT-D3 single point of the particle with dimer basis set
| 50> $new_job
| 51> %base "5-179_DFT_B"
| 52> ! wB97X-D3 def2-TZVP TIGHTSCF CHELPG PMODEL
| 53>
| 54> %scf
| 55> MaxIter 1000
| 56> end
| 57>
| 58> * xyz 0 1
| 59>   C                    : -7.955104            7.258988             -0.000909
| 60>   O                    : -6.999402            6.220627             -0.233799
| 61>   H                    : -7.240570            5.795469             -1.073477
| 62>   H                    : -8.423059            7.641103             -0.925569
| 63>   H                    : -8.745755            6.813650             0.565362
| 64>   H                    : -7.638297            8.141113             0.464087
| 65>   C                      -10.905900           4.691083             -2.253207
| 66>   O                      -10.279769           5.614224             -1.330346
| 67>   H                      -9.385260            5.194568             -1.209136
| 68>   H                      -10.600966           3.681428             -1.983528
| 69>   H                      -12.013929           4.621975             -2.190608
| 70>   H                      -10.508942           4.939356             -3.231760
| 71> *
| 72>
| 73>                          ****END OF INPUT****
 Total Charge           Charge          ....    0
 Multiplicity           Mult            ....    1
 Number of Electrons    NEL             ....   36
Dispersion correction           -0.001866591
FINAL SINGLE POINT ENERGY      -231.458886532807
Dispersion correction           -0.000243522
FINAL SINGLE POINT ENERGY      -115.729905512718

CARTESIAN COORDINATES (ANGSTROEM)
---------------------------------
  C     -7.955104    7.258988   -0.000909
  O     -6.999402    6.220627   -0.233799
  H     -7.240570    5.795469   -1.073477
  H     -8.423059    7.641103   -0.925569
  H     -8.745755    6.813650    0.565362
  H     -7.638297    8.141113    0.464087
  C    -10.905900    4.691083   -2.253207
  O    -10.279769    5.614224   -1.330346
  H     -9.385260    5.194568   -1.209136
  H    -10.600966    3.681428   -1.983528
  H    -12.013929    4.621975   -2.190608
  H    -10.508942    4.939356   -3.231760

 Multiplicity           Mult            ....    1
 Number of Electrons    NEL             ....   18
 Basis Dimension        Dim             ....  172

ORBITAL ENERGIES
----------------

  NO   OCC          E(Eh)            E(eV)
   0   2.0000     -19.233687      -523.3752
   1   2.0000     -10.317601      -280.7562
   2   2.0000      -1.123890       -30.5826
   3   2.0000      -0.791125       -21.5276
   4   2.0000      -0.597520       -16.2594
   5   2.0000      -0.551588       -15.0095
   6   2.0000      -0.518824       -14.1179
   7   2.0000      -0.434777       -11.8309
   8   2.0000      -0.374511       -10.1910
   9   0.0000       0.081110         2.2071
  10   0.0000       0.128002         3.4831
  11   0.0000       0.156290         4.2529
  12   0.0000       0.175332         4.7710
  13   0.0000       0.188749         5.1361

MULLIKEN ATOMIC CHARGES
-----------------------
   0 C :    0.003421
   1 O :    0.000291
   2 H :   -0.002509
   3 H :   -0.006169
   4 H :   -0.004849
   5 H :   -0.000746
   6 C :   -0.189909
   7 O :   -0.459368
   8 H :    0.319856
   9 H :    0.102994
  10 H :    0.125709
  11 H :    0.111279
Sum of atomic charges:   -0.0000000

LOEWDIN ATOMIC CHARGES
----------------------
   0 C :   -0.012595
   1 O :   -0.001046
   2 H :   -0.004256
   3 H :   -0.005471
   4 H :   -0.004859
   5 H :   -0.000084
   6 C :   -0.367046
   7 O :   -0.103574
   8 H :    0.196744
   9 H :    0.094541
  10 H :    0.111249
  11 H :    0.096398

  Mayer bond orders larger than 0.1
B(  6-C ,  7-O ) :   0.9925 B(  6-C ,  9-H ) :   0.9865 B(  6-C , 10-H ) :   0.9676
B(  6-C , 11-H ) :   0.9776 B(  7-O ,  8-H ) :   0.8957

Dispersion correction           -0.000227742
FINAL SINGLE POINT ENERGY      -115.729345343743

DIPOLE MOMENT
-------------
                                X             Y             Z
Electronic contribution:      0.52865       1.32605       1.10559
Nuclear contribution   :     -0.25508      -1.99096      -1.39635
                        -----------------------------------------
Total Dipole Moment    :      0.27356      -0.66491      -0.29076
                        -----------------------------------------
Magnitude (a.u.)       :      0.77555
Magnitude (Debye)      :      1.97129

Rotational constants in cm-1:     4.152427     0.806302     0.780300
Rotational constants in MHz : 124486.631667 24172.327968 23392.805282

                             ****ORCA TERMINATED NORMALLY****
TOTAL RUN TIME: 0 days 0 hours 0 minutes 56 seconds 285 msec
