                         Program Version 4.1.2  - RELEASE  -
|  1> #Run DFT-D3 single point of the dimer
|  2> ! wB97X-D3 def2-TZVP TIGHTSCF CHELPG PMODEL PAL8
|  3>
|  4> %base "8-17_DFT_AB"
|  5>
|  6> %scf
|  7> MaxIter 1000
|  8> end
|  9>
| 10> * xyz 0 1
| 11>   C                      0.003535             -5.877715            10.140912
| 12>   O                      0.318346             -4.605744            10.783172
| 13>   H                      1.007645             -4.757691            11.420423
| 14>   H                      -0.478516            -5.721957            9.157673
| 15>   H                      0.881340             -6.498868            10.075310
| 16>   H                      -0.767575            -6.350094            10.780891
| 17>   C                      2.918424             -1.073224            10.962592
| 18>   O                      2.812532             -0.713051            9.629298
| 19>   H                      3.606589             -1.101751            9.286905
| 20>   H                      3.143244             -2.142925            11.149663
| 21>   H                      3.761079             -0.528076            11.469402
| 22>   H                      1.979600             -0.963837            11.563361
| 23> *
| 24>
| 25> #Run DFT-D3 single point of the molecule with dimer basis set
| 26> $new_job
| 27> %base "8-17_DFT_A"
| 28> ! wB97X-D3 def2-TZVP TIGHTSCF CHELPG PMODEL
| 29>
| 30> %scf
| 31> MaxIter 1000
| 32> end
| 33>
| 34> * xyz 0 1
| 35>   C                      0.003535             -5.877715            10.140912
| 36>   O                      0.318346             -4.605744            10.783172
| 37>   H                      1.007645             -4.757691            11.420423
| 38>   H                      -0.478516            -5.721957            9.157673
| 39>   H                      0.881340             -6.498868            10.075310
| 40>   H                      -0.767575            -6.350094            10.780891
| 41>   C                    : 2.918424             -1.073224            10.962592
| 42>   O                    : 2.812532             -0.713051            9.629298
| 43>   H                    : 3.606589             -1.101751            9.286905
| 44>   H                    : 3.143244             -2.142925            11.149663
| 45>   H                    : 3.761079             -0.528076            11.469402
| 46>   H                    : 1.979600             -0.963837            11.563361
| 47> *
| 48>
| 49> #Run DFT-D3 single point of the particle with dimer basis set
| 50> $new_job
| 51> %base "8-17_DFT_B"
| 52> ! wB97X-D3 def2-TZVP TIGHTSCF CHELPG PMODEL
| 53>
| 54> %scf
| 55> MaxIter 1000
| 56> end
| 57>
| 58> * xyz 0 1
| 59>   C                    : 0.003535             -5.877715            10.140912
| 60>   O                    : 0.318346             -4.605744            10.783172
| 61>   H                    : 1.007645             -4.757691            11.420423
| 62>   H                    : -0.478516            -5.721957            9.157673
| 63>   H                    : 0.881340             -6.498868            10.075310
| 64>   H                    : -0.767575            -6.350094            10.780891
| 65>   C                      2.918424             -1.073224            10.962592
| 66>   O                      2.812532             -0.713051            9.629298
| 67>   H                      3.606589             -1.101751            9.286905
| 68>   H                      3.143244             -2.142925            11.149663
| 69>   H                      3.761079             -0.528076            11.469402
| 70>   H                      1.979600             -0.963837            11.563361
| 71> *
| 72>
| 73>                          ****END OF INPUT****
 Total Charge           Charge          ....    0
 Multiplicity           Mult            ....    1
 Number of Electrons    NEL             ....   36
Dispersion correction           -0.000864642
FINAL SINGLE POINT ENERGY      -231.463869104656
Dispersion correction           -0.000249233
FINAL SINGLE POINT ENERGY      -115.733637225805

CARTESIAN COORDINATES (ANGSTROEM)
---------------------------------
  C      0.003535   -5.877715   10.140912
  O      0.318346   -4.605744   10.783172
  H      1.007645   -4.757691   11.420423
  H     -0.478516   -5.721957    9.157673
  H      0.881340   -6.498868   10.075310
  H     -0.767575   -6.350094   10.780891
  C      2.918424   -1.073224   10.962592
  O      2.812532   -0.713051    9.629298
  H      3.606589   -1.101751    9.286905
  H      3.143244   -2.142925   11.149663
  H      3.761079   -0.528076   11.469402
  H      1.979600   -0.963837   11.563361

 Multiplicity           Mult            ....    1
 Number of Electrons    NEL             ....   18
 Basis Dimension        Dim             ....  172

ORBITAL ENERGIES
----------------

  NO   OCC          E(Eh)            E(eV)
   0   2.0000     -19.236485      -523.4514
   1   2.0000     -10.318881      -280.7910
   2   2.0000      -1.156592       -31.4725
   3   2.0000      -0.788640       -21.4600
   4   2.0000      -0.619596       -16.8601
   5   2.0000      -0.545087       -14.8326
   6   2.0000      -0.527768       -14.3613
   7   2.0000      -0.436959       -11.8903
   8   2.0000      -0.374154       -10.1813
   9   0.0000       0.085370         2.3230
  10   0.0000       0.114456         3.1145
  11   0.0000       0.143873         3.9150
  12   0.0000       0.175514         4.7760
  13   0.0000       0.193353         5.2614

MULLIKEN ATOMIC CHARGES
-----------------------
   0 C :    0.000063
   1 O :    0.000091
   2 H :   -0.000226
   3 H :   -0.000002
   4 H :   -0.000011
   5 H :   -0.000004
   6 C :   -0.186132
   7 O :   -0.446807
   8 H :    0.317825
   9 H :    0.098429
  10 H :    0.097903
  11 H :    0.118871
Sum of atomic charges:   -0.0000000

LOEWDIN ATOMIC CHARGES
----------------------
   0 C :   -0.000009
   1 O :   -0.000065
   2 H :   -0.000413
   3 H :   -0.000000
   4 H :   -0.000001
   5 H :   -0.000000
   6 C :   -0.429357
   7 O :   -0.044862
   8 H :    0.171619
   9 H :    0.093776
  10 H :    0.097010
  11 H :    0.112302

  Mayer bond orders larger than 0.1
B(  6-C ,  7-O ) :   1.0059 B(  6-C ,  9-H ) :   0.9739 B(  6-C , 10-H ) :   0.9757
B(  6-C , 11-H ) :   0.9715 B(  7-O ,  8-H ) :   0.9008

Dispersion correction           -0.000228815
FINAL SINGLE POINT ENERGY      -115.730488449884

DIPOLE MOMENT
-------------
                                X             Y             Z
Electronic contribution:     -0.34906       0.64170      -1.91476
Nuclear contribution   :      0.86714      -1.03589       2.17610
                        -----------------------------------------
Total Dipole Moment    :      0.51809      -0.39420       0.26134
                        -----------------------------------------
Magnitude (a.u.)       :      0.70150
Magnitude (Debye)      :      1.78307

Rotational constants in cm-1:     4.258533     0.851818     0.819454
Rotational constants in MHz : 127667.604350 25536.856694 24566.615630

                             ****ORCA TERMINATED NORMALLY****
TOTAL RUN TIME: 0 days 0 hours 0 minutes 41 seconds 150 msec
