                         Program Version 4.1.2  - RELEASE  -
|  1> #Run DFT-D3 single point of the dimer
|  2> ! wB97X-D3 def2-TZVP TIGHTSCF CHELPG PMODEL PAL8
|  3>
|  4> %base "13-151_DFT_AB"
|  5>
|  6> %scf
|  7> MaxIter 1000
|  8> end
|  9>
| 10> * xyz 0 1
| 11>   C                      -7.220096            6.994983             -1.251529
| 12>   O                      -5.864312            6.616557             -1.059694
| 13>   H                      -5.438133            6.373003             -1.911575
| 14>   H                      -7.354863            8.098564             -1.220289
| 15>   H                      -7.641321            6.615073             -2.156346
| 16>   H                      -7.859570            6.551375             -0.455189
| 17>   C                      -3.597941            7.981117             -3.330310
| 18>   O                      -3.746181            6.622635             -3.215281
| 19>   H                      -2.888624            6.161588             -3.122469
| 20>   H                      -4.486749            8.586821             -3.163398
| 21>   H                      -2.815400            8.344847             -2.598938
| 22>   H                      -3.304377            8.236626             -4.371332
| 23> *
| 24>
| 25> #Run DFT-D3 single point of the molecule with dimer basis set
| 26> $new_job
| 27> %base "13-151_DFT_A"
| 28> ! wB97X-D3 def2-TZVP TIGHTSCF CHELPG PMODEL
| 29>
| 30> %scf
| 31> MaxIter 1000
| 32> end
| 33>
| 34> * xyz 0 1
| 35>   C                      -7.220096            6.994983             -1.251529
| 36>   O                      -5.864312            6.616557             -1.059694
| 37>   H                      -5.438133            6.373003             -1.911575
| 38>   H                      -7.354863            8.098564             -1.220289
| 39>   H                      -7.641321            6.615073             -2.156346
| 40>   H                      -7.859570            6.551375             -0.455189
| 41>   C                    : -3.597941            7.981117             -3.330310
| 42>   O                    : -3.746181            6.622635             -3.215281
| 43>   H                    : -2.888624            6.161588             -3.122469
| 44>   H                    : -4.486749            8.586821             -3.163398
| 45>   H                    : -2.815400            8.344847             -2.598938
| 46>   H                    : -3.304377            8.236626             -4.371332
| 47> *
| 48>
| 49> #Run DFT-D3 single point of the particle with dimer basis set
| 50> $new_job
| 51> %base "13-151_DFT_B"
| 52> ! wB97X-D3 def2-TZVP TIGHTSCF CHELPG PMODEL
| 53>
| 54> %scf
| 55> MaxIter 1000
| 56> end
| 57>
| 58> * xyz 0 1
| 59>   C                    : -7.220096            6.994983             -1.251529
| 60>   O                    : -5.864312            6.616557             -1.059694
| 61>   H                    : -5.438133            6.373003             -1.911575
| 62>   H                    : -7.354863            8.098564             -1.220289
| 63>   H                    : -7.641321            6.615073             -2.156346
| 64>   H                    : -7.859570            6.551375             -0.455189
| 65>   C                      -3.597941            7.981117             -3.330310
| 66>   O                      -3.746181            6.622635             -3.215281
| 67>   H                      -2.888624            6.161588             -3.122469
| 68>   H                      -4.486749            8.586821             -3.163398
| 69>   H                      -2.815400            8.344847             -2.598938
| 70>   H                      -3.304377            8.236626             -4.371332
| 71> *
| 72>
| 73>                          ****END OF INPUT****
 Total Charge           Charge          ....    0
 Multiplicity           Mult            ....    1
 Number of Electrons    NEL             ....   36
Dispersion correction           -0.001764900
FINAL SINGLE POINT ENERGY      -231.473888643838
Dispersion correction           -0.000264566
FINAL SINGLE POINT ENERGY      -115.734654812397

CARTESIAN COORDINATES (ANGSTROEM)
---------------------------------
  C     -7.220096    6.994983   -1.251529
  O     -5.864312    6.616557   -1.059694
  H     -5.438133    6.373003   -1.911575
  H     -7.354863    8.098564   -1.220289
  H     -7.641321    6.615073   -2.156346
  H     -7.859570    6.551375   -0.455189
  C     -3.597941    7.981117   -3.330310
  O     -3.746181    6.622635   -3.215281
  H     -2.888624    6.161588   -3.122469
  H     -4.486749    8.586821   -3.163398
  H     -2.815400    8.344847   -2.598938
  H     -3.304377    8.236626   -4.371332

 Multiplicity           Mult            ....    1
 Number of Electrons    NEL             ....   18
 Basis Dimension        Dim             ....  172

ORBITAL ENERGIES
----------------

  NO   OCC          E(Eh)            E(eV)
   0   2.0000     -19.231032      -523.3030
   1   2.0000     -10.315174      -280.6902
   2   2.0000      -1.144932       -31.1552
   3   2.0000      -0.791570       -21.5397
   4   2.0000      -0.614583       -16.7237
   5   2.0000      -0.544380       -14.8133
   6   2.0000      -0.538675       -14.6581
   7   2.0000      -0.420157       -11.4330
   8   2.0000      -0.368800       -10.0356
   9   0.0000       0.094514         2.5718
  10   0.0000       0.116214         3.1623
  11   0.0000       0.152199         4.1416
  12   0.0000       0.190669         5.1884
  13   0.0000       0.198056         5.3894

MULLIKEN ATOMIC CHARGES
-----------------------
   0 C :    0.000199
   1 O :   -0.001658
   2 H :   -0.005456
   3 H :   -0.000205
   4 H :   -0.000228
   5 H :   -0.000031
   6 C :   -0.155075
   7 O :   -0.471174
   8 H :    0.324276
   9 H :    0.123214
  10 H :    0.094348
  11 H :    0.091790
Sum of atomic charges:   -0.0000000

LOEWDIN ATOMIC CHARGES
----------------------
   0 C :   -0.000749
   1 O :   -0.003884
   2 H :   -0.026725
   3 H :   -0.000151
   4 H :   -0.000036
   5 H :   -0.000007
   6 C :   -0.422118
   7 O :   -0.032813
   8 H :    0.184971
   9 H :    0.106308
  10 H :    0.099943
  11 H :    0.095262

  Mayer bond orders larger than 0.1
B(  6-C ,  7-O ) :   0.9937 B(  6-C ,  9-H ) :   0.9704 B(  6-C , 10-H ) :   0.9842
B(  6-C , 11-H ) :   0.9754 B(  7-O ,  8-H ) :   0.8853

Dispersion correction           -0.000239076
FINAL SINGLE POINT ENERGY      -115.731735833878

DIPOLE MOMENT
-------------
                                X             Y             Z
Electronic contribution:     -0.41956      -1.83433       0.18124
Nuclear contribution   :      1.01159       2.04808      -0.16132
                        -----------------------------------------
Total Dipole Moment    :      0.59203       0.21374       0.01992
                        -----------------------------------------
Magnitude (a.u.)       :      0.62975
Magnitude (Debye)      :      1.60069

Rotational constants in cm-1:     4.287673     0.857280     0.829562
Rotational constants in MHz : 128541.193942 25700.605036 24869.648963

                             ****ORCA TERMINATED NORMALLY****
TOTAL RUN TIME: 0 days 0 hours 1 minutes 12 seconds 285 msec
