                         Program Version 4.1.2  - RELEASE  -
|  1> #Run DFT-D3 single point of the dimer
|  2> ! wB97X-D3 def2-TZVP TIGHTSCF CHELPG PMODEL PAL8
|  3>
|  4> %base "22-136_DFT_AB"
|  5>
|  6> %scf
|  7> MaxIter 1000
|  8> end
|  9>
| 10> * xyz 0 1
| 11>   C                      -6.064627            7.188321             -11.432468
| 12>   O                      -5.788437            7.373492             -10.093867
| 13>   H                      -4.872446            7.602528             -10.077802
| 14>   H                      -7.156699            7.111076             -11.643021
| 15>   H                      -5.706428            8.024415             -11.995838
| 16>   H                      -5.650287            6.228816             -11.865128
| 17>   C                      -8.142469            10.884034            -8.858114
| 18>   O                      -7.232965            11.107994            -7.759848
| 19>   H                      -6.892286            10.269751            -7.515333
| 20>   H                      -9.143728            11.358740            -8.624990
| 21>   H                      -7.690766            11.232019            -9.853560
| 22>   H                      -8.381424            9.827021             -9.023874
| 23> *
| 24>
| 25> #Run DFT-D3 single point of the molecule with dimer basis set
| 26> $new_job
| 27> %base "22-136_DFT_A"
| 28> ! wB97X-D3 def2-TZVP TIGHTSCF CHELPG PMODEL
| 29>
| 30> %scf
| 31> MaxIter 1000
| 32> end
| 33>
| 34> * xyz 0 1
| 35>   C                      -6.064627            7.188321             -11.432468
| 36>   O                      -5.788437            7.373492             -10.093867
| 37>   H                      -4.872446            7.602528             -10.077802
| 38>   H                      -7.156699            7.111076             -11.643021
| 39>   H                      -5.706428            8.024415             -11.995838
| 40>   H                      -5.650287            6.228816             -11.865128
| 41>   C                    : -8.142469            10.884034            -8.858114
| 42>   O                    : -7.232965            11.107994            -7.759848
| 43>   H                    : -6.892286            10.269751            -7.515333
| 44>   H                    : -9.143728            11.358740            -8.624990
| 45>   H                    : -7.690766            11.232019            -9.853560
| 46>   H                    : -8.381424            9.827021             -9.023874
| 47> *
| 48>
| 49> #Run DFT-D3 single point of the particle with dimer basis set
| 50> $new_job
| 51> %base "22-136_DFT_B"
| 52> ! wB97X-D3 def2-TZVP TIGHTSCF CHELPG PMODEL
| 53>
| 54> %scf
| 55> MaxIter 1000
| 56> end
| 57>
| 58> * xyz 0 1
| 59>   C                    : -6.064627            7.188321             -11.432468
| 60>   O                    : -5.788437            7.373492             -10.093867
| 61>   H                    : -4.872446            7.602528             -10.077802
| 62>   H                    : -7.156699            7.111076             -11.643021
| 63>   H                    : -5.706428            8.024415             -11.995838
| 64>   H                    : -5.650287            6.228816             -11.865128
| 65>   C                      -8.142469            10.884034            -8.858114
| 66>   O                      -7.232965            11.107994            -7.759848
| 67>   H                      -6.892286            10.269751            -7.515333
| 68>   H                      -9.143728            11.358740            -8.624990
| 69>   H                      -7.690766            11.232019            -9.853560
| 70>   H                      -8.381424            9.827021             -9.023874
| 71> *
| 72>
| 73>                          ****END OF INPUT****
 Total Charge           Charge          ....    0
 Multiplicity           Mult            ....    1
 Number of Electrons    NEL             ....   36
Dispersion correction           -0.000996676
FINAL SINGLE POINT ENERGY      -231.466202594094
Dispersion correction           -0.000225241
FINAL SINGLE POINT ENERGY      -115.733337363924

CARTESIAN COORDINATES (ANGSTROEM)
---------------------------------
  C     -6.064627    7.188321  -11.432468
  O     -5.788437    7.373492  -10.093867
  H     -4.872446    7.602528  -10.077802
  H     -7.156699    7.111076  -11.643021
  H     -5.706428    8.024415  -11.995838
  H     -5.650287    6.228816  -11.865128
  C     -8.142469   10.884034   -8.858114
  O     -7.232965   11.107994   -7.759848
  H     -6.892286   10.269751   -7.515333
  H     -9.143728   11.358740   -8.624990
  H     -7.690766   11.232019   -9.853560
  H     -8.381424    9.827021   -9.023874

 Multiplicity           Mult            ....    1
 Number of Electrons    NEL             ....   18
 Basis Dimension        Dim             ....  172

ORBITAL ENERGIES
----------------

  NO   OCC          E(Eh)            E(eV)
   0   2.0000     -19.230452      -523.2872
   1   2.0000     -10.326113      -280.9878
   2   2.0000      -1.134026       -30.8584
   3   2.0000      -0.791440       -21.5362
   4   2.0000      -0.611233       -16.6325
   5   2.0000      -0.535930       -14.5834
   6   2.0000      -0.514328       -13.9956
   7   2.0000      -0.436093       -11.8667
   8   2.0000      -0.376850       -10.2546
   9   0.0000       0.075602         2.0572
  10   0.0000       0.117330         3.1927
  11   0.0000       0.143435         3.9031
  12   0.0000       0.166760         4.5378
  13   0.0000       0.176625         4.8062

MULLIKEN ATOMIC CHARGES
-----------------------
   0 C :    0.000075
   1 O :    0.000016
   2 H :   -0.000033
   3 H :   -0.000116
   4 H :   -0.000040
   5 H :   -0.000006
   6 C :   -0.178565
   7 O :   -0.467501
   8 H :    0.312681
   9 H :    0.117379
  10 H :    0.106603
  11 H :    0.109507
Sum of atomic charges:   -0.0000000

LOEWDIN ATOMIC CHARGES
----------------------
   0 C :   -0.000172
   1 O :   -0.000090
   2 H :   -0.000034
   3 H :   -0.000060
   4 H :   -0.000020
   5 H :   -0.000002
   6 C :   -0.377581
   7 O :   -0.087323
   8 H :    0.152302
   9 H :    0.110561
  10 H :    0.107576
  11 H :    0.094843

  Mayer bond orders larger than 0.1
B(  6-C ,  7-O ) :   1.0058 B(  6-C ,  9-H ) :   0.9720 B(  6-C , 10-H ) :   0.9694
B(  6-C , 11-H ) :   0.9781 B(  7-O ,  8-H ) :   0.9057

Dispersion correction           -0.000275272
FINAL SINGLE POINT ENERGY      -115.731114095003

DIPOLE MOMENT
-------------
                                X             Y             Z
Electronic contribution:      1.16480       0.43416       1.44214
Nuclear contribution   :     -1.31906      -1.11356      -1.70986
                        -----------------------------------------
Total Dipole Moment    :     -0.15426      -0.67940      -0.26772
                        -----------------------------------------
Magnitude (a.u.)       :      0.74636
Magnitude (Debye)      :      1.89709

Rotational constants in cm-1:     4.152106     0.790362     0.775091
Rotational constants in MHz : 124477.011899 23694.448242 23236.653816

                             ****ORCA TERMINATED NORMALLY****
TOTAL RUN TIME: 0 days 0 hours 0 minutes 54 seconds 850 msec
