                         Program Version 4.1.2  - RELEASE  -
|  1> #Run DFT-D3 single point of the dimer
|  2> ! wB97X-D3 def2-TZVP TIGHTSCF CHELPG PMODEL PAL8
|  3>
|  4> %base "5-46_DFT_AB"
|  5>
|  6> %scf
|  7> MaxIter 1000
|  8> end
|  9>
| 10> * xyz 0 1
| 11>   C                      -2.327879            -1.689422            -8.778547
| 12>   O                      -1.414397            -2.216028            -7.842568
| 13>   H                      -1.431879            -3.135477            -8.159358
| 14>   H                      -1.907718            -1.481460            -9.705796
| 15>   H                      -3.138934            -2.311804            -8.966968
| 16>   H                      -2.843604            -0.810400            -8.339234
| 17>   C                      2.820385             -5.089444            -8.442606
| 18>   O                      2.945172             -3.830375            -7.756937
| 19>   H                      2.962950             -3.070682            -8.399219
| 20>   H                      1.914356             -5.641353            -8.329648
| 21>   H                      3.072038             -5.033986            -9.493354
| 22>   H                      3.628595             -5.784499            -8.061974
| 23> *
| 24>
| 25> #Run DFT-D3 single point of the molecule with dimer basis set
| 26> $new_job
| 27> %base "5-46_DFT_A"
| 28> ! wB97X-D3 def2-TZVP TIGHTSCF CHELPG PMODEL
| 29>
| 30> %scf
| 31> MaxIter 1000
| 32> end
| 33>
| 34> * xyz 0 1
| 35>   C                      -2.327879            -1.689422            -8.778547
| 36>   O                      -1.414397            -2.216028            -7.842568
| 37>   H                      -1.431879            -3.135477            -8.159358
| 38>   H                      -1.907718            -1.481460            -9.705796
| 39>   H                      -3.138934            -2.311804            -8.966968
| 40>   H                      -2.843604            -0.810400            -8.339234
| 41>   C                    : 2.820385             -5.089444            -8.442606
| 42>   O                    : 2.945172             -3.830375            -7.756937
| 43>   H                    : 2.962950             -3.070682            -8.399219
| 44>   H                    : 1.914356             -5.641353            -8.329648
| 45>   H                    : 3.072038             -5.033986            -9.493354
| 46>   H                    : 3.628595             -5.784499            -8.061974
| 47> *
| 48>
| 49> #Run DFT-D3 single point of the particle with dimer basis set
| 50> $new_job
| 51> %base "5-46_DFT_B"
| 52> ! wB97X-D3 def2-TZVP TIGHTSCF CHELPG PMODEL
| 53>
| 54> %scf
| 55> MaxIter 1000
| 56> end
| 57>
| 58> * xyz 0 1
| 59>   C                    : -2.327879            -1.689422            -8.778547
| 60>   O                    : -1.414397            -2.216028            -7.842568
| 61>   H                    : -1.431879            -3.135477            -8.159358
| 62>   H                    : -1.907718            -1.481460            -9.705796
| 63>   H                    : -3.138934            -2.311804            -8.966968
| 64>   H                    : -2.843604            -0.810400            -8.339234
| 65>   C                      2.820385             -5.089444            -8.442606
| 66>   O                      2.945172             -3.830375            -7.756937
| 67>   H                      2.962950             -3.070682            -8.399219
| 68>   H                      1.914356             -5.641353            -8.329648
| 69>   H                      3.072038             -5.033986            -9.493354
| 70>   H                      3.628595             -5.784499            -8.061974
| 71> *
| 72>
| 73>                          ****END OF INPUT****
 Total Charge           Charge          ....    0
 Multiplicity           Mult            ....    1
 Number of Electrons    NEL             ....   36
Dispersion correction           -0.000703122
FINAL SINGLE POINT ENERGY      -231.455758292941
Dispersion correction           -0.000207047
FINAL SINGLE POINT ENERGY      -115.726557787629

CARTESIAN COORDINATES (ANGSTROEM)
---------------------------------
  C     -2.327879   -1.689422   -8.778547
  O     -1.414397   -2.216028   -7.842568
  H     -1.431879   -3.135477   -8.159358
  H     -1.907718   -1.481460   -9.705796
  H     -3.138934   -2.311804   -8.966968
  H     -2.843604   -0.810400   -8.339234
  C      2.820385   -5.089444   -8.442606
  O      2.945172   -3.830375   -7.756937
  H      2.962950   -3.070682   -8.399219
  H      1.914356   -5.641353   -8.329648
  H      3.072038   -5.033986   -9.493354
  H      3.628595   -5.784499   -8.061974

 Multiplicity           Mult            ....    1
 Number of Electrons    NEL             ....   18
 Basis Dimension        Dim             ....  172

ORBITAL ENERGIES
----------------

  NO   OCC          E(Eh)            E(eV)
   0   2.0000     -19.234660      -523.4017
   1   2.0000     -10.314799      -280.6799
   2   2.0000      -1.120956       -30.5028
   3   2.0000      -0.797288       -21.6953
   4   2.0000      -0.606685       -16.5087
   5   2.0000      -0.540789       -14.7156
   6   2.0000      -0.517239       -14.0748
   7   2.0000      -0.429178       -11.6785
   8   2.0000      -0.374628       -10.1941
   9   0.0000       0.086088         2.3426
  10   0.0000       0.110718         3.0128
  11   0.0000       0.146045         3.9741
  12   0.0000       0.167989         4.5712
  13   0.0000       0.196040         5.3345

MULLIKEN ATOMIC CHARGES
-----------------------
   0 C :    0.000012
   1 O :   -0.000039
   2 H :   -0.000205
   3 H :   -0.000009
   4 H :    0.000000
   5 H :    0.000003
   6 C :   -0.179921
   7 O :   -0.484373
   8 H :    0.321289
   9 H :    0.119457
  10 H :    0.112810
  11 H :    0.110976
Sum of atomic charges:   -0.0000000

LOEWDIN ATOMIC CHARGES
----------------------
   0 C :   -0.000009
   1 O :   -0.000067
   2 H :   -0.000117
   3 H :   -0.000001
   4 H :   -0.000000
   5 H :   -0.000000
   6 C :   -0.375771
   7 O :   -0.110280
   8 H :    0.187647
   9 H :    0.092284
  10 H :    0.095123
  11 H :    0.111191

  Mayer bond orders larger than 0.1
B(  6-C ,  7-O ) :   1.0072 B(  6-C ,  9-H ) :   0.9680 B(  6-C , 10-H ) :   0.9800
B(  6-C , 11-H ) :   0.9782 B(  7-O ,  8-H ) :   0.8919

Dispersion correction           -0.000279505
FINAL SINGLE POINT ENERGY      -115.729400275710

DIPOLE MOMENT
-------------
                                X             Y             Z
Electronic contribution:     -0.03553       1.64069       0.98309
Nuclear contribution   :      0.01005      -1.67183      -1.70083
                        -----------------------------------------
Total Dipole Moment    :     -0.02548      -0.03113      -0.71774
                        -----------------------------------------
Magnitude (a.u.)       :      0.71886
Magnitude (Debye)      :      1.82720

Rotational constants in cm-1:     4.414542     0.791219     0.765405
Rotational constants in MHz : 132344.650669 23720.134050 22946.255028

                             ****ORCA TERMINATED NORMALLY****
TOTAL RUN TIME: 0 days 0 hours 0 minutes 53 seconds 468 msec
