                         Program Version 4.1.2  - RELEASE  -
|  1> #Run DFT-D3 single point of the dimer
|  2> ! wB97X-D3 def2-TZVP TIGHTSCF CHELPG PMODEL PAL8
|  3>
|  4> %base "18-110_DFT_AB"
|  5>
|  6> %scf
|  7> MaxIter 1000
|  8> end
|  9>
| 10> * xyz 0 1
| 11>   C                      -6.192142            3.316149             -6.809267
| 12>   O                      -7.336972            3.537002             -7.548146
| 13>   H                      -7.789556            2.702504             -7.730848
| 14>   H                      -5.550803            2.508840             -7.203394
| 15>   H                      -5.617500            4.249866             -6.681300
| 16>   H                      -6.487296            3.059654             -5.826811
| 17>   C                      -2.416561            4.623736             -5.912882
| 18>   O                      -3.210156            3.711580             -5.176579
| 19>   H                      -2.795461            3.696916             -4.320566
| 20>   H                      -2.690386            4.638181             -7.028107
| 21>   H                      -2.587570            5.667725             -5.499925
| 22>   H                      -1.369802            4.321976             -5.810700
| 23> *
| 24>
| 25> #Run DFT-D3 single point of the molecule with dimer basis set
| 26> $new_job
| 27> %base "18-110_DFT_A"
| 28> ! wB97X-D3 def2-TZVP TIGHTSCF CHELPG PMODEL
| 29>
| 30> %scf
| 31> MaxIter 1000
| 32> end
| 33>
| 34> * xyz 0 1
| 35>   C                      -6.192142            3.316149             -6.809267
| 36>   O                      -7.336972            3.537002             -7.548146
| 37>   H                      -7.789556            2.702504             -7.730848
| 38>   H                      -5.550803            2.508840             -7.203394
| 39>   H                      -5.617500            4.249866             -6.681300
| 40>   H                      -6.487296            3.059654             -5.826811
| 41>   C                    : -2.416561            4.623736             -5.912882
| 42>   O                    : -3.210156            3.711580             -5.176579
| 43>   H                    : -2.795461            3.696916             -4.320566
| 44>   H                    : -2.690386            4.638181             -7.028107
| 45>   H                    : -2.587570            5.667725             -5.499925
| 46>   H                    : -1.369802            4.321976             -5.810700
| 47> *
| 48>
| 49> #Run DFT-D3 single point of the particle with dimer basis set
| 50> $new_job
| 51> %base "18-110_DFT_B"
| 52> ! wB97X-D3 def2-TZVP TIGHTSCF CHELPG PMODEL
| 53>
| 54> %scf
| 55> MaxIter 1000
| 56> end
| 57>
| 58> * xyz 0 1
| 59>   C                    : -6.192142            3.316149             -6.809267
| 60>   O                    : -7.336972            3.537002             -7.548146
| 61>   H                    : -7.789556            2.702504             -7.730848
| 62>   H                    : -5.550803            2.508840             -7.203394
| 63>   H                    : -5.617500            4.249866             -6.681300
| 64>   H                    : -6.487296            3.059654             -5.826811
| 65>   C                      -2.416561            4.623736             -5.912882
| 66>   O                      -3.210156            3.711580             -5.176579
| 67>   H                      -2.795461            3.696916             -4.320566
| 68>   H                      -2.690386            4.638181             -7.028107
| 69>   H                      -2.587570            5.667725             -5.499925
| 70>   H                      -1.369802            4.321976             -5.810700
| 71> *
| 72>
| 73>                          ****END OF INPUT****
 Total Charge           Charge          ....    0
 Multiplicity           Mult            ....    1
 Number of Electrons    NEL             ....   36
Dispersion correction           -0.001571428
FINAL SINGLE POINT ENERGY      -231.468186881354
Dispersion correction           -0.000224915
FINAL SINGLE POINT ENERGY      -115.733664779487

CARTESIAN COORDINATES (ANGSTROEM)
---------------------------------
  C     -6.192142    3.316149   -6.809267
  O     -7.336972    3.537002   -7.548146
  H     -7.789556    2.702504   -7.730848
  H     -5.550803    2.508840   -7.203394
  H     -5.617500    4.249866   -6.681300
  H     -6.487296    3.059654   -5.826811
  C     -2.416561    4.623736   -5.912882
  O     -3.210156    3.711580   -5.176579
  H     -2.795461    3.696916   -4.320566
  H     -2.690386    4.638181   -7.028107
  H     -2.587570    5.667725   -5.499925
  H     -1.369802    4.321976   -5.810700

 Multiplicity           Mult            ....    1
 Number of Electrons    NEL             ....   18
 Basis Dimension        Dim             ....  172

ORBITAL ENERGIES
----------------

  NO   OCC          E(Eh)            E(eV)
   0   2.0000     -19.230237      -523.2814
   1   2.0000     -10.323718      -280.9227
   2   2.0000      -1.141368       -31.0582
   3   2.0000      -0.785780       -21.3822
   4   2.0000      -0.607975       -16.5438
   5   2.0000      -0.543670       -14.7940
   6   2.0000      -0.524810       -14.2808
   7   2.0000      -0.433988       -11.8094
   8   2.0000      -0.372879       -10.1466
   9   0.0000       0.095273         2.5925
  10   0.0000       0.119449         3.2504
  11   0.0000       0.151617         4.1257
  12   0.0000       0.179218         4.8768
  13   0.0000       0.194947         5.3048

MULLIKEN ATOMIC CHARGES
-----------------------
   0 C :    0.003441
   1 O :   -0.000124
   2 H :   -0.000020
   3 H :   -0.002095
   4 H :   -0.002334
   5 H :   -0.002786
   6 C :   -0.188527
   7 O :   -0.456348
   8 H :    0.310279
   9 H :    0.122896
  10 H :    0.102887
  11 H :    0.112731
Sum of atomic charges:   -0.0000000

LOEWDIN ATOMIC CHARGES
----------------------
   0 C :   -0.007279
   1 O :   -0.000032
   2 H :   -0.000015
   3 H :   -0.000886
   4 H :   -0.002916
   5 H :   -0.001033
   6 C :   -0.397393
   7 O :   -0.069022
   8 H :    0.164760
   9 H :    0.118100
  10 H :    0.100800
  11 H :    0.094916

  Mayer bond orders larger than 0.1
B(  6-C ,  7-O ) :   0.9843 B(  6-C ,  9-H ) :   0.9700 B(  6-C , 10-H ) :   0.9748
B(  6-C , 11-H ) :   0.9764 B(  7-O ,  8-H ) :   0.9022

Dispersion correction           -0.000228631
FINAL SINGLE POINT ENERGY      -115.732579654240

DIPOLE MOMENT
-------------
                                X             Y             Z
Electronic contribution:     -1.08391      -1.23783       0.80879
Nuclear contribution   :      1.66395       1.56296      -0.56093
                        -----------------------------------------
Total Dipole Moment    :      0.58004       0.32513       0.24786
                        -----------------------------------------
Magnitude (a.u.)       :      0.70964
Magnitude (Debye)      :      1.80377

Rotational constants in cm-1:     4.038669     0.832505     0.803018
Rotational constants in MHz : 121076.254096 24957.860829 24073.865258

                             ****ORCA TERMINATED NORMALLY****
TOTAL RUN TIME: 0 days 0 hours 1 minutes 5 seconds 950 msec
