                         Program Version 4.1.2  - RELEASE  -
|  1> #Run DFT-D3 single point of the dimer
|  2> ! wB97X-D3 def2-TZVP TIGHTSCF CHELPG PMODEL PAL8
|  3>
|  4> %base "18-142_DFT_AB"
|  5>
|  6> %scf
|  7> MaxIter 1000
|  8> end
|  9>
| 10> * xyz 0 1
| 11>   C                      2.523888             4.676657             7.090738
| 12>   O                      2.566897             6.070124             6.773619
| 13>   H                      1.949694             6.599378             7.303895
| 14>   H                      3.367195             4.206097             6.586594
| 15>   H                      2.634672             4.644139             8.164876
| 16>   H                      1.636308             4.135860             6.734283
| 17>   C                      2.680048             11.428202            5.553753
| 18>   O                      3.205014             10.351090            4.820974
| 19>   H                      3.830850             9.851421             5.347493
| 20>   H                      3.483308             12.098825            5.951507
| 21>   H                      2.029457             11.987699            4.871280
| 22>   H                      2.058830             11.102375            6.433720
| 23> *
| 24>
| 25> #Run DFT-D3 single point of the molecule with dimer basis set
| 26> $new_job
| 27> %base "18-142_DFT_A"
| 28> ! wB97X-D3 def2-TZVP TIGHTSCF CHELPG PMODEL
| 29>
| 30> %scf
| 31> MaxIter 1000
| 32> end
| 33>
| 34> * xyz 0 1
| 35>   C                      2.523888             4.676657             7.090738
| 36>   O                      2.566897             6.070124             6.773619
| 37>   H                      1.949694             6.599378             7.303895
| 38>   H                      3.367195             4.206097             6.586594
| 39>   H                      2.634672             4.644139             8.164876
| 40>   H                      1.636308             4.135860             6.734283
| 41>   C                    : 2.680048             11.428202            5.553753
| 42>   O                    : 3.205014             10.351090            4.820974
| 43>   H                    : 3.830850             9.851421             5.347493
| 44>   H                    : 3.483308             12.098825            5.951507
| 45>   H                    : 2.029457             11.987699            4.871280
| 46>   H                    : 2.058830             11.102375            6.433720
| 47> *
| 48>
| 49> #Run DFT-D3 single point of the particle with dimer basis set
| 50> $new_job
| 51> %base "18-142_DFT_B"
| 52> ! wB97X-D3 def2-TZVP TIGHTSCF CHELPG PMODEL
| 53>
| 54> %scf
| 55> MaxIter 1000
| 56> end
| 57>
| 58> * xyz 0 1
| 59>   C                    : 2.523888             4.676657             7.090738
| 60>   O                    : 2.566897             6.070124             6.773619
| 61>   H                    : 1.949694             6.599378             7.303895
| 62>   H                    : 3.367195             4.206097             6.586594
| 63>   H                    : 2.634672             4.644139             8.164876
| 64>   H                    : 1.636308             4.135860             6.734283
| 65>   C                      2.680048             11.428202            5.553753
| 66>   O                      3.205014             10.351090            4.820974
| 67>   H                      3.830850             9.851421             5.347493
| 68>   H                      3.483308             12.098825            5.951507
| 69>   H                      2.029457             11.987699            4.871280
| 70>   H                      2.058830             11.102375            6.433720
| 71> *
| 72>
| 73>                          ****END OF INPUT****
 Total Charge           Charge          ....    0
 Multiplicity           Mult            ....    1
 Number of Electrons    NEL             ....   36
Dispersion correction           -0.000665937
FINAL SINGLE POINT ENERGY      -231.470648277851
Dispersion correction           -0.000249218
FINAL SINGLE POINT ENERGY      -115.733668577765

CARTESIAN COORDINATES (ANGSTROEM)
---------------------------------
  C      2.523888    4.676657    7.090738
  O      2.566897    6.070124    6.773619
  H      1.949694    6.599378    7.303895
  H      3.367195    4.206097    6.586594
  H      2.634672    4.644139    8.164876
  H      1.636308    4.135860    6.734283
  C      2.680048   11.428202    5.553753
  O      3.205014   10.351090    4.820974
  H      3.830850    9.851421    5.347493
  H      3.483308   12.098825    5.951507
  H      2.029457   11.987699    4.871280
  H      2.058830   11.102375    6.433720

 Multiplicity           Mult            ....    1
 Number of Electrons    NEL             ....   18
 Basis Dimension        Dim             ....  172

ORBITAL ENERGIES
----------------

  NO   OCC          E(Eh)            E(eV)
   0   2.0000     -19.229873      -523.2715
   1   2.0000     -10.318797      -280.7887
   2   2.0000      -1.138112       -30.9696
   3   2.0000      -0.792260       -21.5585
   4   2.0000      -0.612821       -16.6757
   5   2.0000      -0.536133       -14.5889
   6   2.0000      -0.527781       -14.3617
   7   2.0000      -0.431759       -11.7488
   8   2.0000      -0.372059       -10.1242
   9   0.0000       0.085041         2.3141
  10   0.0000       0.113177         3.0797
  11   0.0000       0.153297         4.1714
  12   0.0000       0.166771         4.5381
  13   0.0000       0.196978         5.3600

MULLIKEN ATOMIC CHARGES
-----------------------
   0 C :   -0.000012
   1 O :   -0.000024
   2 H :   -0.000097
   3 H :    0.000002
   4 H :    0.000001
   5 H :   -0.000000
   6 C :   -0.156836
   7 O :   -0.475546
   8 H :    0.314741
   9 H :    0.099979
  10 H :    0.120642
  11 H :    0.097152
Sum of atomic charges:    0.0000000

LOEWDIN ATOMIC CHARGES
----------------------
   0 C :   -0.000003
   1 O :   -0.000042
   2 H :   -0.000061
   3 H :   -0.000000
   4 H :   -0.000000
   5 H :   -0.000000
   6 C :   -0.398400
   7 O :   -0.070964
   8 H :    0.166143
   9 H :    0.097093
  10 H :    0.109280
  11 H :    0.096953

  Mayer bond orders larger than 0.1
B(  6-C ,  7-O ) :   1.0000 B(  6-C ,  9-H ) :   0.9742 B(  6-C , 10-H ) :   0.9735
B(  6-C , 11-H ) :   0.9707 B(  7-O ,  8-H ) :   0.8975

Dispersion correction           -0.000253246
FINAL SINGLE POINT ENERGY      -115.736648192237

DIPOLE MOMENT
-------------
                                X             Y             Z
Electronic contribution:      0.61817      -1.35836      -1.07577
Nuclear contribution   :     -0.42057       1.45908       1.68647
                        -----------------------------------------
Total Dipole Moment    :      0.19760       0.10073       0.61071
                        -----------------------------------------
Magnitude (a.u.)       :      0.64974
Magnitude (Debye)      :      1.65150

Rotational constants in cm-1:     4.198598     0.833607     0.804090
Rotational constants in MHz : 125870.789463 24990.909279 24106.023517

                             ****ORCA TERMINATED NORMALLY****
TOTAL RUN TIME: 0 days 0 hours 0 minutes 51 seconds 147 msec
