                         Program Version 4.1.2  - RELEASE  -
|  1> #Run DFT-D3 single point of the dimer
|  2> ! wB97X-D3 def2-TZVP TIGHTSCF CHELPG PMODEL PAL8
|  3>
|  4> %base "13-106_DFT_AB"
|  5>
|  6> %scf
|  7> MaxIter 1000
|  8> end
|  9>
| 10> * xyz 0 1
| 11>   C                      -6.030512            6.655904             1.816928
| 12>   O                      -5.728468            6.776601             3.218112
| 13>   H                      -4.798940            6.874311             3.255842
| 14>   H                      -7.104650            6.813739             1.601745
| 15>   H                      -5.444522            7.352368             1.185617
| 16>   H                      -5.877691            5.637061             1.551672
| 17>   C                      -7.220096            6.994983             -1.251529
| 18>   O                      -5.864312            6.616557             -1.059694
| 19>   H                      -5.438133            6.373003             -1.911575
| 20>   H                      -7.354863            8.098564             -1.220289
| 21>   H                      -7.641321            6.615073             -2.156346
| 22>   H                      -7.859570            6.551375             -0.455189
| 23> *
| 24>
| 25> #Run DFT-D3 single point of the molecule with dimer basis set
| 26> $new_job
| 27> %base "13-106_DFT_A"
| 28> ! wB97X-D3 def2-TZVP TIGHTSCF CHELPG PMODEL
| 29>
| 30> %scf
| 31> MaxIter 1000
| 32> end
| 33>
| 34> * xyz 0 1
| 35>   C                      -6.030512            6.655904             1.816928
| 36>   O                      -5.728468            6.776601             3.218112
| 37>   H                      -4.798940            6.874311             3.255842
| 38>   H                      -7.104650            6.813739             1.601745
| 39>   H                      -5.444522            7.352368             1.185617
| 40>   H                      -5.877691            5.637061             1.551672
| 41>   C                    : -7.220096            6.994983             -1.251529
| 42>   O                    : -5.864312            6.616557             -1.059694
| 43>   H                    : -5.438133            6.373003             -1.911575
| 44>   H                    : -7.354863            8.098564             -1.220289
| 45>   H                    : -7.641321            6.615073             -2.156346
| 46>   H                    : -7.859570            6.551375             -0.455189
| 47> *
| 48>
| 49> #Run DFT-D3 single point of the particle with dimer basis set
| 50> $new_job
| 51> %base "13-106_DFT_B"
| 52> ! wB97X-D3 def2-TZVP TIGHTSCF CHELPG PMODEL
| 53>
| 54> %scf
| 55> MaxIter 1000
| 56> end
| 57>
| 58> * xyz 0 1
| 59>   C                    : -6.030512            6.655904             1.816928
| 60>   O                    : -5.728468            6.776601             3.218112
| 61>   H                    : -4.798940            6.874311             3.255842
| 62>   H                    : -7.104650            6.813739             1.601745
| 63>   H                    : -5.444522            7.352368             1.185617
| 64>   H                    : -5.877691            5.637061             1.551672
| 65>   C                      -7.220096            6.994983             -1.251529
| 66>   O                      -5.864312            6.616557             -1.059694
| 67>   H                      -5.438133            6.373003             -1.911575
| 68>   H                      -7.354863            8.098564             -1.220289
| 69>   H                      -7.641321            6.615073             -2.156346
| 70>   H                      -7.859570            6.551375             -0.455189
| 71> *
| 72>
| 73>                          ****END OF INPUT****
 Total Charge           Charge          ....    0
 Multiplicity           Mult            ....    1
 Number of Electrons    NEL             ....   36
Dispersion correction           -0.002095916
FINAL SINGLE POINT ENERGY      -231.467652220082
Dispersion correction           -0.000238998
FINAL SINGLE POINT ENERGY      -115.733058990312

CARTESIAN COORDINATES (ANGSTROEM)
---------------------------------
  C     -6.030512    6.655904    1.816928
  O     -5.728468    6.776601    3.218112
  H     -4.798940    6.874311    3.255842
  H     -7.104650    6.813739    1.601745
  H     -5.444522    7.352368    1.185617
  H     -5.877691    5.637061    1.551672
  C     -7.220096    6.994983   -1.251529
  O     -5.864312    6.616557   -1.059694
  H     -5.438133    6.373003   -1.911575
  H     -7.354863    8.098564   -1.220289
  H     -7.641321    6.615073   -2.156346
  H     -7.859570    6.551375   -0.455189

 Multiplicity           Mult            ....    1
 Number of Electrons    NEL             ....   18
 Basis Dimension        Dim             ....  172

ORBITAL ENERGIES
----------------

  NO   OCC          E(Eh)            E(eV)
   0   2.0000     -19.232572      -523.3449
   1   2.0000     -10.314914      -280.6831
   2   2.0000      -1.128441       -30.7064
   3   2.0000      -0.795030       -21.6339
   4   2.0000      -0.611256       -16.6331
   5   2.0000      -0.538077       -14.6418
   6   2.0000      -0.523784       -14.2529
   7   2.0000      -0.430152       -11.7050
   8   2.0000      -0.373750       -10.1702
   9   0.0000       0.097220         2.6455
  10   0.0000       0.124445         3.3863
  11   0.0000       0.148286         4.0351
  12   0.0000       0.181092         4.9278
  13   0.0000       0.197722         5.3803

MULLIKEN ATOMIC CHARGES
-----------------------
   0 C :    0.015984
   1 O :   -0.000000
   2 H :   -0.000054
   3 H :   -0.000912
   4 H :   -0.009644
   5 H :   -0.007576
   6 C :   -0.167474
   7 O :   -0.480477
   8 H :    0.317436
   9 H :    0.105735
  10 H :    0.112333
  11 H :    0.114649
Sum of atomic charges:   -0.0000000

LOEWDIN ATOMIC CHARGES
----------------------
   0 C :   -0.024415
   1 O :   -0.000076
   2 H :   -0.000016
   3 H :   -0.006095
   4 H :   -0.011595
   5 H :   -0.004198
   6 C :   -0.375721
   7 O :   -0.064893
   8 H :    0.181008
   9 H :    0.101698
  10 H :    0.091008
  11 H :    0.113296

  Mayer bond orders larger than 0.1
B(  6-C ,  7-O ) :   1.0054 B(  6-C ,  9-H ) :   0.9752 B(  6-C , 10-H ) :   0.9747
B(  6-C , 11-H ) :   0.9753 B(  7-O ,  8-H ) :   0.8924

Dispersion correction           -0.000264566
FINAL SINGLE POINT ENERGY      -115.734369620941

DIPOLE MOMENT
-------------
                                X             Y             Z
Electronic contribution:      1.76531      -0.45866       0.30500
Nuclear contribution   :     -2.04967       0.42603      -0.96235
                        -----------------------------------------
Total Dipole Moment    :     -0.28436      -0.03263      -0.65736
                        -----------------------------------------
Magnitude (a.u.)       :      0.71697
Magnitude (Debye)      :      1.82239

Rotational constants in cm-1:     4.321690     0.811345     0.788964
Rotational constants in MHz : 129560.996772 24323.505800 23652.558132

                             ****ORCA TERMINATED NORMALLY****
TOTAL RUN TIME: 0 days 0 hours 1 minutes 12 seconds 208 msec
