                         Program Version 4.1.2  - RELEASE  -
|  1> #Run DFT geometry optimization
|  2> ! wB97X-D3 def2-TZVP TIGHTSCF Grid5 FinalGrid6 Opt CHELPG PAL4
|  3>
|  4> %base "9_geo_opt"
|  5> %geom MaxIter 500
|  6> end
|  7>
|  8> %geom
|  9>   Constraints
| 10>     { B 2 1 C }
| 11>   end
| 12> end
| 13>
| 14>
| 15> * xyz 0 1
| 16>   C                    3.011465             -1.180584            0.598299
| 17>   O                    4.394831             -1.127737            0.874115
| 18>   H                    4.772038             -0.379335            0.412686
| 19>   H                    2.806592             -1.318652            -0.469543
| 20>   H                    2.611790             -2.039952            1.135705
| 21>   H                    2.484915             -0.284178            0.945466
| 22> *
| 23>
| 24>                          ****END OF INPUT****
 Total Charge           Charge          ....    0
 Multiplicity           Mult            ....    1
 Number of Electrons    NEL             ....   18
Dispersion correction           -0.000239187
FINAL SINGLE POINT ENERGY      -115.738050748142
Dispersion correction            ... done
                    ***********************HURRAY********************

CARTESIAN COORDINATES (ANGSTROEM)
---------------------------------
  C      3.011507   -1.180627    0.598336
  O      4.394843   -1.127701    0.874077
  H      4.772066   -0.379288    0.412677
  H      2.806602   -1.318666   -0.469507
  H      2.611670   -2.039946    1.135679
  H      2.484943   -0.284210    0.945466

 Multiplicity           Mult            ....    1
 Number of Electrons    NEL             ....   18
 Basis Dimension        Dim             ....   86

ORBITAL ENERGIES
----------------

  NO   OCC          E(Eh)            E(eV)
   0   2.0000     -19.228008      -523.2207
   1   2.0000     -10.315118      -280.6886
   2   2.0000      -1.136962       -30.9383
   3   2.0000      -0.795424       -21.6446
   4   2.0000      -0.611689       -16.6449
   5   2.0000      -0.541784       -14.7427
   6   2.0000      -0.526365       -14.3231
   7   2.0000      -0.433817       -11.8048
   8   2.0000      -0.373629       -10.1670
   9   0.0000       0.116729         3.1764
  10   0.0000       0.156709         4.2643
  11   0.0000       0.202586         5.5126
  12   0.0000       0.205113         5.5814
  13   0.0000       0.226399         6.1606

MULLIKEN ATOMIC CHARGES
-----------------------
   0 C :   -0.150853
   1 O :   -0.477542
   2 H :    0.312914
   3 H :    0.098623
   4 H :    0.118231
   5 H :    0.098627
Sum of atomic charges:    0.0000000

LOEWDIN ATOMIC CHARGES
----------------------
   0 C :   -0.385097
   1 O :   -0.075688
   2 H :    0.165289
   3 H :    0.093403
   4 H :    0.108691
   5 H :    0.093402

  Mayer bond orders larger than 0.1
B(  0-C ,  1-O ) :   0.9986 B(  0-C ,  3-H ) :   0.9755 B(  0-C ,  4-H ) :   0.9750
B(  0-C ,  5-H ) :   0.9755 B(  1-O ,  2-H ) :   0.9004

Dispersion correction           -0.000239190
FINAL SINGLE POINT ENERGY      -115.738050767854

DIPOLE MOMENT
-------------
                                X             Y             Z
Electronic contribution:      1.75615      -0.02790       0.41959
Nuclear contribution   :     -2.06605       0.47530      -0.81711
                        -----------------------------------------
Total Dipole Moment    :     -0.30990       0.44740      -0.39752
                        -----------------------------------------
Magnitude (a.u.)       :      0.67397
Magnitude (Debye)      :      1.71309

Rotational constants in cm-1:     4.294405     0.833841     0.804998
Rotational constants in MHz : 128743.013447 24997.935591 24133.235135

                             ****ORCA TERMINATED NORMALLY****
TOTAL RUN TIME: 0 days 0 hours 0 minutes 38 seconds 687 msec
