                         Program Version 4.1.2  - RELEASE  -
|  1> #Run DFT-D3 single point of the dimer
|  2> ! wB97X-D3 def2-TZVP TIGHTSCF CHELPG PMODEL PAL8
|  3>
|  4> %base "17-159_DFT_AB"
|  5>
|  6> %scf
|  7> MaxIter 1000
|  8> end
|  9>
| 10> * xyz 0 1
| 11>   C                      3.336545             -6.019057            -0.127289
| 12>   O                      2.124200             -6.692143            -0.632479
| 13>   H                      2.245712             -6.788249            -1.551181
| 14>   H                      3.279200             -5.674546            0.871108
| 15>   H                      4.169471             -6.729841            -0.125674
| 16>   H                      3.693860             -5.153305            -0.729483
| 17>   C                      1.902938             -10.183330           -0.242659
| 18>   O                      1.823261             -10.422519           -1.562865
| 19>   H                      2.198276             -9.705915            -2.126604
| 20>   H                      1.611273             -9.195077            -0.089689
| 21>   H                      1.299524             -10.887221           0.445559
| 22>   H                      2.936813             -10.214701           0.098518
| 23> *
| 24>
| 25> #Run DFT-D3 single point of the molecule with dimer basis set
| 26> $new_job
| 27> %base "17-159_DFT_A"
| 28> ! wB97X-D3 def2-TZVP TIGHTSCF CHELPG PMODEL
| 29>
| 30> %scf
| 31> MaxIter 1000
| 32> end
| 33>
| 34> * xyz 0 1
| 35>   C                      3.336545             -6.019057            -0.127289
| 36>   O                      2.124200             -6.692143            -0.632479
| 37>   H                      2.245712             -6.788249            -1.551181
| 38>   H                      3.279200             -5.674546            0.871108
| 39>   H                      4.169471             -6.729841            -0.125674
| 40>   H                      3.693860             -5.153305            -0.729483
| 41>   C                    : 1.902938             -10.183330           -0.242659
| 42>   O                    : 1.823261             -10.422519           -1.562865
| 43>   H                    : 2.198276             -9.705915            -2.126604
| 44>   H                    : 1.611273             -9.195077            -0.089689
| 45>   H                    : 1.299524             -10.887221           0.445559
| 46>   H                    : 2.936813             -10.214701           0.098518
| 47> *
| 48>
| 49> #Run DFT-D3 single point of the particle with dimer basis set
| 50> $new_job
| 51> %base "17-159_DFT_B"
| 52> ! wB97X-D3 def2-TZVP TIGHTSCF CHELPG PMODEL
| 53>
| 54> %scf
| 55> MaxIter 1000
| 56> end
| 57>
| 58> * xyz 0 1
| 59>   C                    : 3.336545             -6.019057            -0.127289
| 60>   O                    : 2.124200             -6.692143            -0.632479
| 61>   H                    : 2.245712             -6.788249            -1.551181
| 62>   H                    : 3.279200             -5.674546            0.871108
| 63>   H                    : 4.169471             -6.729841            -0.125674
| 64>   H                    : 3.693860             -5.153305            -0.729483
| 65>   C                      1.902938             -10.183330           -0.242659
| 66>   O                      1.823261             -10.422519           -1.562865
| 67>   H                      2.198276             -9.705915            -2.126604
| 68>   H                      1.611273             -9.195077            -0.089689
| 69>   H                      1.299524             -10.887221           0.445559
| 70>   H                      2.936813             -10.214701           0.098518
| 71> *
| 72>
| 73>                          ****END OF INPUT****
 Total Charge           Charge          ....    0
 Multiplicity           Mult            ....    1
 Number of Electrons    NEL             ....   36
Dispersion correction           -0.001710555
FINAL SINGLE POINT ENERGY      -231.455438818222
Dispersion correction           -0.000274012
FINAL SINGLE POINT ENERGY      -115.730376706851

CARTESIAN COORDINATES (ANGSTROEM)
---------------------------------
  C      3.336545   -6.019057   -0.127289
  O      2.124200   -6.692143   -0.632479
  H      2.245712   -6.788249   -1.551181
  H      3.279200   -5.674546    0.871108
  H      4.169471   -6.729841   -0.125674
  H      3.693860   -5.153305   -0.729483
  C      1.902938  -10.183330   -0.242659
  O      1.823261  -10.422519   -1.562865
  H      2.198276   -9.705915   -2.126604
  H      1.611273   -9.195077   -0.089689
  H      1.299524  -10.887221    0.445559
  H      2.936813  -10.214701    0.098518

 Multiplicity           Mult            ....    1
 Number of Electrons    NEL             ....   18
 Basis Dimension        Dim             ....  172

ORBITAL ENERGIES
----------------

  NO   OCC          E(Eh)            E(eV)
   0   2.0000     -19.227646      -523.2109
   1   2.0000     -10.306785      -280.4619
   2   2.0000      -1.151293       -31.3283
   3   2.0000      -0.791857       -21.5475
   4   2.0000      -0.625637       -17.0244
   5   2.0000      -0.549831       -14.9617
   6   2.0000      -0.535587       -14.5741
   7   2.0000      -0.418349       -11.3839
   8   2.0000      -0.363934        -9.9031
   9   0.0000       0.071260         1.9391
  10   0.0000       0.117805         3.2056
  11   0.0000       0.150309         4.0901
  12   0.0000       0.170674         4.6443
  13   0.0000       0.186477         5.0743

MULLIKEN ATOMIC CHARGES
-----------------------
   0 C :   -0.000527
   1 O :    0.000792
   2 H :   -0.000365
   3 H :   -0.000034
   4 H :    0.000044
   5 H :   -0.000010
   6 C :   -0.131352
   7 O :   -0.477420
   8 H :    0.325216
   9 H :    0.089307
  10 H :    0.109460
  11 H :    0.084889
Sum of atomic charges:    0.0000000

LOEWDIN ATOMIC CHARGES
----------------------
   0 C :   -0.000964
   1 O :   -0.004128
   2 H :   -0.000993
   3 H :   -0.000034
   4 H :   -0.000122
   5 H :   -0.000020
   6 C :   -0.437917
   7 O :   -0.038196
   8 H :    0.190687
   9 H :    0.082623
  10 H :    0.119202
  11 H :    0.089863

  Mayer bond orders larger than 0.1
B(  6-C ,  7-O ) :   1.0001 B(  6-C ,  9-H ) :   0.9936 B(  6-C , 10-H ) :   0.9646
B(  6-C , 11-H ) :   0.9814 B(  7-O ,  8-H ) :   0.8830

Dispersion correction           -0.000216557
FINAL SINGLE POINT ENERGY      -115.724008977956

DIPOLE MOMENT
-------------
                                X             Y             Z
Electronic contribution:     -0.23659      -0.46352      -1.77805
Nuclear contribution   :      0.50455       1.04510       1.88894
                        -----------------------------------------
Total Dipole Moment    :      0.26796       0.58157       0.11089
                        -----------------------------------------
Magnitude (a.u.)       :      0.64987
Magnitude (Debye)      :      1.65183

Rotational constants in cm-1:     4.408503     0.894292     0.851184
Rotational constants in MHz : 132163.602234 26810.190502 25517.855895

                             ****ORCA TERMINATED NORMALLY****
TOTAL RUN TIME: 0 days 0 hours 1 minutes 13 seconds 435 msec
