                         Program Version 4.1.2  - RELEASE  -
|  1> #Run DFT-D3 single point of the dimer
|  2> ! wB97X-D3 def2-TZVP TIGHTSCF CHELPG PMODEL PAL8
|  3>
|  4> %base "9-196_DFT_AB"
|  5>
|  6> %scf
|  7> MaxIter 1000
|  8> end
|  9>
| 10> * xyz 0 1
| 11>   C                      -10.197171           -6.054642            2.974912
| 12>   O                      -8.844491            -5.867952            3.255921
| 13>   H                      -8.304808            -5.932936            2.427951
| 14>   H                      -10.937768           -5.699110            3.668362
| 15>   H                      -10.469708           -5.594720            2.039846
| 16>   H                      -10.309005           -7.149130            2.842359
| 17>   C                      -6.653174            -7.874248            5.237978
| 18>   O                      -7.979225            -8.104155            4.854656
| 19>   H                      -8.288477            -7.238012            4.502890
| 20>   H                      -6.537435            -6.841876            5.437256
| 21>   H                      -6.311721            -8.503935            6.057070
| 22>   H                      -5.908444            -7.974290            4.460605
| 23> *
| 24>
| 25> #Run DFT-D3 single point of the molecule with dimer basis set
| 26> $new_job
| 27> %base "9-196_DFT_A"
| 28> ! wB97X-D3 def2-TZVP TIGHTSCF CHELPG PMODEL
| 29>
| 30> %scf
| 31> MaxIter 1000
| 32> end
| 33>
| 34> * xyz 0 1
| 35>   C                      -10.197171           -6.054642            2.974912
| 36>   O                      -8.844491            -5.867952            3.255921
| 37>   H                      -8.304808            -5.932936            2.427951
| 38>   H                      -10.937768           -5.699110            3.668362
| 39>   H                      -10.469708           -5.594720            2.039846
| 40>   H                      -10.309005           -7.149130            2.842359
| 41>   C                    : -6.653174            -7.874248            5.237978
| 42>   O                    : -7.979225            -8.104155            4.854656
| 43>   H                    : -8.288477            -7.238012            4.502890
| 44>   H                    : -6.537435            -6.841876            5.437256
| 45>   H                    : -6.311721            -8.503935            6.057070
| 46>   H                    : -5.908444            -7.974290            4.460605
| 47> *
| 48>
| 49> #Run DFT-D3 single point of the particle with dimer basis set
| 50> $new_job
| 51> %base "9-196_DFT_B"
| 52> ! wB97X-D3 def2-TZVP TIGHTSCF CHELPG PMODEL
| 53>
| 54> %scf
| 55> MaxIter 1000
| 56> end
| 57>
| 58> * xyz 0 1
| 59>   C                    : -10.197171           -6.054642            2.974912
| 60>   O                    : -8.844491            -5.867952            3.255921
| 61>   H                    : -8.304808            -5.932936            2.427951
| 62>   H                    : -10.937768           -5.699110            3.668362
| 63>   H                    : -10.469708           -5.594720            2.039846
| 64>   H                    : -10.309005           -7.149130            2.842359
| 65>   C                      -6.653174            -7.874248            5.237978
| 66>   O                      -7.979225            -8.104155            4.854656
| 67>   H                      -8.288477            -7.238012            4.502890
| 68>   H                      -6.537435            -6.841876            5.437256
| 69>   H                      -6.311721            -8.503935            6.057070
| 70>   H                      -5.908444            -7.974290            4.460605
| 71> *
| 72>
| 73>                          ****END OF INPUT****
 Total Charge           Charge          ....    0
 Multiplicity           Mult            ....    1
 Number of Electrons    NEL             ....   36
Dispersion correction           -0.001762947
FINAL SINGLE POINT ENERGY      -231.468704999659
Dispersion correction           -0.000228650
FINAL SINGLE POINT ENERGY      -115.729517762293

CARTESIAN COORDINATES (ANGSTROEM)
---------------------------------
  C    -10.197171   -6.054642    2.974912
  O     -8.844491   -5.867952    3.255921
  H     -8.304808   -5.932936    2.427951
  H    -10.937768   -5.699110    3.668362
  H    -10.469708   -5.594720    2.039846
  H    -10.309005   -7.149130    2.842359
  C     -6.653174   -7.874248    5.237978
  O     -7.979225   -8.104155    4.854656
  H     -8.288477   -7.238012    4.502890
  H     -6.537435   -6.841876    5.437256
  H     -6.311721   -8.503935    6.057070
  H     -5.908444   -7.974290    4.460605

 Multiplicity           Mult            ....    1
 Number of Electrons    NEL             ....   18
 Basis Dimension        Dim             ....  172

ORBITAL ENERGIES
----------------

  NO   OCC          E(Eh)            E(eV)
   0   2.0000     -19.235422      -523.4224
   1   2.0000     -10.306048      -280.4418
   2   2.0000      -1.140045       -31.0222
   3   2.0000      -0.797454       -21.6998
   4   2.0000      -0.619381       -16.8542
   5   2.0000      -0.538354       -14.6494
   6   2.0000      -0.532153       -14.4806
   7   2.0000      -0.440686       -11.9917
   8   2.0000      -0.370270       -10.0755
   9   0.0000       0.070913         1.9297
  10   0.0000       0.126885         3.4527
  11   0.0000       0.155844         4.2407
  12   0.0000       0.167278         4.5519
  13   0.0000       0.192848         5.2477

MULLIKEN ATOMIC CHARGES
-----------------------
   0 C :    0.000733
   1 O :   -0.004524
   2 H :   -0.000784
   3 H :   -0.000067
   4 H :    0.000131
   5 H :   -0.001998
   6 C :   -0.166254
   7 O :   -0.458392
   8 H :    0.318146
   9 H :    0.100039
  10 H :    0.119762
  11 H :    0.093208
Sum of atomic charges:    0.0000000

LOEWDIN ATOMIC CHARGES
----------------------
   0 C :   -0.006084
   1 O :   -0.019955
   2 H :   -0.002093
   3 H :   -0.000162
   4 H :   -0.000082
   5 H :   -0.001439
   6 C :   -0.397202
   7 O :   -0.061121
   8 H :    0.200418
   9 H :    0.090310
  10 H :    0.106192
  11 H :    0.091217

  Mayer bond orders larger than 0.1
B(  6-C ,  7-O ) :   1.0095 B(  6-C ,  9-H ) :   0.9960 B(  6-C , 10-H ) :   0.9760
B(  6-C , 11-H ) :   0.9681 B(  7-O ,  8-H ) :   0.8984

Dispersion correction           -0.000228342
FINAL SINGLE POINT ENERGY      -115.729706230554

DIPOLE MOMENT
-------------
                                X             Y             Z
Electronic contribution:     -1.79277      -0.55209      -0.37336
Nuclear contribution   :      2.11968       1.19865       0.31044
                        -----------------------------------------
Total Dipole Moment    :      0.32691       0.64656      -0.06293
                        -----------------------------------------
Magnitude (a.u.)       :      0.72723
Magnitude (Debye)      :      1.84847

Rotational constants in cm-1:     4.446767     0.852078     0.806352
Rotational constants in MHz : 133310.710025 25544.661200 24173.817041

                             ****ORCA TERMINATED NORMALLY****
TOTAL RUN TIME: 0 days 0 hours 0 minutes 45 seconds 121 msec
