                         Program Version 4.1.2  - RELEASE  -
|  1> #Run DFT-D3 single point of the dimer
|  2> ! wB97X-D3 def2-TZVP TIGHTSCF CHELPG PMODEL PAL8
|  3>
|  4> %base "20-11_DFT_AB"
|  5>
|  6> %scf
|  7> MaxIter 1000
|  8> end
|  9>
| 10> * xyz 0 1
| 11>   C                      -3.541612            8.218738             -6.097579
| 12>   O                      -2.500026            7.841059             -5.165467
| 13>   H                      -2.808424            8.091062             -4.276652
| 14>   H                      -4.504519            8.175344             -5.636522
| 15>   H                      -3.270904            9.255707             -6.480989
| 16>   H                      -3.586497            7.616042             -6.948879
| 17>   C                      -5.507816            9.093960             -10.246131
| 18>   O                      -5.598249            10.443711            -10.592455
| 19>   H                      -6.213391            10.513138            -11.299832
| 20>   H                      -5.040172            8.561496             -11.124314
| 21>   H                      -4.867908            8.952891             -9.366342
| 22>   H                      -6.523370            8.727956             -10.124141
| 23> *
| 24>
| 25> #Run DFT-D3 single point of the molecule with dimer basis set
| 26> $new_job
| 27> %base "20-11_DFT_A"
| 28> ! wB97X-D3 def2-TZVP TIGHTSCF CHELPG PMODEL
| 29>
| 30> %scf
| 31> MaxIter 1000
| 32> end
| 33>
| 34> * xyz 0 1
| 35>   C                      -3.541612            8.218738             -6.097579
| 36>   O                      -2.500026            7.841059             -5.165467
| 37>   H                      -2.808424            8.091062             -4.276652
| 38>   H                      -4.504519            8.175344             -5.636522
| 39>   H                      -3.270904            9.255707             -6.480989
| 40>   H                      -3.586497            7.616042             -6.948879
| 41>   C                    : -5.507816            9.093960             -10.246131
| 42>   O                    : -5.598249            10.443711            -10.592455
| 43>   H                    : -6.213391            10.513138            -11.299832
| 44>   H                    : -5.040172            8.561496             -11.124314
| 45>   H                    : -4.867908            8.952891             -9.366342
| 46>   H                    : -6.523370            8.727956             -10.124141
| 47> *
| 48>
| 49> #Run DFT-D3 single point of the particle with dimer basis set
| 50> $new_job
| 51> %base "20-11_DFT_B"
| 52> ! wB97X-D3 def2-TZVP TIGHTSCF CHELPG PMODEL
| 53>
| 54> %scf
| 55> MaxIter 1000
| 56> end
| 57>
| 58> * xyz 0 1
| 59>   C                    : -3.541612            8.218738             -6.097579
| 60>   O                    : -2.500026            7.841059             -5.165467
| 61>   H                    : -2.808424            8.091062             -4.276652
| 62>   H                    : -4.504519            8.175344             -5.636522
| 63>   H                    : -3.270904            9.255707             -6.480989
| 64>   H                    : -3.586497            7.616042             -6.948879
| 65>   C                      -5.507816            9.093960             -10.246131
| 66>   O                      -5.598249            10.443711            -10.592455
| 67>   H                      -6.213391            10.513138            -11.299832
| 68>   H                      -5.040172            8.561496             -11.124314
| 69>   H                      -4.867908            8.952891             -9.366342
| 70>   H                      -6.523370            8.727956             -10.124141
| 71> *
| 72>
| 73>                          ****END OF INPUT****
 Total Charge           Charge          ....    0
 Multiplicity           Mult            ....    1
 Number of Electrons    NEL             ....   36
Dispersion correction           -0.000925179
FINAL SINGLE POINT ENERGY      -231.464285800966
Dispersion correction           -0.000249729
FINAL SINGLE POINT ENERGY      -115.730635641383

CARTESIAN COORDINATES (ANGSTROEM)
---------------------------------
  C     -3.541612    8.218738   -6.097579
  O     -2.500026    7.841059   -5.165467
  H     -2.808424    8.091062   -4.276652
  H     -4.504519    8.175344   -5.636522
  H     -3.270904    9.255707   -6.480989
  H     -3.586497    7.616042   -6.948879
  C     -5.507816    9.093960  -10.246131
  O     -5.598249   10.443711  -10.592455
  H     -6.213391   10.513138  -11.299832
  H     -5.040172    8.561496  -11.124314
  H     -4.867908    8.952891   -9.366342
  H     -6.523370    8.727956  -10.124141

 Multiplicity           Mult            ....    1
 Number of Electrons    NEL             ....   18
 Basis Dimension        Dim             ....  172

ORBITAL ENERGIES
----------------

  NO   OCC          E(Eh)            E(eV)
   0   2.0000     -19.223691      -523.1032
   1   2.0000     -10.315092      -280.6879
   2   2.0000      -1.144987       -31.1567
   3   2.0000      -0.791892       -21.5485
   4   2.0000      -0.613348       -16.6900
   5   2.0000      -0.544102       -14.8058
   6   2.0000      -0.533549       -14.5186
   7   2.0000      -0.433022       -11.7831
   8   2.0000      -0.367283        -9.9943
   9   0.0000       0.085799         2.3347
  10   0.0000       0.115722         3.1490
  11   0.0000       0.146486         3.9861
  12   0.0000       0.177668         4.8346
  13   0.0000       0.194484         5.2922

MULLIKEN ATOMIC CHARGES
-----------------------
   0 C :   -0.000007
   1 O :    0.000004
   2 H :    0.000001
   3 H :   -0.000055
   4 H :    0.000028
   5 H :   -0.000256
   6 C :   -0.159855
   7 O :   -0.469625
   8 H :    0.310681
   9 H :    0.093181
  10 H :    0.125248
  11 H :    0.100653
Sum of atomic charges:    0.0000000

LOEWDIN ATOMIC CHARGES
----------------------
   0 C :   -0.001055
   1 O :   -0.000004
   2 H :   -0.000002
   3 H :   -0.000030
   4 H :   -0.000196
   5 H :   -0.000594
   6 C :   -0.394347
   7 O :   -0.062047
   8 H :    0.156504
   9 H :    0.099099
  10 H :    0.109571
  11 H :    0.093101

  Mayer bond orders larger than 0.1
B(  6-C ,  7-O ) :   0.9943 B(  6-C ,  9-H ) :   0.9801 B(  6-C , 10-H ) :   0.9696
B(  6-C , 11-H ) :   0.9838 B(  7-O ,  8-H ) :   0.9040

Dispersion correction           -0.000208664
FINAL SINGLE POINT ENERGY      -115.733247499379

DIPOLE MOMENT
-------------
                                X             Y             Z
Electronic contribution:     -0.02816       1.73613      -0.18906
Nuclear contribution   :     -0.33414      -2.20796      -0.11600
                        -----------------------------------------
Total Dipole Moment    :     -0.36230      -0.47183      -0.30506
                        -----------------------------------------
Magnitude (a.u.)       :      0.66854
Magnitude (Debye)      :      1.69930

Rotational constants in cm-1:     4.162905     0.860435     0.826610
Rotational constants in MHz : 124800.754263 25795.202148 24781.147300

                             ****ORCA TERMINATED NORMALLY****
TOTAL RUN TIME: 0 days 0 hours 0 minutes 54 seconds 100 msec
