                         Program Version 4.1.2  - RELEASE  -
|  1> #Run DFT-D3 single point of the dimer
|  2> ! wB97X-D3 def2-TZVP TIGHTSCF CHELPG PMODEL PAL8
|  3>
|  4> %base "20-125_DFT_AB"
|  5>
|  6> %scf
|  7> MaxIter 1000
|  8> end
|  9>
| 10> * xyz 0 1
| 11>   C                      -1.761067            5.722091             -2.002277
| 12>   O                      -1.949604            4.450320             -2.319201
| 13>   H                      -2.743328            3.992807             -2.075747
| 14>   H                      -2.692750            6.144057             -1.678658
| 15>   H                      -0.954174            5.871586             -1.341224
| 16>   H                      -1.561292            6.309232             -2.952997
| 17>   C                      -3.434642            10.098755            -2.541995
| 18>   O                      -2.486791            9.020784             -2.459724
| 19>   H                      -1.622324            9.363562             -2.421603
| 20>   H                      -4.241317            9.969688             -1.871554
| 21>   H                      -2.977795            11.011380            -2.118214
| 22>   H                      -3.871249            10.220332            -3.510029
| 23> *
| 24>
| 25> #Run DFT-D3 single point of the molecule with dimer basis set
| 26> $new_job
| 27> %base "20-125_DFT_A"
| 28> ! wB97X-D3 def2-TZVP TIGHTSCF CHELPG PMODEL
| 29>
| 30> %scf
| 31> MaxIter 1000
| 32> end
| 33>
| 34> * xyz 0 1
| 35>   C                      -1.761067            5.722091             -2.002277
| 36>   O                      -1.949604            4.450320             -2.319201
| 37>   H                      -2.743328            3.992807             -2.075747
| 38>   H                      -2.692750            6.144057             -1.678658
| 39>   H                      -0.954174            5.871586             -1.341224
| 40>   H                      -1.561292            6.309232             -2.952997
| 41>   C                    : -3.434642            10.098755            -2.541995
| 42>   O                    : -2.486791            9.020784             -2.459724
| 43>   H                    : -1.622324            9.363562             -2.421603
| 44>   H                    : -4.241317            9.969688             -1.871554
| 45>   H                    : -2.977795            11.011380            -2.118214
| 46>   H                    : -3.871249            10.220332            -3.510029
| 47> *
| 48>
| 49> #Run DFT-D3 single point of the particle with dimer basis set
| 50> $new_job
| 51> %base "20-125_DFT_B"
| 52> ! wB97X-D3 def2-TZVP TIGHTSCF CHELPG PMODEL
| 53>
| 54> %scf
| 55> MaxIter 1000
| 56> end
| 57>
| 58> * xyz 0 1
| 59>   C                    : -1.761067            5.722091             -2.002277
| 60>   O                    : -1.949604            4.450320             -2.319201
| 61>   H                    : -2.743328            3.992807             -2.075747
| 62>   H                    : -2.692750            6.144057             -1.678658
| 63>   H                    : -0.954174            5.871586             -1.341224
| 64>   H                    : -1.561292            6.309232             -2.952997
| 65>   C                      -3.434642            10.098755            -2.541995
| 66>   O                      -2.486791            9.020784             -2.459724
| 67>   H                      -1.622324            9.363562             -2.421603
| 68>   H                      -4.241317            9.969688             -1.871554
| 69>   H                      -2.977795            11.011380            -2.118214
| 70>   H                      -3.871249            10.220332            -3.510029
| 71> *
| 72>
| 73>                          ****END OF INPUT****
 Total Charge           Charge          ....    0
 Multiplicity           Mult            ....    1
 Number of Electrons    NEL             ....   36
Dispersion correction           -0.001400545
FINAL SINGLE POINT ENERGY      -231.455032447390
Dispersion correction           -0.000226593
FINAL SINGLE POINT ENERGY      -115.723077750905

CARTESIAN COORDINATES (ANGSTROEM)
---------------------------------
  C     -1.761067    5.722091   -2.002277
  O     -1.949604    4.450320   -2.319201
  H     -2.743328    3.992807   -2.075747
  H     -2.692750    6.144057   -1.678658
  H     -0.954174    5.871586   -1.341224
  H     -1.561292    6.309232   -2.952997
  C     -3.434642   10.098755   -2.541995
  O     -2.486791    9.020784   -2.459724
  H     -1.622324    9.363562   -2.421603
  H     -4.241317    9.969688   -1.871554
  H     -2.977795   11.011380   -2.118214
  H     -3.871249   10.220332   -3.510029

 Multiplicity           Mult            ....    1
 Number of Electrons    NEL             ....   18
 Basis Dimension        Dim             ....  172

ORBITAL ENERGIES
----------------

  NO   OCC          E(Eh)            E(eV)
   0   2.0000     -19.226726      -523.1858
   1   2.0000     -10.310451      -280.5616
   2   2.0000      -1.133574       -30.8461
   3   2.0000      -0.805902       -21.9297
   4   2.0000      -0.609448       -16.5839
   5   2.0000      -0.548441       -14.9238
   6   2.0000      -0.528758       -14.3882
   7   2.0000      -0.427664       -11.6373
   8   2.0000      -0.378545       -10.3007
   9   0.0000       0.097981         2.6662
  10   0.0000       0.122550         3.3347
  11   0.0000       0.152593         4.1523
  12   0.0000       0.184710         5.0262
  13   0.0000       0.196486         5.3466

MULLIKEN ATOMIC CHARGES
-----------------------
   0 C :    0.007982
   1 O :   -0.000213
   2 H :   -0.000031
   3 H :   -0.005988
   4 H :   -0.001216
   5 H :   -0.007186
   6 C :   -0.165189
   7 O :   -0.469746
   8 H :    0.313053
   9 H :    0.117099
  10 H :    0.099971
  11 H :    0.111465
Sum of atomic charges:    0.0000000

LOEWDIN ATOMIC CHARGES
----------------------
   0 C :   -0.008290
   1 O :   -0.000051
   2 H :   -0.000006
   3 H :   -0.003563
   4 H :   -0.000285
   5 H :   -0.004337
   6 C :   -0.357912
   7 O :   -0.067567
   8 H :    0.148355
   9 H :    0.096412
  10 H :    0.103139
  11 H :    0.094106

  Mayer bond orders larger than 0.1
B(  6-C ,  7-O ) :   1.0068 B(  6-C ,  9-H ) :   0.9761 B(  6-C , 10-H ) :   0.9860
B(  6-C , 11-H ) :   0.9735 B(  7-O ,  8-H ) :   0.9045

Dispersion correction           -0.000253835
FINAL SINGLE POINT ENERGY      -115.730814123013

DIPOLE MOMENT
-------------
                                X             Y             Z
Electronic contribution:      1.08112      -1.45357      -0.02631
Nuclear contribution   :     -0.92817       2.15119       0.04856
                        -----------------------------------------
Total Dipole Moment    :      0.15295       0.69762       0.02225
                        -----------------------------------------
Magnitude (a.u.)       :      0.71453
Magnitude (Debye)      :      1.81620

Rotational constants in cm-1:     4.525831     0.807230     0.781685
Rotational constants in MHz : 135681.003453 24200.154018 23434.321959

                             ****ORCA TERMINATED NORMALLY****
TOTAL RUN TIME: 0 days 0 hours 1 minutes 5 seconds 802 msec
