                         Program Version 4.1.2  - RELEASE  -
|  1> #Run DFT-D3 single point of the dimer
|  2> ! wB97X-D3 def2-TZVP TIGHTSCF CHELPG PMODEL PAL8
|  3>
|  4> %base "14-75_DFT_AB"
|  5>
|  6> %scf
|  7> MaxIter 1000
|  8> end
|  9>
| 10> * xyz 0 1
| 11>   C                      -7.703937            4.864431             7.544231
| 12>   O                      -8.044865            6.226566             7.754114
| 13>   H                      -8.552644            6.657544             7.051836
| 14>   H                      -8.567473            4.275343             7.272627
| 15>   H                      -6.941389            4.675493             6.753926
| 16>   H                      -7.290078            4.411499             8.488377
| 17>   C                      -10.227395           2.205635             9.249430
| 18>   O                      -10.019707           3.565677             9.528346
| 19>   H                      -10.827696           4.084784             9.352175
| 20>   H                      -11.071016           1.710017             9.693427
| 21>   H                      -10.190075           2.018991             8.147361
| 22>   H                      -9.331349            1.640409             9.647245
| 23> *
| 24>
| 25> #Run DFT-D3 single point of the molecule with dimer basis set
| 26> $new_job
| 27> %base "14-75_DFT_A"
| 28> ! wB97X-D3 def2-TZVP TIGHTSCF CHELPG PMODEL
| 29>
| 30> %scf
| 31> MaxIter 1000
| 32> end
| 33>
| 34> * xyz 0 1
| 35>   C                      -7.703937            4.864431             7.544231
| 36>   O                      -8.044865            6.226566             7.754114
| 37>   H                      -8.552644            6.657544             7.051836
| 38>   H                      -8.567473            4.275343             7.272627
| 39>   H                      -6.941389            4.675493             6.753926
| 40>   H                      -7.290078            4.411499             8.488377
| 41>   C                    : -10.227395           2.205635             9.249430
| 42>   O                    : -10.019707           3.565677             9.528346
| 43>   H                    : -10.827696           4.084784             9.352175
| 44>   H                    : -11.071016           1.710017             9.693427
| 45>   H                    : -10.190075           2.018991             8.147361
| 46>   H                    : -9.331349            1.640409             9.647245
| 47> *
| 48>
| 49> #Run DFT-D3 single point of the particle with dimer basis set
| 50> $new_job
| 51> %base "14-75_DFT_B"
| 52> ! wB97X-D3 def2-TZVP TIGHTSCF CHELPG PMODEL
| 53>
| 54> %scf
| 55> MaxIter 1000
| 56> end
| 57>
| 58> * xyz 0 1
| 59>   C                    : -7.703937            4.864431             7.544231
| 60>   O                    : -8.044865            6.226566             7.754114
| 61>   H                    : -8.552644            6.657544             7.051836
| 62>   H                    : -8.567473            4.275343             7.272627
| 63>   H                    : -6.941389            4.675493             6.753926
| 64>   H                    : -7.290078            4.411499             8.488377
| 65>   C                      -10.227395           2.205635             9.249430
| 66>   O                      -10.019707           3.565677             9.528346
| 67>   H                      -10.827696           4.084784             9.352175
| 68>   H                      -11.071016           1.710017             9.693427
| 69>   H                      -10.190075           2.018991             8.147361
| 70>   H                      -9.331349            1.640409             9.647245
| 71> *
| 72>
| 73>                          ****END OF INPUT****
 Total Charge           Charge          ....    0
 Multiplicity           Mult            ....    1
 Number of Electrons    NEL             ....   36
Dispersion correction           -0.001880313
FINAL SINGLE POINT ENERGY      -231.468018828295
Dispersion correction           -0.000279199
FINAL SINGLE POINT ENERGY      -115.733568401788

CARTESIAN COORDINATES (ANGSTROEM)
---------------------------------
  C     -7.703937    4.864431    7.544231
  O     -8.044865    6.226566    7.754114
  H     -8.552644    6.657544    7.051836
  H     -8.567473    4.275343    7.272627
  H     -6.941389    4.675493    6.753926
  H     -7.290078    4.411499    8.488377
  C    -10.227395    2.205635    9.249430
  O    -10.019707    3.565677    9.528346
  H    -10.827696    4.084784    9.352175
  H    -11.071016    1.710017    9.693427
  H    -10.190075    2.018991    8.147361
  H     -9.331349    1.640409    9.647245

 Multiplicity           Mult            ....    1
 Number of Electrons    NEL             ....   18
 Basis Dimension        Dim             ....  172

ORBITAL ENERGIES
----------------

  NO   OCC          E(Eh)            E(eV)
   0   2.0000     -19.234439      -523.3957
   1   2.0000     -10.316038      -280.7137
   2   2.0000      -1.136187       -30.9172
   3   2.0000      -0.793363       -21.5885
   4   2.0000      -0.613500       -16.6942
   5   2.0000      -0.542472       -14.7614
   6   2.0000      -0.521894       -14.2014
   7   2.0000      -0.427233       -11.6256
   8   2.0000      -0.375107       -10.2072
   9   0.0000       0.092696         2.5224
  10   0.0000       0.126917         3.4536
  11   0.0000       0.145639         3.9630
  12   0.0000       0.173980         4.7342
  13   0.0000       0.189577         5.1587

MULLIKEN ATOMIC CHARGES
-----------------------
   0 C :    0.011003
   1 O :   -0.000895
   2 H :   -0.000192
   3 H :   -0.009980
   4 H :   -0.000334
   5 H :   -0.004063
   6 C :   -0.168278
   7 O :   -0.474421
   8 H :    0.317449
   9 H :    0.112517
  10 H :    0.100928
  11 H :    0.116266
Sum of atomic charges:    0.0000000

LOEWDIN ATOMIC CHARGES
----------------------
   0 C :   -0.010914
   1 O :   -0.000177
   2 H :   -0.000071
   3 H :   -0.005507
   4 H :   -0.000119
   5 H :   -0.002515
   6 C :   -0.405016
   7 O :   -0.060175
   8 H :    0.178451
   9 H :    0.090333
  10 H :    0.098440
  11 H :    0.117270

  Mayer bond orders larger than 0.1
B(  6-C ,  7-O ) :   1.0005 B(  6-C ,  9-H ) :   0.9658 B(  6-C , 10-H ) :   0.9775
B(  6-C , 11-H ) :   0.9758 B(  7-O ,  8-H ) :   0.8920

Dispersion correction           -0.000265563
FINAL SINGLE POINT ENERGY      -115.734036456368

DIPOLE MOMENT
-------------
                                X             Y             Z
Electronic contribution:      0.20407       1.81346       0.45823
Nuclear contribution   :     -0.80610      -2.02060      -0.64967
                        -----------------------------------------
Total Dipole Moment    :     -0.60204      -0.20714      -0.19143
                        -----------------------------------------
Magnitude (a.u.)       :      0.66483
Magnitude (Debye)      :      1.68987

Rotational constants in cm-1:     4.294597     0.825463     0.800814
Rotational constants in MHz : 128748.790698 24746.748822 24007.805749

                             ****ORCA TERMINATED NORMALLY****
TOTAL RUN TIME: 0 days 0 hours 0 minutes 56 seconds 44 msec
