                         Program Version 4.1.2  - RELEASE  -
|  1> #Run DFT-D3 single point of the dimer
|  2> ! wB97X-D3 def2-TZVP TIGHTSCF CHELPG PMODEL PAL8
|  3>
|  4> %base "15-18_DFT_AB"
|  5>
|  6> %scf
|  7> MaxIter 1000
|  8> end
|  9>
| 10> * xyz 0 1
| 11>   C                      -9.116109            5.828608             -3.149760
| 12>   O                      -8.666366            7.180685             -3.469790
| 13>   H                      -8.814491            7.394887             -4.363041
| 14>   H                      -9.459913            5.864401             -2.148955
| 15>   H                      -9.944737            5.470337             -3.807818
| 16>   H                      -8.309017            5.140862             -3.188582
| 17>   C                      -8.482336            3.409481             0.379262
| 18>   O                      -7.450749            2.393188             0.474597
| 19>   H                      -6.656089            2.897853             0.263945
| 20>   H                      -9.010186            3.507368             -0.567362
| 21>   H                      -9.215828            3.232609             1.167899
| 22>   H                      -8.031442            4.337339             0.588164
| 23> *
| 24>
| 25> #Run DFT-D3 single point of the molecule with dimer basis set
| 26> $new_job
| 27> %base "15-18_DFT_A"
| 28> ! wB97X-D3 def2-TZVP TIGHTSCF CHELPG PMODEL
| 29>
| 30> %scf
| 31> MaxIter 1000
| 32> end
| 33>
| 34> * xyz 0 1
| 35>   C                      -9.116109            5.828608             -3.149760
| 36>   O                      -8.666366            7.180685             -3.469790
| 37>   H                      -8.814491            7.394887             -4.363041
| 38>   H                      -9.459913            5.864401             -2.148955
| 39>   H                      -9.944737            5.470337             -3.807818
| 40>   H                      -8.309017            5.140862             -3.188582
| 41>   C                    : -8.482336            3.409481             0.379262
| 42>   O                    : -7.450749            2.393188             0.474597
| 43>   H                    : -6.656089            2.897853             0.263945
| 44>   H                    : -9.010186            3.507368             -0.567362
| 45>   H                    : -9.215828            3.232609             1.167899
| 46>   H                    : -8.031442            4.337339             0.588164
| 47> *
| 48>
| 49> #Run DFT-D3 single point of the particle with dimer basis set
| 50> $new_job
| 51> %base "15-18_DFT_B"
| 52> ! wB97X-D3 def2-TZVP TIGHTSCF CHELPG PMODEL
| 53>
| 54> %scf
| 55> MaxIter 1000
| 56> end
| 57>
| 58> * xyz 0 1
| 59>   C                    : -9.116109            5.828608             -3.149760
| 60>   O                    : -8.666366            7.180685             -3.469790
| 61>   H                    : -8.814491            7.394887             -4.363041
| 62>   H                    : -9.459913            5.864401             -2.148955
| 63>   H                    : -9.944737            5.470337             -3.807818
| 64>   H                    : -8.309017            5.140862             -3.188582
| 65>   C                      -8.482336            3.409481             0.379262
| 66>   O                      -7.450749            2.393188             0.474597
| 67>   H                      -6.656089            2.897853             0.263945
| 68>   H                      -9.010186            3.507368             -0.567362
| 69>   H                      -9.215828            3.232609             1.167899
| 70>   H                      -8.031442            4.337339             0.588164
| 71> *
| 72>
| 73>                          ****END OF INPUT****
 Total Charge           Charge          ....    0
 Multiplicity           Mult            ....    1
 Number of Electrons    NEL             ....   36
Dispersion correction           -0.001191055
FINAL SINGLE POINT ENERGY      -231.464983021255
Dispersion correction           -0.000266839
FINAL SINGLE POINT ENERGY      -115.732578015834

CARTESIAN COORDINATES (ANGSTROEM)
---------------------------------
  C     -9.116109    5.828608   -3.149760
  O     -8.666366    7.180685   -3.469790
  H     -8.814491    7.394887   -4.363041
  H     -9.459913    5.864401   -2.148955
  H     -9.944737    5.470337   -3.807818
  H     -8.309017    5.140862   -3.188582
  C     -8.482336    3.409481    0.379262
  O     -7.450749    2.393188    0.474597
  H     -6.656089    2.897853    0.263945
  H     -9.010186    3.507368   -0.567362
  H     -9.215828    3.232609    1.167899
  H     -8.031442    4.337339    0.588164

 Multiplicity           Mult            ....    1
 Number of Electrons    NEL             ....   18
 Basis Dimension        Dim             ....  172

ORBITAL ENERGIES
----------------

  NO   OCC          E(Eh)            E(eV)
   0   2.0000     -19.232315      -523.3379
   1   2.0000     -10.310595      -280.5655
   2   2.0000      -1.128506       -30.7082
   3   2.0000      -0.798627       -21.7317
   4   2.0000      -0.606564       -16.5055
   5   2.0000      -0.540618       -14.7110
   6   2.0000      -0.522522       -14.2185
   7   2.0000      -0.441982       -12.0269
   8   2.0000      -0.377245       -10.2654
   9   0.0000       0.080646         2.1945
  10   0.0000       0.113437         3.0868
  11   0.0000       0.142523         3.8782
  12   0.0000       0.172699         4.6994
  13   0.0000       0.188361         5.1256

MULLIKEN ATOMIC CHARGES
-----------------------
   0 C :    0.000071
   1 O :   -0.000008
   2 H :   -0.000000
   3 H :   -0.001445
   4 H :   -0.000085
   5 H :    0.000465
   6 C :   -0.180656
   7 O :   -0.465976
   8 H :    0.312839
   9 H :    0.108893
  10 H :    0.118792
  11 H :    0.107112
Sum of atomic charges:   -0.0000000

LOEWDIN ATOMIC CHARGES
----------------------
   0 C :   -0.001805
   1 O :   -0.000007
   2 H :   -0.000004
   3 H :   -0.001266
   4 H :   -0.000025
   5 H :   -0.000310
   6 C :   -0.357321
   7 O :   -0.102558
   8 H :    0.171161
   9 H :    0.096500
  10 H :    0.106290
  11 H :    0.089344

  Mayer bond orders larger than 0.1
B(  6-C ,  7-O ) :   1.0115 B(  6-C ,  9-H ) :   0.9654 B(  6-C , 10-H ) :   0.9771
B(  6-C , 11-H ) :   0.9911 B(  7-O ,  8-H ) :   0.9056

Dispersion correction           -0.000245112
FINAL SINGLE POINT ENERGY      -115.731675428267

DIPOLE MOMENT
-------------
                                X             Y             Z
Electronic contribution:      1.17856      -1.42117       0.08098
Nuclear contribution   :     -1.09272       2.17321      -0.23072
                        -----------------------------------------
Total Dipole Moment    :      0.08584       0.75203      -0.14974
                        -----------------------------------------
Magnitude (a.u.)       :      0.77159
Magnitude (Debye)      :      1.96122

Rotational constants in cm-1:     4.373478     0.803790     0.775586
Rotational constants in MHz : 131113.575643 24097.014757 23251.483737

                             ****ORCA TERMINATED NORMALLY****
TOTAL RUN TIME: 0 days 0 hours 0 minutes 54 seconds 683 msec
