                         Program Version 4.1.2  - RELEASE  -
|  1> #Run DFT-D3 single point of the dimer
|  2> ! wB97X-D3 def2-TZVP TIGHTSCF CHELPG PMODEL PAL8
|  3>
|  4> %base "16-170_DFT_AB"
|  5>
|  6> %scf
|  7> MaxIter 1000
|  8> end
|  9>
| 10> * xyz 0 1
| 11>   C                      5.117424             -2.071399            -8.564140
| 12>   O                      4.599558             -0.856019            -8.973376
| 13>   H                      4.408494             -0.424561            -8.153434
| 14>   H                      6.191470             -2.058312            -8.424507
| 15>   H                      4.655384             -2.305596            -7.619523
| 16>   H                      4.799643             -2.869894            -9.222142
| 17>   C                      6.138775             1.105410             -6.550989
| 18>   O                      4.848622             0.624918             -6.810171
| 19>   H                      4.246071             1.217651             -6.369775
| 20>   H                      6.329343             0.969225             -5.450410
| 21>   H                      6.799628             0.397577             -7.016951
| 22>   H                      6.253958             2.163259             -6.958496
| 23> *
| 24>
| 25> #Run DFT-D3 single point of the molecule with dimer basis set
| 26> $new_job
| 27> %base "16-170_DFT_A"
| 28> ! wB97X-D3 def2-TZVP TIGHTSCF CHELPG PMODEL
| 29>
| 30> %scf
| 31> MaxIter 1000
| 32> end
| 33>
| 34> * xyz 0 1
| 35>   C                      5.117424             -2.071399            -8.564140
| 36>   O                      4.599558             -0.856019            -8.973376
| 37>   H                      4.408494             -0.424561            -8.153434
| 38>   H                      6.191470             -2.058312            -8.424507
| 39>   H                      4.655384             -2.305596            -7.619523
| 40>   H                      4.799643             -2.869894            -9.222142
| 41>   C                    : 6.138775             1.105410             -6.550989
| 42>   O                    : 4.848622             0.624918             -6.810171
| 43>   H                    : 4.246071             1.217651             -6.369775
| 44>   H                    : 6.329343             0.969225             -5.450410
| 45>   H                    : 6.799628             0.397577             -7.016951
| 46>   H                    : 6.253958             2.163259             -6.958496
| 47> *
| 48>
| 49> #Run DFT-D3 single point of the particle with dimer basis set
| 50> $new_job
| 51> %base "16-170_DFT_B"
| 52> ! wB97X-D3 def2-TZVP TIGHTSCF CHELPG PMODEL
| 53>
| 54> %scf
| 55> MaxIter 1000
| 56> end
| 57>
| 58> * xyz 0 1
| 59>   C                    : 5.117424             -2.071399            -8.564140
| 60>   O                    : 4.599558             -0.856019            -8.973376
| 61>   H                    : 4.408494             -0.424561            -8.153434
| 62>   H                    : 6.191470             -2.058312            -8.424507
| 63>   H                    : 4.655384             -2.305596            -7.619523
| 64>   H                    : 4.799643             -2.869894            -9.222142
| 65>   C                      6.138775             1.105410             -6.550989
| 66>   O                      4.848622             0.624918             -6.810171
| 67>   H                      4.246071             1.217651             -6.369775
| 68>   H                      6.329343             0.969225             -5.450410
| 69>   H                      6.799628             0.397577             -7.016951
| 70>   H                      6.253958             2.163259             -6.958496
| 71> *
| 72>
| 73>                          ****END OF INPUT****
 Total Charge           Charge          ....    0
 Multiplicity           Mult            ....    1
 Number of Electrons    NEL             ....   36
Dispersion correction           -0.002064558
FINAL SINGLE POINT ENERGY      -231.471961181898
Dispersion correction           -0.000206407
FINAL SINGLE POINT ENERGY      -115.732725231145

CARTESIAN COORDINATES (ANGSTROEM)
---------------------------------
  C      5.117424   -2.071399   -8.564140
  O      4.599558   -0.856019   -8.973376
  H      4.408494   -0.424561   -8.153434
  H      6.191470   -2.058312   -8.424507
  H      4.655384   -2.305596   -7.619523
  H      4.799643   -2.869894   -9.222142
  C      6.138775    1.105410   -6.550989
  O      4.848622    0.624918   -6.810171
  H      4.246071    1.217651   -6.369775
  H      6.329343    0.969225   -5.450410
  H      6.799628    0.397577   -7.016951
  H      6.253958    2.163259   -6.958496

 Multiplicity           Mult            ....    1
 Number of Electrons    NEL             ....   18
 Basis Dimension        Dim             ....  172

ORBITAL ENERGIES
----------------

  NO   OCC          E(Eh)            E(eV)
   0   2.0000     -19.227994      -523.2203
   1   2.0000     -10.317628      -280.7569
   2   2.0000      -1.142826       -31.0979
   3   2.0000      -0.790380       -21.5073
   4   2.0000      -0.606404       -16.5011
   5   2.0000      -0.549173       -14.9438
   6   2.0000      -0.527064       -14.3421
   7   2.0000      -0.431371       -11.7382
   8   2.0000      -0.372235       -10.1290
   9   0.0000       0.099371         2.7040
  10   0.0000       0.127328         3.4648
  11   0.0000       0.156453         4.2573
  12   0.0000       0.189470         5.1557
  13   0.0000       0.196106         5.3363

MULLIKEN ATOMIC CHARGES
-----------------------
   0 C :    0.005624
   1 O :    0.000349
   2 H :   -0.010065
   3 H :   -0.001180
   4 H :   -0.004723
   5 H :   -0.000324
   6 C :   -0.155028
   7 O :   -0.464958
   8 H :    0.309370
   9 H :    0.098854
  10 H :    0.120002
  11 H :    0.102081
Sum of atomic charges:   -0.0000000

LOEWDIN ATOMIC CHARGES
----------------------
   0 C :   -0.006356
   1 O :   -0.011078
   2 H :   -0.061961
   3 H :   -0.000651
   4 H :   -0.002104
   5 H :   -0.000060
   6 C :   -0.393479
   7 O :   -0.001177
   8 H :    0.164114
   9 H :    0.102566
  10 H :    0.105543
  11 H :    0.104643

  Mayer bond orders larger than 0.1
B(  6-C ,  7-O ) :   0.9871 B(  6-C ,  9-H ) :   0.9739 B(  6-C , 10-H ) :   0.9789
B(  6-C , 11-H ) :   0.9701 B(  7-O ,  8-H ) :   0.9014

Dispersion correction           -0.000222734
FINAL SINGLE POINT ENERGY      -115.732841655183

DIPOLE MOMENT
-------------
                                X             Y             Z
Electronic contribution:     -1.52630      -0.63581      -0.44783
Nuclear contribution   :      1.64882       1.16404       0.81842
                        -----------------------------------------
Total Dipole Moment    :      0.12252       0.52823       0.37058
                        -----------------------------------------
Magnitude (a.u.)       :      0.65679
Magnitude (Debye)      :      1.66943

Rotational constants in cm-1:     4.040046     0.851073     0.829410
Rotational constants in MHz : 121117.534551 25514.518560 24865.077048

                             ****ORCA TERMINATED NORMALLY****
TOTAL RUN TIME: 0 days 0 hours 1 minutes 9 seconds 705 msec
