                         Program Version 4.1.2  - RELEASE  -
|  1> #Run DFT-D3 single point of the dimer
|  2> ! wB97X-D3 def2-TZVP TIGHTSCF CHELPG PMODEL PAL8
|  3>
|  4> %base "13-140_DFT_AB"
|  5>
|  6> %scf
|  7> MaxIter 1000
|  8> end
|  9>
| 10> * xyz 0 1
| 11>   C                      -2.561850            8.333009             5.793317
| 12>   O                      -3.098374            7.684261             4.668960
| 13>   H                      -2.260752            7.229011             4.369283
| 14>   H                      -1.504505            8.534680             5.701477
| 15>   H                      -3.050513            9.317847             5.958538
| 16>   H                      -2.651462            7.682936             6.685952
| 17>   C                      -0.472696            4.387089             3.663431
| 18>   O                      -1.199692            5.523932             3.957028
| 19>   H                      -2.086273            5.148454             3.979004
| 20>   H                      -0.320164            3.771186             4.547307
| 21>   H                      -0.846231            3.767167             2.796776
| 22>   H                      0.467371             4.666513             3.242969
| 23> *
| 24>
| 25> #Run DFT-D3 single point of the molecule with dimer basis set
| 26> $new_job
| 27> %base "13-140_DFT_A"
| 28> ! wB97X-D3 def2-TZVP TIGHTSCF CHELPG PMODEL
| 29>
| 30> %scf
| 31> MaxIter 1000
| 32> end
| 33>
| 34> * xyz 0 1
| 35>   C                      -2.561850            8.333009             5.793317
| 36>   O                      -3.098374            7.684261             4.668960
| 37>   H                      -2.260752            7.229011             4.369283
| 38>   H                      -1.504505            8.534680             5.701477
| 39>   H                      -3.050513            9.317847             5.958538
| 40>   H                      -2.651462            7.682936             6.685952
| 41>   C                    : -0.472696            4.387089             3.663431
| 42>   O                    : -1.199692            5.523932             3.957028
| 43>   H                    : -2.086273            5.148454             3.979004
| 44>   H                    : -0.320164            3.771186             4.547307
| 45>   H                    : -0.846231            3.767167             2.796776
| 46>   H                    : 0.467371             4.666513             3.242969
| 47> *
| 48>
| 49> #Run DFT-D3 single point of the particle with dimer basis set
| 50> $new_job
| 51> %base "13-140_DFT_B"
| 52> ! wB97X-D3 def2-TZVP TIGHTSCF CHELPG PMODEL
| 53>
| 54> %scf
| 55> MaxIter 1000
| 56> end
| 57>
| 58> * xyz 0 1
| 59>   C                    : -2.561850            8.333009             5.793317
| 60>   O                    : -3.098374            7.684261             4.668960
| 61>   H                    : -2.260752            7.229011             4.369283
| 62>   H                    : -1.504505            8.534680             5.701477
| 63>   H                    : -3.050513            9.317847             5.958538
| 64>   H                    : -2.651462            7.682936             6.685952
| 65>   C                      -0.472696            4.387089             3.663431
| 66>   O                      -1.199692            5.523932             3.957028
| 67>   H                      -2.086273            5.148454             3.979004
| 68>   H                      -0.320164            3.771186             4.547307
| 69>   H                      -0.846231            3.767167             2.796776
| 70>   H                      0.467371             4.666513             3.242969
| 71> *
| 72>
| 73>                          ****END OF INPUT****
 Total Charge           Charge          ....    0
 Multiplicity           Mult            ....    1
 Number of Electrons    NEL             ....   36
Dispersion correction           -0.001441673
FINAL SINGLE POINT ENERGY      -231.467654867190
Dispersion correction           -0.000220814
FINAL SINGLE POINT ENERGY      -115.730472503309

CARTESIAN COORDINATES (ANGSTROEM)
---------------------------------
  C     -2.561850    8.333009    5.793317
  O     -3.098374    7.684261    4.668960
  H     -2.260752    7.229011    4.369283
  H     -1.504505    8.534680    5.701477
  H     -3.050513    9.317847    5.958538
  H     -2.651462    7.682936    6.685952
  C     -0.472696    4.387089    3.663431
  O     -1.199692    5.523932    3.957028
  H     -2.086273    5.148454    3.979004
  H     -0.320164    3.771186    4.547307
  H     -0.846231    3.767167    2.796776
  H      0.467371    4.666513    3.242969

 Multiplicity           Mult            ....    1
 Number of Electrons    NEL             ....   18
 Basis Dimension        Dim             ....  172

ORBITAL ENERGIES
----------------

  NO   OCC          E(Eh)            E(eV)
   0   2.0000     -19.236017      -523.4386
   1   2.0000     -10.310267      -280.5566
   2   2.0000      -1.154243       -31.4085
   3   2.0000      -0.792552       -21.5664
   4   2.0000      -0.614378       -16.7181
   5   2.0000      -0.556476       -15.1425
   6   2.0000      -0.527422       -14.3519
   7   2.0000      -0.432811       -11.7774
   8   2.0000      -0.377724       -10.2784
   9   0.0000       0.096228         2.6185
  10   0.0000       0.122791         3.3413
  11   0.0000       0.155238         4.2242
  12   0.0000       0.193938         5.2773
  13   0.0000       0.202846         5.5197

MULLIKEN ATOMIC CHARGES
-----------------------
   0 C :    0.000503
   1 O :    0.000014
   2 H :   -0.009353
   3 H :   -0.001264
   4 H :   -0.000179
   5 H :   -0.000469
   6 C :   -0.185371
   7 O :   -0.437030
   8 H :    0.320583
   9 H :    0.102894
  10 H :    0.096907
  11 H :    0.112766
Sum of atomic charges:   -0.0000000

LOEWDIN ATOMIC CHARGES
----------------------
   0 C :   -0.003074
   1 O :   -0.003119
   2 H :   -0.027027
   3 H :   -0.000519
   4 H :   -0.000048
   5 H :   -0.000262
   6 C :   -0.422374
   7 O :   -0.025523
   8 H :    0.184901
   9 H :    0.094068
  10 H :    0.101500
  11 H :    0.101479

  Mayer bond orders larger than 0.1
B(  6-C ,  7-O ) :   1.0081 B(  6-C ,  9-H ) :   0.9728 B(  6-C , 10-H ) :   0.9735
B(  6-C , 11-H ) :   0.9787 B(  7-O ,  8-H ) :   0.8965

Dispersion correction           -0.000218524
FINAL SINGLE POINT ENERGY      -115.730478072493

DIPOLE MOMENT
-------------
                                X             Y             Z
Electronic contribution:     -0.88272       1.64972       0.50371
Nuclear contribution   :      0.62365      -2.28163      -0.61982
                        -----------------------------------------
Total Dipole Moment    :     -0.25907      -0.63191      -0.11611
                        -----------------------------------------
Magnitude (a.u.)       :      0.69276
Magnitude (Debye)      :      1.76085

Rotational constants in cm-1:     4.290145     0.861190     0.840536
Rotational constants in MHz : 128615.299786 25817.818550 25198.622096

                             ****ORCA TERMINATED NORMALLY****
TOTAL RUN TIME: 0 days 0 hours 1 minutes 9 seconds 674 msec
