                         Program Version 4.1.2  - RELEASE  -
|  1> #Run DFT-D3 single point of the dimer
|  2> ! wB97X-D3 def2-TZVP TIGHTSCF CHELPG PMODEL PAL8
|  3>
|  4> %base "14-39_DFT_AB"
|  5>
|  6> %scf
|  7> MaxIter 1000
|  8> end
|  9>
| 10> * xyz 0 1
| 11>   C                      9.292696             -8.407143            -10.959282
| 12>   O                      9.750118             -9.719901            -11.130576
| 13>   H                      10.356786            -9.725511            -11.852830
| 14>   H                      8.471294             -8.255547            -11.710006
| 15>   H                      8.921736             -8.207136            -9.946187
| 16>   H                      10.158140            -7.646811            -11.149071
| 17>   C                      9.460644             -3.791369            -8.790349
| 18>   O                      9.723722             -4.555290            -9.940950
| 19>   H                      10.000357            -3.939135            -10.597525
| 20>   H                      8.413790             -3.319582            -8.752754
| 21>   H                      9.487116             -4.471365            -7.986285
| 22>   H                      10.268471            -3.035572            -8.522973
| 23> *
| 24>
| 25> #Run DFT-D3 single point of the molecule with dimer basis set
| 26> $new_job
| 27> %base "14-39_DFT_A"
| 28> ! wB97X-D3 def2-TZVP TIGHTSCF CHELPG PMODEL
| 29>
| 30> %scf
| 31> MaxIter 1000
| 32> end
| 33>
| 34> * xyz 0 1
| 35>   C                      9.292696             -8.407143            -10.959282
| 36>   O                      9.750118             -9.719901            -11.130576
| 37>   H                      10.356786            -9.725511            -11.852830
| 38>   H                      8.471294             -8.255547            -11.710006
| 39>   H                      8.921736             -8.207136            -9.946187
| 40>   H                      10.158140            -7.646811            -11.149071
| 41>   C                    : 9.460644             -3.791369            -8.790349
| 42>   O                    : 9.723722             -4.555290            -9.940950
| 43>   H                    : 10.000357            -3.939135            -10.597525
| 44>   H                    : 8.413790             -3.319582            -8.752754
| 45>   H                    : 9.487116             -4.471365            -7.986285
| 46>   H                    : 10.268471            -3.035572            -8.522973
| 47> *
| 48>
| 49> #Run DFT-D3 single point of the particle with dimer basis set
| 50> $new_job
| 51> %base "14-39_DFT_B"
| 52> ! wB97X-D3 def2-TZVP TIGHTSCF CHELPG PMODEL
| 53>
| 54> %scf
| 55> MaxIter 1000
| 56> end
| 57>
| 58> * xyz 0 1
| 59>   C                    : 9.292696             -8.407143            -10.959282
| 60>   O                    : 9.750118             -9.719901            -11.130576
| 61>   H                    : 10.356786            -9.725511            -11.852830
| 62>   H                    : 8.471294             -8.255547            -11.710006
| 63>   H                    : 8.921736             -8.207136            -9.946187
| 64>   H                    : 10.158140            -7.646811            -11.149071
| 65>   C                      9.460644             -3.791369            -8.790349
| 66>   O                      9.723722             -4.555290            -9.940950
| 67>   H                      10.000357            -3.939135            -10.597525
| 68>   H                      8.413790             -3.319582            -8.752754
| 69>   H                      9.487116             -4.471365            -7.986285
| 70>   H                      10.268471            -3.035572            -8.522973
| 71> *
| 72>
| 73>                          ****END OF INPUT****
 Total Charge           Charge          ....    0
 Multiplicity           Mult            ....    1
 Number of Electrons    NEL             ....   36
Dispersion correction           -0.000998107
FINAL SINGLE POINT ENERGY      -231.464356298879
Dispersion correction           -0.000238915
FINAL SINGLE POINT ENERGY      -115.731638009944

CARTESIAN COORDINATES (ANGSTROEM)
---------------------------------
  C      9.292696   -8.407143  -10.959282
  O      9.750118   -9.719901  -11.130576
  H     10.356786   -9.725511  -11.852830
  H      8.471294   -8.255547  -11.710006
  H      8.921736   -8.207136   -9.946187
  H     10.158140   -7.646811  -11.149071
  C      9.460644   -3.791369   -8.790349
  O      9.723722   -4.555290   -9.940950
  H     10.000357   -3.939135  -10.597525
  H      8.413790   -3.319582   -8.752754
  H      9.487116   -4.471365   -7.986285
  H     10.268471   -3.035572   -8.522973

 Multiplicity           Mult            ....    1
 Number of Electrons    NEL             ....   18
 Basis Dimension        Dim             ....  172

ORBITAL ENERGIES
----------------

  NO   OCC          E(Eh)            E(eV)
   0   2.0000     -19.233759      -523.3772
   1   2.0000     -10.318166      -280.7716
   2   2.0000      -1.146426       -31.1958
   3   2.0000      -0.794778       -21.6270
   4   2.0000      -0.611901       -16.6507
   5   2.0000      -0.538661       -14.6577
   6   2.0000      -0.528549       -14.3826
   7   2.0000      -0.435726       -11.8567
   8   2.0000      -0.377235       -10.2651
   9   0.0000       0.096646         2.6299
  10   0.0000       0.118840         3.2338
  11   0.0000       0.150521         4.0959
  12   0.0000       0.174926         4.7600
  13   0.0000       0.196980         5.3601

MULLIKEN ATOMIC CHARGES
-----------------------
   0 C :    0.000197
   1 O :   -0.000044
   2 H :   -0.000011
   3 H :   -0.000161
   4 H :   -0.000694
   5 H :   -0.002311
   6 C :   -0.169141
   7 O :   -0.456209
   8 H :    0.311276
   9 H :    0.095629
  10 H :    0.120191
  11 H :    0.101278
Sum of atomic charges:   -0.0000000

LOEWDIN ATOMIC CHARGES
----------------------
   0 C :   -0.002030
   1 O :   -0.000017
   2 H :   -0.000003
   3 H :   -0.000053
   4 H :   -0.000343
   5 H :   -0.001666
   6 C :   -0.403338
   7 O :   -0.054924
   8 H :    0.158950
   9 H :    0.103038
  10 H :    0.097405
  11 H :    0.102981

  Mayer bond orders larger than 0.1
B(  6-C ,  7-O ) :   1.0082 B(  6-C ,  9-H ) :   0.9665 B(  6-C , 10-H ) :   0.9791
B(  6-C , 11-H ) :   0.9715 B(  7-O ,  8-H ) :   0.9052

Dispersion correction           -0.000259986
FINAL SINGLE POINT ENERGY      -115.731693696699

DIPOLE MOMENT
-------------
                                X             Y             Z
Electronic contribution:      0.32361      -1.10405      -1.53409
Nuclear contribution   :     -0.22284       1.75348       1.57521
                        -----------------------------------------
Total Dipole Moment    :      0.10077       0.64943       0.04112
                        -----------------------------------------
Magnitude (a.u.)       :      0.65848
Magnitude (Debye)      :      1.67373

Rotational constants in cm-1:     4.241851     0.827601     0.809458
Rotational constants in MHz : 127167.497520 24810.855610 24266.940699

                             ****ORCA TERMINATED NORMALLY****
TOTAL RUN TIME: 0 days 0 hours 1 minutes 9 seconds 25 msec
