                         Program Version 4.1.2  - RELEASE  -
|  1> #Run DFT-D3 single point of the dimer
|  2> ! wB97X-D3 def2-TZVP TIGHTSCF CHELPG PMODEL PAL8
|  3>
|  4> %base "14-113_DFT_AB"
|  5>
|  6> %scf
|  7> MaxIter 1000
|  8> end
|  9>
| 10> * xyz 0 1
| 11>   C                      10.107105            -5.583094            0.898709
| 12>   O                      9.277626             -4.510390            1.399296
| 13>   H                      9.836118             -3.927165            1.959038
| 14>   H                      11.109694            -5.474125            1.303897
| 15>   H                      9.825191             -6.604012            1.214564
| 16>   H                      10.273370            -5.608392            -0.218637
| 17>   C                      11.213368            -3.650369            -2.198534
| 18>   O                      10.073451            -3.009435            -2.593356
| 19>   H                      10.218555            -2.154800            -2.998738
| 20>   H                      11.842974            -3.847001            -3.042106
| 21>   H                      11.816989            -3.031146            -1.530692
| 22>   H                      11.057365            -4.625770            -1.796941
| 23> *
| 24>
| 25> #Run DFT-D3 single point of the molecule with dimer basis set
| 26> $new_job
| 27> %base "14-113_DFT_A"
| 28> ! wB97X-D3 def2-TZVP TIGHTSCF CHELPG PMODEL
| 29>
| 30> %scf
| 31> MaxIter 1000
| 32> end
| 33>
| 34> * xyz 0 1
| 35>   C                      10.107105            -5.583094            0.898709
| 36>   O                      9.277626             -4.510390            1.399296
| 37>   H                      9.836118             -3.927165            1.959038
| 38>   H                      11.109694            -5.474125            1.303897
| 39>   H                      9.825191             -6.604012            1.214564
| 40>   H                      10.273370            -5.608392            -0.218637
| 41>   C                    : 11.213368            -3.650369            -2.198534
| 42>   O                    : 10.073451            -3.009435            -2.593356
| 43>   H                    : 10.218555            -2.154800            -2.998738
| 44>   H                    : 11.842974            -3.847001            -3.042106
| 45>   H                    : 11.816989            -3.031146            -1.530692
| 46>   H                    : 11.057365            -4.625770            -1.796941
| 47> *
| 48>
| 49> #Run DFT-D3 single point of the particle with dimer basis set
| 50> $new_job
| 51> %base "14-113_DFT_B"
| 52> ! wB97X-D3 def2-TZVP TIGHTSCF CHELPG PMODEL
| 53>
| 54> %scf
| 55> MaxIter 1000
| 56> end
| 57>
| 58> * xyz 0 1
| 59>   C                    : 10.107105            -5.583094            0.898709
| 60>   O                    : 9.277626             -4.510390            1.399296
| 61>   H                    : 9.836118             -3.927165            1.959038
| 62>   H                    : 11.109694            -5.474125            1.303897
| 63>   H                    : 9.825191             -6.604012            1.214564
| 64>   H                    : 10.273370            -5.608392            -0.218637
| 65>   C                      11.213368            -3.650369            -2.198534
| 66>   O                      10.073451            -3.009435            -2.593356
| 67>   H                      10.218555            -2.154800            -2.998738
| 68>   H                      11.842974            -3.847001            -3.042106
| 69>   H                      11.816989            -3.031146            -1.530692
| 70>   H                      11.057365            -4.625770            -1.796941
| 71> *
| 72>
| 73>                          ****END OF INPUT****
 Total Charge           Charge          ....    0
 Multiplicity           Mult            ....    1
 Number of Electrons    NEL             ....   36
Dispersion correction           -0.001571158
FINAL SINGLE POINT ENERGY      -231.460233320066
Dispersion correction           -0.000280399
FINAL SINGLE POINT ENERGY      -115.729747076996

CARTESIAN COORDINATES (ANGSTROEM)
---------------------------------
  C     10.107105   -5.583094    0.898709
  O      9.277626   -4.510390    1.399296
  H      9.836118   -3.927165    1.959038
  H     11.109694   -5.474125    1.303897
  H      9.825191   -6.604012    1.214564
  H     10.273370   -5.608392   -0.218637
  C     11.213368   -3.650369   -2.198534
  O     10.073451   -3.009435   -2.593356
  H     10.218555   -2.154800   -2.998738
  H     11.842974   -3.847001   -3.042106
  H     11.816989   -3.031146   -1.530692
  H     11.057365   -4.625770   -1.796941

 Multiplicity           Mult            ....    1
 Number of Electrons    NEL             ....   18
 Basis Dimension        Dim             ....  172

ORBITAL ENERGIES
----------------

  NO   OCC          E(Eh)            E(eV)
   0   2.0000     -19.226214      -523.1719
   1   2.0000     -10.303593      -280.3750
   2   2.0000      -1.147331       -31.2205
   3   2.0000      -0.801844       -21.8193
   4   2.0000      -0.623300       -16.9609
   5   2.0000      -0.549238       -14.9455
   6   2.0000      -0.536833       -14.6080
   7   2.0000      -0.423828       -11.5330
   8   2.0000      -0.367716       -10.0061
   9   0.0000       0.091234         2.4826
  10   0.0000       0.118970         3.2373
  11   0.0000       0.158359         4.3092
  12   0.0000       0.167794         4.5659
  13   0.0000       0.195216         5.3121

MULLIKEN ATOMIC CHARGES
-----------------------
   0 C :   -0.002501
   1 O :    0.000012
   2 H :   -0.000026
   3 H :   -0.000106
   4 H :    0.000083
   5 H :    0.004838
   6 C :   -0.138717
   7 O :   -0.482142
   8 H :    0.321101
   9 H :    0.095690
  10 H :    0.089180
  11 H :    0.112588
Sum of atomic charges:    0.0000000

LOEWDIN ATOMIC CHARGES
----------------------
   0 C :   -0.004298
   1 O :   -0.000042
   2 H :   -0.000021
   3 H :   -0.000228
   4 H :   -0.000012
   5 H :   -0.009293
   6 C :   -0.408363
   7 O :   -0.040297
   8 H :    0.170691
   9 H :    0.089263
  10 H :    0.093310
  11 H :    0.109291

  Mayer bond orders larger than 0.1
B(  6-C ,  7-O ) :   1.0101 B(  6-C ,  9-H ) :   0.9821 B(  6-C , 10-H ) :   0.9881
B(  6-C , 11-H ) :   0.9688 B(  7-O ,  8-H ) :   0.8905

Dispersion correction           -0.000224856
FINAL SINGLE POINT ENERGY      -115.731764987134

DIPOLE MOMENT
-------------
                                X             Y             Z
Electronic contribution:     -1.65988       0.72159      -0.39651
Nuclear contribution   :      2.19506      -0.42348       0.26612
                        -----------------------------------------
Total Dipole Moment    :      0.53517       0.29811      -0.13039
                        -----------------------------------------
Magnitude (a.u.)       :      0.62632
Magnitude (Debye)      :      1.59199

Rotational constants in cm-1:     4.576394     0.871071     0.838499
Rotational constants in MHz : 137196.846451 26114.061215 25137.565828

                             ****ORCA TERMINATED NORMALLY****
TOTAL RUN TIME: 0 days 0 hours 1 minutes 5 seconds 257 msec
