                         Program Version 4.1.2  - RELEASE  -
|  1> #Run DFT-D3 single point of the dimer
|  2> ! wB97X-D3 def2-TZVP TIGHTSCF CHELPG PMODEL PAL8
|  3>
|  4> %base "18-25_DFT_AB"
|  5>
|  6> %scf
|  7> MaxIter 1000
|  8> end
|  9>
| 10> * xyz 0 1
| 11>   C                      -5.176520            -0.642955            5.468790
| 12>   O                      -4.038877            -1.295501            5.945422
| 13>   H                      -4.126203            -2.205438            5.650035
| 14>   H                      -5.286508            -0.774904            4.375683
| 15>   H                      -6.105946            -0.911018            5.899308
| 16>   H                      -5.090722            0.414521             5.747167
| 17>   C                      -5.272927            -1.364108            1.728997
| 18>   O                      -5.774014            -2.247115            2.688115
| 19>   H                      -6.032081            -3.122064            2.287898
| 20>   H                      -4.128287            -1.490390            1.585377
| 21>   H                      -5.793673            -1.525544            0.712564
| 22>   H                      -5.338184            -0.335502            1.940388
| 23> *
| 24>
| 25> #Run DFT-D3 single point of the molecule with dimer basis set
| 26> $new_job
| 27> %base "18-25_DFT_A"
| 28> ! wB97X-D3 def2-TZVP TIGHTSCF CHELPG PMODEL
| 29>
| 30> %scf
| 31> MaxIter 1000
| 32> end
| 33>
| 34> * xyz 0 1
| 35>   C                      -5.176520            -0.642955            5.468790
| 36>   O                      -4.038877            -1.295501            5.945422
| 37>   H                      -4.126203            -2.205438            5.650035
| 38>   H                      -5.286508            -0.774904            4.375683
| 39>   H                      -6.105946            -0.911018            5.899308
| 40>   H                      -5.090722            0.414521             5.747167
| 41>   C                    : -5.272927            -1.364108            1.728997
| 42>   O                    : -5.774014            -2.247115            2.688115
| 43>   H                    : -6.032081            -3.122064            2.287898
| 44>   H                    : -4.128287            -1.490390            1.585377
| 45>   H                    : -5.793673            -1.525544            0.712564
| 46>   H                    : -5.338184            -0.335502            1.940388
| 47> *
| 48>
| 49> #Run DFT-D3 single point of the particle with dimer basis set
| 50> $new_job
| 51> %base "18-25_DFT_B"
| 52> ! wB97X-D3 def2-TZVP TIGHTSCF CHELPG PMODEL
| 53>
| 54> %scf
| 55> MaxIter 1000
| 56> end
| 57>
| 58> * xyz 0 1
| 59>   C                    : -5.176520            -0.642955            5.468790
| 60>   O                    : -4.038877            -1.295501            5.945422
| 61>   H                    : -4.126203            -2.205438            5.650035
| 62>   H                    : -5.286508            -0.774904            4.375683
| 63>   H                    : -6.105946            -0.911018            5.899308
| 64>   H                    : -5.090722            0.414521             5.747167
| 65>   C                      -5.272927            -1.364108            1.728997
| 66>   O                      -5.774014            -2.247115            2.688115
| 67>   H                      -6.032081            -3.122064            2.287898
| 68>   H                      -4.128287            -1.490390            1.585377
| 69>   H                      -5.793673            -1.525544            0.712564
| 70>   H                      -5.338184            -0.335502            1.940388
| 71> *
| 72>
| 73>                          ****END OF INPUT****
 Total Charge           Charge          ....    0
 Multiplicity           Mult            ....    1
 Number of Electrons    NEL             ....   36
Dispersion correction           -0.001799902
FINAL SINGLE POINT ENERGY      -231.463169930208
Dispersion correction           -0.000229559
FINAL SINGLE POINT ENERGY      -115.734177489645

CARTESIAN COORDINATES (ANGSTROEM)
---------------------------------
  C     -5.176520   -0.642955    5.468790
  O     -4.038877   -1.295501    5.945422
  H     -4.126203   -2.205438    5.650035
  H     -5.286508   -0.774904    4.375683
  H     -6.105946   -0.911018    5.899308
  H     -5.090722    0.414521    5.747167
  C     -5.272927   -1.364108    1.728997
  O     -5.774014   -2.247115    2.688115
  H     -6.032081   -3.122064    2.287898
  H     -4.128287   -1.490390    1.585377
  H     -5.793673   -1.525544    0.712564
  H     -5.338184   -0.335502    1.940388

 Multiplicity           Mult            ....    1
 Number of Electrons    NEL             ....   18
 Basis Dimension        Dim             ....  172

ORBITAL ENERGIES
----------------

  NO   OCC          E(Eh)            E(eV)
   0   2.0000     -19.236268      -523.4455
   1   2.0000     -10.321573      -280.8643
   2   2.0000      -1.135172       -30.8896
   3   2.0000      -0.791058       -21.5258
   4   2.0000      -0.609175       -16.5765
   5   2.0000      -0.540933       -14.7195
   6   2.0000      -0.529947       -14.4206
   7   2.0000      -0.424473       -11.5505
   8   2.0000      -0.369560       -10.0562
   9   0.0000       0.095556         2.6002
  10   0.0000       0.121342         3.3019
  11   0.0000       0.145818         3.9679
  12   0.0000       0.175081         4.7642
  13   0.0000       0.194541         5.2937

MULLIKEN ATOMIC CHARGES
-----------------------
   0 C :   -0.001843
   1 O :   -0.000146
   2 H :   -0.002219
   3 H :    0.004196
   4 H :   -0.000863
   5 H :   -0.000030
   6 C :   -0.176158
   7 O :   -0.474741
   8 H :    0.324995
   9 H :    0.091343
  10 H :    0.102322
  11 H :    0.133142
Sum of atomic charges:   -0.0000000

LOEWDIN ATOMIC CHARGES
----------------------
   0 C :   -0.009204
   1 O :   -0.000138
   2 H :   -0.001385
   3 H :   -0.012695
   4 H :   -0.000489
   5 H :   -0.000051
   6 C :   -0.408861
   7 O :   -0.064786
   8 H :    0.193814
   9 H :    0.102225
  10 H :    0.105613
  11 H :    0.095957

  Mayer bond orders larger than 0.1
B(  6-C ,  7-O ) :   1.0078 B(  6-C ,  9-H ) :   0.9738 B(  6-C , 10-H ) :   0.9771
B(  6-C , 11-H ) :   0.9721 B(  7-O ,  8-H ) :   0.8843

Dispersion correction           -0.000269474
FINAL SINGLE POINT ENERGY      -115.727036140855

DIPOLE MOMENT
-------------
                                X             Y             Z
Electronic contribution:     -0.77966      -1.01179       1.49839
Nuclear contribution   :      0.77086       0.81437      -2.10954
                        -----------------------------------------
Total Dipole Moment    :     -0.00880      -0.19742      -0.61115
                        -----------------------------------------
Magnitude (a.u.)       :      0.64230
Magnitude (Debye)      :      1.63260

Rotational constants in cm-1:     4.215721     0.825804     0.796870
Rotational constants in MHz : 126384.143074 24756.978496 23889.568070

                             ****ORCA TERMINATED NORMALLY****
TOTAL RUN TIME: 0 days 0 hours 1 minutes 3 seconds 822 msec
