                         Program Version 4.1.2  - RELEASE  -
|  1> #Run DFT-D3 single point of the dimer
|  2> ! wB97X-D3 def2-TZVP TIGHTSCF CHELPG PMODEL PAL8
|  3>
|  4> %base "15-107_DFT_AB"
|  5>
|  6> %scf
|  7> MaxIter 1000
|  8> end
|  9>
| 10> * xyz 0 1
| 11>   C                      5.769253             2.723060             -5.358341
| 12>   O                      4.814784             3.262569             -6.303090
| 13>   H                      4.560570             4.189452             -6.048641
| 14>   H                      5.512399             1.716891             -5.023752
| 15>   H                      6.764949             2.673232             -5.826764
| 16>   H                      5.846086             3.305604             -4.359895
| 17>   C                      2.593408             1.629341             -8.783855
| 18>   O                      3.535555             2.431463             -9.270448
| 19>   H                      4.025981             2.848238             -8.530987
| 20>   H                      2.465876             1.917551             -7.720549
| 21>   H                      1.597055             1.853008             -9.172624
| 22>   H                      2.691403             0.589495             -8.837936
| 23> *
| 24>
| 25> #Run DFT-D3 single point of the molecule with dimer basis set
| 26> $new_job
| 27> %base "15-107_DFT_A"
| 28> ! wB97X-D3 def2-TZVP TIGHTSCF CHELPG PMODEL
| 29>
| 30> %scf
| 31> MaxIter 1000
| 32> end
| 33>
| 34> * xyz 0 1
| 35>   C                      5.769253             2.723060             -5.358341
| 36>   O                      4.814784             3.262569             -6.303090
| 37>   H                      4.560570             4.189452             -6.048641
| 38>   H                      5.512399             1.716891             -5.023752
| 39>   H                      6.764949             2.673232             -5.826764
| 40>   H                      5.846086             3.305604             -4.359895
| 41>   C                    : 2.593408             1.629341             -8.783855
| 42>   O                    : 3.535555             2.431463             -9.270448
| 43>   H                    : 4.025981             2.848238             -8.530987
| 44>   H                    : 2.465876             1.917551             -7.720549
| 45>   H                    : 1.597055             1.853008             -9.172624
| 46>   H                    : 2.691403             0.589495             -8.837936
| 47> *
| 48>
| 49> #Run DFT-D3 single point of the particle with dimer basis set
| 50> $new_job
| 51> %base "15-107_DFT_B"
| 52> ! wB97X-D3 def2-TZVP TIGHTSCF CHELPG PMODEL
| 53>
| 54> %scf
| 55> MaxIter 1000
| 56> end
| 57>
| 58> * xyz 0 1
| 59>   C                    : 5.769253             2.723060             -5.358341
| 60>   O                    : 4.814784             3.262569             -6.303090
| 61>   H                    : 4.560570             4.189452             -6.048641
| 62>   H                    : 5.512399             1.716891             -5.023752
| 63>   H                    : 6.764949             2.673232             -5.826764
| 64>   H                    : 5.846086             3.305604             -4.359895
| 65>   C                      2.593408             1.629341             -8.783855
| 66>   O                      3.535555             2.431463             -9.270448
| 67>   H                      4.025981             2.848238             -8.530987
| 68>   H                      2.465876             1.917551             -7.720549
| 69>   H                      1.597055             1.853008             -9.172624
| 70>   H                      2.691403             0.589495             -8.837936
| 71> *
| 72>
| 73>                          ****END OF INPUT****
 Total Charge           Charge          ....    0
 Multiplicity           Mult            ....    1
 Number of Electrons    NEL             ....   36
Dispersion correction           -0.001533275
FINAL SINGLE POINT ENERGY      -231.461057837525
Dispersion correction           -0.000291893
FINAL SINGLE POINT ENERGY      -115.730633251447

CARTESIAN COORDINATES (ANGSTROEM)
---------------------------------
  C      5.769253    2.723060   -5.358341
  O      4.814784    3.262569   -6.303090
  H      4.560570    4.189452   -6.048641
  H      5.512399    1.716891   -5.023752
  H      6.764949    2.673232   -5.826764
  H      5.846086    3.305604   -4.359895
  C      2.593408    1.629341   -8.783855
  O      3.535555    2.431463   -9.270448
  H      4.025981    2.848238   -8.530987
  H      2.465876    1.917551   -7.720549
  H      1.597055    1.853008   -9.172624
  H      2.691403    0.589495   -8.837936

 Multiplicity           Mult            ....    1
 Number of Electrons    NEL             ....   18
 Basis Dimension        Dim             ....  172

ORBITAL ENERGIES
----------------

  NO   OCC          E(Eh)            E(eV)
   0   2.0000     -19.232208      -523.3350
   1   2.0000     -10.302181      -280.3366
   2   2.0000      -1.162072       -31.6216
   3   2.0000      -0.794710       -21.6252
   4   2.0000      -0.629253       -17.1228
   5   2.0000      -0.558435       -15.1958
   6   2.0000      -0.541439       -14.7333
   7   2.0000      -0.412800       -11.2329
   8   2.0000      -0.372598       -10.1389
   9   0.0000       0.064885         1.7656
  10   0.0000       0.119875         3.2620
  11   0.0000       0.152733         4.1561
  12   0.0000       0.169743         4.6189
  13   0.0000       0.190229         5.1764

MULLIKEN ATOMIC CHARGES
-----------------------
   0 C :   -0.000718
   1 O :   -0.001217
   2 H :   -0.000194
   3 H :    0.000005
   4 H :    0.000089
   5 H :   -0.000002
   6 C :   -0.148832
   7 O :   -0.456016
   8 H :    0.327650
   9 H :    0.081667
  10 H :    0.094103
  11 H :    0.103464
Sum of atomic charges:   -0.0000000

LOEWDIN ATOMIC CHARGES
----------------------
   0 C :   -0.000622
   1 O :   -0.005776
   2 H :   -0.000505
   3 H :   -0.000026
   4 H :   -0.000022
   5 H :   -0.000017
   6 C :   -0.452149
   7 O :   -0.015951
   8 H :    0.193531
   9 H :    0.098564
  10 H :    0.099157
  11 H :    0.083815

  Mayer bond orders larger than 0.1
B(  6-C ,  7-O ) :   1.0172 B(  6-C ,  9-H ) :   1.0047 B(  6-C , 10-H ) :   0.9776
B(  6-C , 11-H ) :   0.9681 B(  7-O ,  8-H ) :   0.8967

Dispersion correction           -0.000218826
FINAL SINGLE POINT ENERGY      -115.723073522556

DIPOLE MOMENT
-------------
                                X             Y             Z
Electronic contribution:      1.41889       0.93651      -0.96465
Nuclear contribution   :     -1.42506      -0.93073       1.62399
                        -----------------------------------------
Total Dipole Moment    :     -0.00617       0.00578       0.65934
                        -----------------------------------------
Magnitude (a.u.)       :      0.65939
Magnitude (Debye)      :      1.67604

Rotational constants in cm-1:     4.507659     0.909775     0.874126
Rotational constants in MHz : 135136.217463 27274.362356 26205.646551

                             ****ORCA TERMINATED NORMALLY****
TOTAL RUN TIME: 0 days 0 hours 0 minutes 59 seconds 783 msec
