                         Program Version 4.1.2  - RELEASE  -
|  1> #Run DFT geometry optimization
|  2> ! wB97X-D3 def2-TZVP TIGHTSCF Grid5 FinalGrid6 Opt CHELPG PAL4
|  3>
|  4> %base "geoopt"
|  5>
|  6> %geom MaxIter 500
|  7> end
|  8>
|  9> %scf
| 10> MaxIter 1000
| 11> end
| 12>
| 13> %output
| 14>   Print[ P_Mayer ] 1
| 15>   Print[ P_NatPop ] 1
| 16>   Print[ P_Hirshfeld ] 1
| 17>   Print[ P_Mulliken ] 1
| 18>   Print [ P_Loewdin ] 1
| 19> end
| 20>
| 21> * xyz 0 1
| 22>   C                    3.011308             -1.180897            0.598492
| 23>   O                    4.394673             -1.128050            0.874308
| 24>   H                    4.772196             -0.379022            0.412493
| 25>   H                    2.806434             -1.318965            -0.469350
| 26>   H                    2.611632             -2.040265            1.135898
| 27>   H                    2.484757             -0.284491            0.945659
| 28> *
| 29>
| 30>                          ****END OF INPUT****
 Total Charge           Charge          ....    0
 Multiplicity           Mult            ....    1
 Number of Electrons    NEL             ....   18
Dispersion correction           -0.000239267
FINAL SINGLE POINT ENERGY      -115.738051352966
Dispersion correction            ... done
                    ***********************HURRAY********************

CARTESIAN COORDINATES (ANGSTROEM)
---------------------------------
  C      3.011359   -1.180929    0.598523
  O      4.394695   -1.128028    0.874282
  H      4.772184   -0.378988    0.412484
  H      2.806445   -1.318974   -0.469318
  H      2.611531   -2.040254    1.135873
  H      2.484786   -0.284518    0.945656

 Multiplicity           Mult            ....    1
 Number of Electrons    NEL             ....   18
 Basis Dimension        Dim             ....   86

ORBITAL ENERGIES
----------------

  NO   OCC          E(Eh)            E(eV)
   0   2.0000     -19.228082      -523.2227
   1   2.0000     -10.315110      -280.6884
   2   2.0000      -1.136812       -30.9342
   3   2.0000      -0.795345       -21.6425
   4   2.0000      -0.611599       -16.6425
   5   2.0000      -0.541771       -14.7423
   6   2.0000      -0.526338       -14.3224
   7   2.0000      -0.433791       -11.8041
   8   2.0000      -0.373604       -10.1663
   9   0.0000       0.116644         3.1740
  10   0.0000       0.156676         4.2634
  11   0.0000       0.202579         5.5125
  12   0.0000       0.205116         5.5815
  13   0.0000       0.226372         6.1599

MULLIKEN ATOMIC CHARGES
-----------------------
   0 C :   -0.150853
   1 O :   -0.477637
   2 H :    0.313016
   3 H :    0.098622
   4 H :    0.118226
   5 H :    0.098626
Sum of atomic charges:    0.0000000

LOEWDIN ATOMIC CHARGES
----------------------
   0 C :   -0.385191
   1 O :   -0.076071
   2 H :    0.165785
   3 H :    0.093396
   4 H :    0.108687
   5 H :    0.093394

  Mayer bond orders larger than 0.1
B(  0-C ,  1-O ) :   0.9987 B(  0-C ,  3-H ) :   0.9755 B(  0-C ,  4-H ) :   0.9749
B(  0-C ,  5-H ) :   0.9755 B(  1-O ,  2-H ) :   0.9002

Dispersion correction           -0.000239264
FINAL SINGLE POINT ENERGY      -115.738051368884

DIPOLE MOMENT
-------------
                                X             Y             Z
Electronic contribution:      1.75606      -0.02825       0.41982
Nuclear contribution   :     -2.06584       0.47583      -0.81745
                        -----------------------------------------
Total Dipole Moment    :     -0.30978       0.44758      -0.39762
                        -----------------------------------------
Magnitude (a.u.)       :      0.67409
Magnitude (Debye)      :      1.71339

Rotational constants in cm-1:     4.293025     0.833818     0.804928
Rotational constants in MHz : 128701.641704 24997.236852 24131.133639

                             ****ORCA TERMINATED NORMALLY****
TOTAL RUN TIME: 0 days 0 hours 0 minutes 40 seconds 227 msec
