                         Program Version 4.1.2  - RELEASE  -
|  1> #Run DFT-D3 single point of the dimer
|  2> ! wB97X-D3 def2-TZVP TIGHTSCF CHELPG PMODEL PAL8
|  3>
|  4> %base "22-12_DFT_AB"
|  5>
|  6> %scf
|  7> MaxIter 1000
|  8> end
|  9>
| 10> * xyz 0 1
| 11>   C                      -0.723120            -11.332098           -10.399083
| 12>   O                      -0.595115            -10.311008           -11.360115
| 13>   H                      -0.463579            -9.482378            -10.877371
| 14>   H                      0.148518             -11.591512           -9.878581
| 15>   H                      -1.510318            -11.025015           -9.697890
| 16>   H                      -1.046432            -12.280679           -10.870928
| 17>   C                      -3.903853            -9.314439            -6.920774
| 18>   O                      -4.838043            -10.169940           -7.627964
| 19>   H                      -5.748097            -9.828896            -7.577020
| 20>   H                      -2.866147            -9.662974            -7.032656
| 21>   H                      -3.789003            -8.288964            -7.246554
| 22>   H                      -4.070842            -9.207480            -5.823617
| 23> *
| 24>
| 25> #Run DFT-D3 single point of the molecule with dimer basis set
| 26> $new_job
| 27> %base "22-12_DFT_A"
| 28> ! wB97X-D3 def2-TZVP TIGHTSCF CHELPG PMODEL
| 29>
| 30> %scf
| 31> MaxIter 1000
| 32> end
| 33>
| 34> * xyz 0 1
| 35>   C                      -0.723120            -11.332098           -10.399083
| 36>   O                      -0.595115            -10.311008           -11.360115
| 37>   H                      -0.463579            -9.482378            -10.877371
| 38>   H                      0.148518             -11.591512           -9.878581
| 39>   H                      -1.510318            -11.025015           -9.697890
| 40>   H                      -1.046432            -12.280679           -10.870928
| 41>   C                    : -3.903853            -9.314439            -6.920774
| 42>   O                    : -4.838043            -10.169940           -7.627964
| 43>   H                    : -5.748097            -9.828896            -7.577020
| 44>   H                    : -2.866147            -9.662974            -7.032656
| 45>   H                    : -3.789003            -8.288964            -7.246554
| 46>   H                    : -4.070842            -9.207480            -5.823617
| 47> *
| 48>
| 49> #Run DFT-D3 single point of the particle with dimer basis set
| 50> $new_job
| 51> %base "22-12_DFT_B"
| 52> ! wB97X-D3 def2-TZVP TIGHTSCF CHELPG PMODEL
| 53>
| 54> %scf
| 55> MaxIter 1000
| 56> end
| 57>
| 58> * xyz 0 1
| 59>   C                    : -0.723120            -11.332098           -10.399083
| 60>   O                    : -0.595115            -10.311008           -11.360115
| 61>   H                    : -0.463579            -9.482378            -10.877371
| 62>   H                    : 0.148518             -11.591512           -9.878581
| 63>   H                    : -1.510318            -11.025015           -9.697890
| 64>   H                    : -1.046432            -12.280679           -10.870928
| 65>   C                      -3.903853            -9.314439            -6.920774
| 66>   O                      -4.838043            -10.169940           -7.627964
| 67>   H                      -5.748097            -9.828896            -7.577020
| 68>   H                      -2.866147            -9.662974            -7.032656
| 69>   H                      -3.789003            -8.288964            -7.246554
| 70>   H                      -4.070842            -9.207480            -5.823617
| 71> *
| 72>
| 73>                          ****END OF INPUT****
 Total Charge           Charge          ....    0
 Multiplicity           Mult            ....    1
 Number of Electrons    NEL             ....   36
Dispersion correction           -0.000895496
FINAL SINGLE POINT ENERGY      -231.464591628123
Dispersion correction           -0.000231315
FINAL SINGLE POINT ENERGY      -115.733757572063

CARTESIAN COORDINATES (ANGSTROEM)
---------------------------------
  C     -0.723120  -11.332098  -10.399083
  O     -0.595115  -10.311008  -11.360115
  H     -0.463579   -9.482378  -10.877371
  H      0.148518  -11.591512   -9.878581
  H     -1.510318  -11.025015   -9.697890
  H     -1.046432  -12.280679  -10.870928
  C     -3.903853   -9.314439   -6.920774
  O     -4.838043  -10.169940   -7.627964
  H     -5.748097   -9.828896   -7.577020
  H     -2.866147   -9.662974   -7.032656
  H     -3.789003   -8.288964   -7.246554
  H     -4.070842   -9.207480   -5.823617

 Multiplicity           Mult            ....    1
 Number of Electrons    NEL             ....   18
 Basis Dimension        Dim             ....  172

ORBITAL ENERGIES
----------------

  NO   OCC          E(Eh)            E(eV)
   0   2.0000     -19.236856      -523.4615
   1   2.0000     -10.318294      -280.7751
   2   2.0000      -1.123003       -30.5585
   3   2.0000      -0.800704       -21.7883
   4   2.0000      -0.609931       -16.5971
   5   2.0000      -0.530384       -14.4325
   6   2.0000      -0.518528       -14.1099
   7   2.0000      -0.433479       -11.7956
   8   2.0000      -0.377772       -10.2797
   9   0.0000       0.090336         2.4582
  10   0.0000       0.117013         3.1841
  11   0.0000       0.143169         3.8958
  12   0.0000       0.168972         4.5980
  13   0.0000       0.182817         4.9747

MULLIKEN ATOMIC CHARGES
-----------------------
   0 C :   -0.000407
   1 O :    0.000008
   2 H :    0.000000
   3 H :    0.000033
   4 H :    0.000398
   5 H :   -0.000002
   6 C :   -0.182570
   7 O :   -0.480928
   8 H :    0.318534
   9 H :    0.126845
  10 H :    0.108186
  11 H :    0.109903
Sum of atomic charges:    0.0000000

LOEWDIN ATOMIC CHARGES
----------------------
   0 C :   -0.000130
   1 O :   -0.000003
   2 H :   -0.000004
   3 H :   -0.000003
   4 H :   -0.000278
   5 H :   -0.000001
   6 C :   -0.374594
   7 O :   -0.102561
   8 H :    0.174397
   9 H :    0.111716
  10 H :    0.092337
  11 H :    0.099125

  Mayer bond orders larger than 0.1
B(  6-C ,  7-O ) :   1.0030 B(  6-C ,  9-H ) :   0.9743 B(  6-C , 10-H ) :   0.9680
B(  6-C , 11-H ) :   0.9746 B(  7-O ,  8-H ) :   0.8936

Dispersion correction           -0.000305864
FINAL SINGLE POINT ENERGY      -115.730454054348

DIPOLE MOMENT
-------------
                                X             Y             Z
Electronic contribution:     -1.22077      -1.23194      -1.01012
Nuclear contribution   :      1.03973       1.81753       1.32254
                        -----------------------------------------
Total Dipole Moment    :     -0.18105       0.58559       0.31242
                        -----------------------------------------
Magnitude (a.u.)       :      0.68797
Magnitude (Debye)      :      1.74869

Rotational constants in cm-1:     4.532720     0.773163     0.747050
Rotational constants in MHz : 135887.525276 23178.830353 22396.005450

                             ****ORCA TERMINATED NORMALLY****
TOTAL RUN TIME: 0 days 0 hours 1 minutes 5 seconds 345 msec
