                         Program Version 4.1.2  - RELEASE  -
|  1> #Run DFT-D3 single point of the dimer
|  2> ! wB97X-D3 def2-TZVP TIGHTSCF  CHELPG PAL8
|  3>
|  4> %base "120_charges"
|  5>
|  6> %scf
|  7> MaxIter 1000
|  8> end
|  9> %output
| 10>   Print[ P_Mayer ] 1
| 11>   Print[ P_NatPop ] 1
| 12>   Print[ P_Hirshfeld ] 1
| 13>   Print[ P_Mulliken ] 1
| 14>   Print [ P_Loewdin ] 1
| 15> end
| 16>
| 17> * xyz 0 1
| 18>   C                      -0.348232            2.125994             -3.955526
| 19>   O                      -0.960642            1.191720             -3.036441
| 20>   H                      -1.860929            1.474080             -2.989688
| 21>   H                      -0.287458            3.170817             -3.563264
| 22>   H                      0.702258             1.817142             -4.098303
| 23>   H                      -0.815231            2.267162             -4.950272
| 24> *
| 25>
| 26>                          ****END OF INPUT****

CARTESIAN COORDINATES (ANGSTROEM)
---------------------------------
  C     -0.348232    2.125994   -3.955526
  O     -0.960642    1.191720   -3.036441
  H     -1.860929    1.474080   -2.989688
  H     -0.287458    3.170817   -3.563264
  H      0.702258    1.817142   -4.098303
  H     -0.815231    2.267162   -4.950272

 Total Charge           Charge          ....    0
 Multiplicity           Mult            ....    1
 Number of Electrons    NEL             ....   18
 Basis Dimension        Dim             ....   86

ORBITAL ENERGIES
----------------

  NO   OCC          E(Eh)            E(eV)
   0   2.0000     -19.235283      -523.4187
   1   2.0000     -10.320949      -280.8473
   2   2.0000      -1.134650       -30.8754
   3   2.0000      -0.794844       -21.6288
   4   2.0000      -0.610816       -16.6211
   5   2.0000      -0.528107       -14.3705
   6   2.0000      -0.520362       -14.1598
   7   2.0000      -0.446298       -12.1444
   8   2.0000      -0.377080       -10.2609
   9   0.0000       0.116909         3.1813
  10   0.0000       0.148677         4.0457
  11   0.0000       0.197707         5.3799
  12   0.0000       0.202258         5.5037
  13   0.0000       0.227508         6.1908

MULLIKEN ATOMIC CHARGES
-----------------------
   0 C :   -0.189563
   1 O :   -0.459542
   2 H :    0.310435
   3 H :    0.104501
   4 H :    0.124872
   5 H :    0.109297
Sum of atomic charges:   -0.0000000

LOEWDIN ATOMIC CHARGES
----------------------
   0 C :   -0.378513
   1 O :   -0.085488
   2 H :    0.157949
   3 H :    0.097850
   4 H :    0.111391
   5 H :    0.096810

  Mayer bond orders larger than 0.1
B(  0-C ,  1-O ) :   1.0045 B(  0-C ,  3-H ) :   0.9710 B(  0-C ,  4-H ) :   0.9764
B(  0-C ,  5-H ) :   0.9649 B(  1-O ,  2-H ) :   0.9064

Dispersion correction           -0.000272503
FINAL SINGLE POINT ENERGY      -115.733330674970

DIPOLE MOMENT
-------------
                                X             Y             Z
Electronic contribution:     -0.74597      -1.37893       1.19892
Nuclear contribution   :      0.43117       1.92831      -1.53456
                        -----------------------------------------
Total Dipole Moment    :     -0.31480       0.54938      -0.33564
                        -----------------------------------------
Magnitude (a.u.)       :      0.71664
Magnitude (Debye)      :      1.82155

Rotational constants in cm-1:     4.305228     0.794824     0.763014
Rotational constants in MHz : 129067.488686 23828.223542 22874.590598

                             ****ORCA TERMINATED NORMALLY****
TOTAL RUN TIME: 0 days 0 hours 0 minutes 44 seconds 52 msec
