                         Program Version 4.1.2  - RELEASE  -
|  1> #Run DFT-D3 single point of the dimer
|  2> ! wB97X-D3 def2-TZVP TIGHTSCF CHELPG PMODEL PAL8
|  3>
|  4> %base "17-165_DFT_AB"
|  5>
|  6> %scf
|  7> MaxIter 1000
|  8> end
|  9>
| 10> * xyz 0 1
| 11>   C                      -3.794272            2.293692             8.882736
| 12>   O                      -4.806415            2.716572             7.958103
| 13>   H                      -5.271343            1.986556             7.505574
| 14>   H                      -3.395406            1.318723             8.520923
| 15>   H                      -3.000333            2.959490             8.972679
| 16>   H                      -4.124509            2.106691             9.882683
| 17>   C                      -7.321974            4.661504             9.667048
| 18>   O                      -6.145197            4.195386             10.344083
| 19>   H                      -5.702245            3.686474             9.712227
| 20>   H                      -8.197407            4.653290             10.309132
| 21>   H                      -7.268155            5.662556             9.285951
| 22>   H                      -7.753861            4.077137             8.861066
| 23> *
| 24>
| 25> #Run DFT-D3 single point of the molecule with dimer basis set
| 26> $new_job
| 27> %base "17-165_DFT_A"
| 28> ! wB97X-D3 def2-TZVP TIGHTSCF CHELPG PMODEL
| 29>
| 30> %scf
| 31> MaxIter 1000
| 32> end
| 33>
| 34> * xyz 0 1
| 35>   C                      -3.794272            2.293692             8.882736
| 36>   O                      -4.806415            2.716572             7.958103
| 37>   H                      -5.271343            1.986556             7.505574
| 38>   H                      -3.395406            1.318723             8.520923
| 39>   H                      -3.000333            2.959490             8.972679
| 40>   H                      -4.124509            2.106691             9.882683
| 41>   C                    : -7.321974            4.661504             9.667048
| 42>   O                    : -6.145197            4.195386             10.344083
| 43>   H                    : -5.702245            3.686474             9.712227
| 44>   H                    : -8.197407            4.653290             10.309132
| 45>   H                    : -7.268155            5.662556             9.285951
| 46>   H                    : -7.753861            4.077137             8.861066
| 47> *
| 48>
| 49> #Run DFT-D3 single point of the particle with dimer basis set
| 50> $new_job
| 51> %base "17-165_DFT_B"
| 52> ! wB97X-D3 def2-TZVP TIGHTSCF CHELPG PMODEL
| 53>
| 54> %scf
| 55> MaxIter 1000
| 56> end
| 57>
| 58> * xyz 0 1
| 59>   C                    : -3.794272            2.293692             8.882736
| 60>   O                    : -4.806415            2.716572             7.958103
| 61>   H                    : -5.271343            1.986556             7.505574
| 62>   H                    : -3.395406            1.318723             8.520923
| 63>   H                    : -3.000333            2.959490             8.972679
| 64>   H                    : -4.124509            2.106691             9.882683
| 65>   C                      -7.321974            4.661504             9.667048
| 66>   O                      -6.145197            4.195386             10.344083
| 67>   H                      -5.702245            3.686474             9.712227
| 68>   H                      -8.197407            4.653290             10.309132
| 69>   H                      -7.268155            5.662556             9.285951
| 70>   H                      -7.753861            4.077137             8.861066
| 71> *
| 72>
| 73>                          ****END OF INPUT****
 Total Charge           Charge          ....    0
 Multiplicity           Mult            ....    1
 Number of Electrons    NEL             ....   36
Dispersion correction           -0.001894058
FINAL SINGLE POINT ENERGY      -231.464740584655
Dispersion correction           -0.000262525
FINAL SINGLE POINT ENERGY      -115.730079636630

CARTESIAN COORDINATES (ANGSTROEM)
---------------------------------
  C     -3.794272    2.293692    8.882736
  O     -4.806415    2.716572    7.958103
  H     -5.271343    1.986556    7.505574
  H     -3.395406    1.318723    8.520923
  H     -3.000333    2.959490    8.972679
  H     -4.124509    2.106691    9.882683
  C     -7.321974    4.661504    9.667048
  O     -6.145197    4.195386   10.344083
  H     -5.702245    3.686474    9.712227
  H     -8.197407    4.653290   10.309132
  H     -7.268155    5.662556    9.285951
  H     -7.753861    4.077137    8.861066

 Multiplicity           Mult            ....    1
 Number of Electrons    NEL             ....   18
 Basis Dimension        Dim             ....  172

ORBITAL ENERGIES
----------------

  NO   OCC          E(Eh)            E(eV)
   0   2.0000     -19.235601      -523.4273
   1   2.0000     -10.310730      -280.5692
   2   2.0000      -1.142640       -31.0928
   3   2.0000      -0.806489       -21.9457
   4   2.0000      -0.617213       -16.7952
   5   2.0000      -0.541130       -14.7249
   6   2.0000      -0.522075       -14.2064
   7   2.0000      -0.439045       -11.9470
   8   2.0000      -0.382384       -10.4052
   9   0.0000       0.072777         1.9804
  10   0.0000       0.131142         3.5685
  11   0.0000       0.156111         4.2480
  12   0.0000       0.163820         4.4578
  13   0.0000       0.196451         5.3457

MULLIKEN ATOMIC CHARGES
-----------------------
   0 C :   -0.001604
   1 O :   -0.001778
   2 H :   -0.000143
   3 H :    0.000198
   4 H :    0.000557
   5 H :   -0.002227
   6 C :   -0.188439
   7 O :   -0.451049
   8 H :    0.306338
   9 H :    0.115868
  10 H :    0.110472
  11 H :    0.111807
Sum of atomic charges:    0.0000000

LOEWDIN ATOMIC CHARGES
----------------------
   0 C :   -0.010444
   1 O :   -0.007950
   2 H :   -0.000512
   3 H :   -0.000116
   4 H :   -0.000356
   5 H :   -0.002985
   6 C :   -0.376814
   7 O :   -0.051792
   8 H :    0.152839
   9 H :    0.105504
  10 H :    0.093817
  11 H :    0.098810

  Mayer bond orders larger than 0.1
B(  6-C ,  7-O ) :   1.0049 B(  6-C ,  9-H ) :   0.9775 B(  6-C , 10-H ) :   0.9753
B(  6-C , 11-H ) :   0.9743 B(  7-O ,  8-H ) :   0.9193

Dispersion correction           -0.000273068
FINAL SINGLE POINT ENERGY      -115.728431832563

DIPOLE MOMENT
-------------
                                X             Y             Z
Electronic contribution:      1.68201      -0.56248       0.99234
Nuclear contribution   :     -1.89612       0.40557      -1.67328
                        -----------------------------------------
Total Dipole Moment    :     -0.21411      -0.15692      -0.68094
                        -----------------------------------------
Magnitude (a.u.)       :      0.73085
Magnitude (Debye)      :      1.85768

Rotational constants in cm-1:     4.690335     0.795322     0.775547
Rotational constants in MHz : 140612.711408 23843.150519 23250.320040

                             ****ORCA TERMINATED NORMALLY****
TOTAL RUN TIME: 0 days 0 hours 1 minutes 14 seconds 190 msec
