                         Program Version 4.1.2  - RELEASE  -
|  1> #Run DFT-D3 single point of the dimer
|  2> ! wB97X-D3 def2-TZVP TIGHTSCF CHELPG PMODEL PAL8
|  3>
|  4> %base "8-72_DFT_AB"
|  5>
|  6> %scf
|  7> MaxIter 1000
|  8> end
|  9>
| 10> * xyz 0 1
| 11>   C                      3.247449             0.489047             6.955197
| 12>   O                      3.339960             1.502602             5.982111
| 13>   H                      2.459960             1.640455             5.585835
| 14>   H                      2.534463             0.868375             7.717436
| 15>   H                      2.934831             -0.454493            6.529917
| 16>   H                      4.259433             0.461948             7.314150
| 17>   C                      2.918424             -1.073224            10.962592
| 18>   O                      2.812532             -0.713051            9.629298
| 19>   H                      3.606589             -1.101751            9.286905
| 20>   H                      3.143244             -2.142925            11.149663
| 21>   H                      3.761079             -0.528076            11.469402
| 22>   H                      1.979600             -0.963837            11.563361
| 23> *
| 24>
| 25> #Run DFT-D3 single point of the molecule with dimer basis set
| 26> $new_job
| 27> %base "8-72_DFT_A"
| 28> ! wB97X-D3 def2-TZVP TIGHTSCF CHELPG PMODEL
| 29>
| 30> %scf
| 31> MaxIter 1000
| 32> end
| 33>
| 34> * xyz 0 1
| 35>   C                      3.247449             0.489047             6.955197
| 36>   O                      3.339960             1.502602             5.982111
| 37>   H                      2.459960             1.640455             5.585835
| 38>   H                      2.534463             0.868375             7.717436
| 39>   H                      2.934831             -0.454493            6.529917
| 40>   H                      4.259433             0.461948             7.314150
| 41>   C                    : 2.918424             -1.073224            10.962592
| 42>   O                    : 2.812532             -0.713051            9.629298
| 43>   H                    : 3.606589             -1.101751            9.286905
| 44>   H                    : 3.143244             -2.142925            11.149663
| 45>   H                    : 3.761079             -0.528076            11.469402
| 46>   H                    : 1.979600             -0.963837            11.563361
| 47> *
| 48>
| 49> #Run DFT-D3 single point of the particle with dimer basis set
| 50> $new_job
| 51> %base "8-72_DFT_B"
| 52> ! wB97X-D3 def2-TZVP TIGHTSCF CHELPG PMODEL
| 53>
| 54> %scf
| 55> MaxIter 1000
| 56> end
| 57>
| 58> * xyz 0 1
| 59>   C                    : 3.247449             0.489047             6.955197
| 60>   O                    : 3.339960             1.502602             5.982111
| 61>   H                    : 2.459960             1.640455             5.585835
| 62>   H                    : 2.534463             0.868375             7.717436
| 63>   H                    : 2.934831             -0.454493            6.529917
| 64>   H                    : 4.259433             0.461948             7.314150
| 65>   C                      2.918424             -1.073224            10.962592
| 66>   O                      2.812532             -0.713051            9.629298
| 67>   H                      3.606589             -1.101751            9.286905
| 68>   H                      3.143244             -2.142925            11.149663
| 69>   H                      3.761079             -0.528076            11.469402
| 70>   H                      1.979600             -0.963837            11.563361
| 71> *
| 72>
| 73>                          ****END OF INPUT****
 Total Charge           Charge          ....    0
 Multiplicity           Mult            ....    1
 Number of Electrons    NEL             ....   36
Dispersion correction           -0.001566260
FINAL SINGLE POINT ENERGY      -231.464232727922
Dispersion correction           -0.000215506
FINAL SINGLE POINT ENERGY      -115.733548624215

CARTESIAN COORDINATES (ANGSTROEM)
---------------------------------
  C      3.247449    0.489047    6.955197
  O      3.339960    1.502602    5.982111
  H      2.459960    1.640455    5.585835
  H      2.534463    0.868375    7.717436
  H      2.934831   -0.454493    6.529917
  H      4.259433    0.461948    7.314150
  C      2.918424   -1.073224   10.962592
  O      2.812532   -0.713051    9.629298
  H      3.606589   -1.101751    9.286905
  H      3.143244   -2.142925   11.149663
  H      3.761079   -0.528076   11.469402
  H      1.979600   -0.963837   11.563361

 Multiplicity           Mult            ....    1
 Number of Electrons    NEL             ....   18
 Basis Dimension        Dim             ....  172

ORBITAL ENERGIES
----------------

  NO   OCC          E(Eh)            E(eV)
   0   2.0000     -19.237524      -523.4796
   1   2.0000     -10.319330      -280.8032
   2   2.0000      -1.157256       -31.4905
   3   2.0000      -0.789083       -21.4720
   4   2.0000      -0.620160       -16.8754
   5   2.0000      -0.545576       -14.8459
   6   2.0000      -0.528286       -14.3754
   7   2.0000      -0.437500       -11.9050
   8   2.0000      -0.374744       -10.1973
   9   0.0000       0.089706         2.4410
  10   0.0000       0.123459         3.3595
  11   0.0000       0.151505         4.1227
  12   0.0000       0.192322         5.2334
  13   0.0000       0.194349         5.2885

MULLIKEN ATOMIC CHARGES
-----------------------
   0 C :    0.001227
   1 O :   -0.000142
   2 H :   -0.000053
   3 H :   -0.006350
   4 H :   -0.001650
   5 H :   -0.002758
   6 C :   -0.193596
   7 O :   -0.433783
   8 H :    0.320299
   9 H :    0.098553
  10 H :    0.097518
  11 H :    0.120735
Sum of atomic charges:    0.0000000

LOEWDIN ATOMIC CHARGES
----------------------
   0 C :   -0.019464
   1 O :   -0.000080
   2 H :   -0.000015
   3 H :   -0.009889
   4 H :   -0.001156
   5 H :   -0.002287
   6 C :   -0.426922
   7 O :   -0.021813
   8 H :    0.176681
   9 H :    0.094756
  10 H :    0.097533
  11 H :    0.112655

  Mayer bond orders larger than 0.1
B(  6-C ,  7-O ) :   1.0046 B(  6-C ,  9-H ) :   0.9726 B(  6-C , 10-H ) :   0.9752
B(  6-C , 11-H ) :   0.9732 B(  7-O ,  8-H ) :   0.8965

Dispersion correction           -0.000228815
FINAL SINGLE POINT ENERGY      -115.730820942549

DIPOLE MOMENT
-------------
                                X             Y             Z
Electronic contribution:     -0.35170       0.63484      -1.90361
Nuclear contribution   :      0.86714      -1.03589       2.17610
                        -----------------------------------------
Total Dipole Moment    :      0.51545      -0.40105       0.27249
                        -----------------------------------------
Magnitude (a.u.)       :      0.70766
Magnitude (Debye)      :      1.79872

Rotational constants in cm-1:     4.258533     0.851818     0.819454
Rotational constants in MHz : 127667.604350 25536.856694 24566.615630

                             ****ORCA TERMINATED NORMALLY****
TOTAL RUN TIME: 0 days 0 hours 0 minutes 46 seconds 507 msec
