                         Program Version 4.1.2  - RELEASE  -
|  1> #Run DFT-D3 single point of the dimer
|  2> ! wB97X-D3 def2-TZVP TIGHTSCF CHELPG PMODEL PAL8
|  3>
|  4> %base "12-96_DFT_AB"
|  5>
|  6> %scf
|  7> MaxIter 1000
|  8> end
|  9>
| 10> * xyz 0 1
| 11>   C                      7.069487             6.948817             1.348319
| 12>   O                      6.833436             7.462442             0.067141
| 13>   H                      6.469724             6.786522             -0.512093
| 14>   H                      6.543788             6.020128             1.325691
| 15>   H                      8.106300             6.629288             1.569079
| 16>   H                      6.689718             7.616708             2.082214
| 17>   C                      1.985308             5.468408             -0.360350
| 18>   O                      0.722614             5.878839             -0.949379
| 19>   H                      0.881776             6.662856             -1.417531
| 20>   H                      2.010401             4.414437             0.026963
| 21>   H                      2.708360             5.469500             -1.256987
| 22>   H                      2.359041             6.154839             0.428649
| 23> *
| 24>
| 25> #Run DFT-D3 single point of the molecule with dimer basis set
| 26> $new_job
| 27> %base "12-96_DFT_A"
| 28> ! wB97X-D3 def2-TZVP TIGHTSCF CHELPG PMODEL
| 29>
| 30> %scf
| 31> MaxIter 1000
| 32> end
| 33>
| 34> * xyz 0 1
| 35>   C                      7.069487             6.948817             1.348319
| 36>   O                      6.833436             7.462442             0.067141
| 37>   H                      6.469724             6.786522             -0.512093
| 38>   H                      6.543788             6.020128             1.325691
| 39>   H                      8.106300             6.629288             1.569079
| 40>   H                      6.689718             7.616708             2.082214
| 41>   C                    : 1.985308             5.468408             -0.360350
| 42>   O                    : 0.722614             5.878839             -0.949379
| 43>   H                    : 0.881776             6.662856             -1.417531
| 44>   H                    : 2.010401             4.414437             0.026963
| 45>   H                    : 2.708360             5.469500             -1.256987
| 46>   H                    : 2.359041             6.154839             0.428649
| 47> *
| 48>
| 49> #Run DFT-D3 single point of the particle with dimer basis set
| 50> $new_job
| 51> %base "12-96_DFT_B"
| 52> ! wB97X-D3 def2-TZVP TIGHTSCF CHELPG PMODEL
| 53>
| 54> %scf
| 55> MaxIter 1000
| 56> end
| 57>
| 58> * xyz 0 1
| 59>   C                    : 7.069487             6.948817             1.348319
| 60>   O                    : 6.833436             7.462442             0.067141
| 61>   H                    : 6.469724             6.786522             -0.512093
| 62>   H                    : 6.543788             6.020128             1.325691
| 63>   H                    : 8.106300             6.629288             1.569079
| 64>   H                    : 6.689718             7.616708             2.082214
| 65>   C                      1.985308             5.468408             -0.360350
| 66>   O                      0.722614             5.878839             -0.949379
| 67>   H                      0.881776             6.662856             -1.417531
| 68>   H                      2.010401             4.414437             0.026963
| 69>   H                      2.708360             5.469500             -1.256987
| 70>   H                      2.359041             6.154839             0.428649
| 71> *
| 72>
| 73>                          ****END OF INPUT****
 Total Charge           Charge          ....    0
 Multiplicity           Mult            ....    1
 Number of Electrons    NEL             ....   36
Dispersion correction           -0.000722905
FINAL SINGLE POINT ENERGY      -231.457522337437
Dispersion correction           -0.000230809
FINAL SINGLE POINT ENERGY      -115.728965529913

CARTESIAN COORDINATES (ANGSTROEM)
---------------------------------
  C      7.069487    6.948817    1.348319
  O      6.833436    7.462442    0.067141
  H      6.469724    6.786522   -0.512093
  H      6.543788    6.020128    1.325691
  H      8.106300    6.629288    1.569079
  H      6.689718    7.616708    2.082214
  C      1.985308    5.468408   -0.360350
  O      0.722614    5.878839   -0.949379
  H      0.881776    6.662856   -1.417531
  H      2.010401    4.414437    0.026963
  H      2.708360    5.469500   -1.256987
  H      2.359041    6.154839    0.428649

 Multiplicity           Mult            ....    1
 Number of Electrons    NEL             ....   18
 Basis Dimension        Dim             ....  172

ORBITAL ENERGIES
----------------

  NO   OCC          E(Eh)            E(eV)
   0   2.0000     -19.227335      -523.2024
   1   2.0000     -10.329037      -281.0674
   2   2.0000      -1.133000       -30.8305
   3   2.0000      -0.791640       -21.5416
   4   2.0000      -0.603453       -16.4208
   5   2.0000      -0.537119       -14.6158
   6   2.0000      -0.526170       -14.3178
   7   2.0000      -0.430430       -11.7126
   8   2.0000      -0.374538       -10.1917
   9   0.0000       0.081853         2.2273
  10   0.0000       0.115671         3.1476
  11   0.0000       0.142735         3.8840
  12   0.0000       0.165292         4.4978
  13   0.0000       0.188300         5.1239

MULLIKEN ATOMIC CHARGES
-----------------------
   0 C :   -0.000017
   1 O :    0.000013
   2 H :   -0.000125
   3 H :   -0.000014
   4 H :   -0.000003
   5 H :    0.000003
   6 C :   -0.184696
   7 O :   -0.470393
   8 H :    0.310308
   9 H :    0.128745
  10 H :    0.104331
  11 H :    0.111849
Sum of atomic charges:    0.0000000

LOEWDIN ATOMIC CHARGES
----------------------
   0 C :   -0.000039
   1 O :   -0.000005
   2 H :   -0.000100
   3 H :   -0.000026
   4 H :   -0.000001
   5 H :   -0.000003
   6 C :   -0.369191
   7 O :   -0.092012
   8 H :    0.144130
   9 H :    0.113830
  10 H :    0.106307
  11 H :    0.097111

  Mayer bond orders larger than 0.1
B(  6-C ,  7-O ) :   0.9892 B(  6-C ,  9-H ) :   0.9679 B(  6-C , 10-H ) :   0.9886
B(  6-C , 11-H ) :   0.9635 B(  7-O ,  8-H ) :   0.9068

Dispersion correction           -0.000259762
FINAL SINGLE POINT ENERGY      -115.728386680976

DIPOLE MOMENT
-------------
                                X             Y             Z
Electronic contribution:     -1.74833       0.40638      -0.51852
Nuclear contribution   :      2.37169      -0.08734       0.46206
                        -----------------------------------------
Total Dipole Moment    :      0.62337       0.31904      -0.05646
                        -----------------------------------------
Magnitude (a.u.)       :      0.70254
Magnitude (Debye)      :      1.78571

Rotational constants in cm-1:     4.154439     0.787787     0.766530
Rotational constants in MHz : 124546.954257 23617.271031 22980.005344

                             ****ORCA TERMINATED NORMALLY****
TOTAL RUN TIME: 0 days 0 hours 0 minutes 40 seconds 88 msec
