                         Program Version 4.1.2  - RELEASE  -
|  1> #Run DFT-D3 single point of the dimer
|  2> ! wB97X-D3 def2-TZVP TIGHTSCF CHELPG PMODEL PAL8
|  3>
|  4> %base "12-134_DFT_AB"
|  5>
|  6> %scf
|  7> MaxIter 1000
|  8> end
|  9>
| 10> * xyz 0 1
| 11>   C                      -7.696293            1.609487             -5.820513
| 12>   O                      -7.350262            2.091528             -7.094658
| 13>   H                      -6.480464            1.701876             -7.237686
| 14>   H                      -8.568349            0.985886             -5.933055
| 15>   H                      -6.828819            0.999782             -5.470952
| 16>   H                      -7.973765            2.364178             -5.127782
| 17>   C                      -4.457753            0.302622             -8.468040
| 18>   O                      -4.609920            1.414455             -7.704517
| 19>   H                      -3.849356            2.042617             -7.768961
| 20>   H                      -3.651086            -0.370586            -8.200092
| 21>   H                      -5.302765            -0.325117            -8.665945
| 22>   H                      -4.199064            0.684449             -9.470733
| 23> *
| 24>
| 25> #Run DFT-D3 single point of the molecule with dimer basis set
| 26> $new_job
| 27> %base "12-134_DFT_A"
| 28> ! wB97X-D3 def2-TZVP TIGHTSCF CHELPG PMODEL
| 29>
| 30> %scf
| 31> MaxIter 1000
| 32> end
| 33>
| 34> * xyz 0 1
| 35>   C                      -7.696293            1.609487             -5.820513
| 36>   O                      -7.350262            2.091528             -7.094658
| 37>   H                      -6.480464            1.701876             -7.237686
| 38>   H                      -8.568349            0.985886             -5.933055
| 39>   H                      -6.828819            0.999782             -5.470952
| 40>   H                      -7.973765            2.364178             -5.127782
| 41>   C                    : -4.457753            0.302622             -8.468040
| 42>   O                    : -4.609920            1.414455             -7.704517
| 43>   H                    : -3.849356            2.042617             -7.768961
| 44>   H                    : -3.651086            -0.370586            -8.200092
| 45>   H                    : -5.302765            -0.325117            -8.665945
| 46>   H                    : -4.199064            0.684449             -9.470733
| 47> *
| 48>
| 49> #Run DFT-D3 single point of the particle with dimer basis set
| 50> $new_job
| 51> %base "12-134_DFT_B"
| 52> ! wB97X-D3 def2-TZVP TIGHTSCF CHELPG PMODEL
| 53>
| 54> %scf
| 55> MaxIter 1000
| 56> end
| 57>
| 58> * xyz 0 1
| 59>   C                    : -7.696293            1.609487             -5.820513
| 60>   O                    : -7.350262            2.091528             -7.094658
| 61>   H                    : -6.480464            1.701876             -7.237686
| 62>   H                    : -8.568349            0.985886             -5.933055
| 63>   H                    : -6.828819            0.999782             -5.470952
| 64>   H                    : -7.973765            2.364178             -5.127782
| 65>   C                      -4.457753            0.302622             -8.468040
| 66>   O                      -4.609920            1.414455             -7.704517
| 67>   H                      -3.849356            2.042617             -7.768961
| 68>   H                      -3.651086            -0.370586            -8.200092
| 69>   H                      -5.302765            -0.325117            -8.665945
| 70>   H                      -4.199064            0.684449             -9.470733
| 71> *
| 72>
| 73>                          ****END OF INPUT****
 Total Charge           Charge          ....    0
 Multiplicity           Mult            ....    1
 Number of Electrons    NEL             ....   36
Dispersion correction           -0.001708800
FINAL SINGLE POINT ENERGY      -231.465436877770
Dispersion correction           -0.000219909
FINAL SINGLE POINT ENERGY      -115.730978582995

CARTESIAN COORDINATES (ANGSTROEM)
---------------------------------
  C     -7.696293    1.609487   -5.820513
  O     -7.350262    2.091528   -7.094658
  H     -6.480464    1.701876   -7.237686
  H     -8.568349    0.985886   -5.933055
  H     -6.828819    0.999782   -5.470952
  H     -7.973765    2.364178   -5.127782
  C     -4.457753    0.302622   -8.468040
  O     -4.609920    1.414455   -7.704517
  H     -3.849356    2.042617   -7.768961
  H     -3.651086   -0.370586   -8.200092
  H     -5.302765   -0.325117   -8.665945
  H     -4.199064    0.684449   -9.470733

 Multiplicity           Mult            ....    1
 Number of Electrons    NEL             ....   18
 Basis Dimension        Dim             ....  172

ORBITAL ENERGIES
----------------

  NO   OCC          E(Eh)            E(eV)
   0   2.0000     -19.232086      -523.3317
   1   2.0000     -10.306389      -280.4511
   2   2.0000      -1.147711       -31.2308
   3   2.0000      -0.796785       -21.6816
   4   2.0000      -0.622248       -16.9322
   5   2.0000      -0.545517       -14.8443
   6   2.0000      -0.543336       -14.7849
   7   2.0000      -0.418211       -11.3801
   8   2.0000      -0.367143        -9.9905
   9   0.0000       0.099631         2.7111
  10   0.0000       0.120000         3.2654
  11   0.0000       0.151526         4.1232
  12   0.0000       0.195198         5.3116
  13   0.0000       0.204214         5.5569

MULLIKEN ATOMIC CHARGES
-----------------------
   0 C :    0.002179
   1 O :   -0.000618
   2 H :   -0.006429
   3 H :   -0.000193
   4 H :   -0.003546
   5 H :   -0.000053
   6 C :   -0.151447
   7 O :   -0.472717
   8 H :    0.325491
   9 H :    0.094678
  10 H :    0.126327
  11 H :    0.086327
Sum of atomic charges:    0.0000000

LOEWDIN ATOMIC CHARGES
----------------------
   0 C :   -0.002359
   1 O :   -0.005347
   2 H :   -0.038116
   3 H :   -0.000022
   4 H :   -0.001758
   5 H :   -0.000013
   6 C :   -0.427725
   7 O :   -0.010475
   8 H :    0.193168
   9 H :    0.090602
  10 H :    0.105431
  11 H :    0.096615

  Mayer bond orders larger than 0.1
B(  6-C ,  7-O ) :   0.9901 B(  6-C ,  9-H ) :   0.9677 B(  6-C , 10-H ) :   0.9718
B(  6-C , 11-H ) :   0.9957 B(  7-O ,  8-H ) :   0.8810

Dispersion correction           -0.000229863
FINAL SINGLE POINT ENERGY      -115.726171168249

DIPOLE MOMENT
-------------
                                X             Y             Z
Electronic contribution:     -0.42255       1.39018       1.27452
Nuclear contribution   :      0.96328      -1.40226      -1.61647
                        -----------------------------------------
Total Dipole Moment    :      0.54074      -0.01208      -0.34194
                        -----------------------------------------
Magnitude (a.u.)       :      0.63990
Magnitude (Debye)      :      1.62648

Rotational constants in cm-1:     4.558635     0.868350     0.840210
Rotational constants in MHz : 136664.440221 26032.472102 25188.872467

                             ****ORCA TERMINATED NORMALLY****
TOTAL RUN TIME: 0 days 0 hours 1 minutes 10 seconds 957 msec
