                         Program Version 4.1.2  - RELEASE  -
|  1> #Run DFT-D3 single point of the dimer
|  2> ! wB97X-D3 def2-TZVP TIGHTSCF CHELPG PMODEL PAL8
|  3>
|  4> %base "11-209_DFT_AB"
|  5>
|  6> %scf
|  7> MaxIter 1000
|  8> end
|  9>
| 10> * xyz 0 1
| 11>   C                      -3.305806            2.350428             7.299162
| 12>   O                      -3.492513            3.717809             7.040741
| 13>   H                      -2.856496            4.083690             6.472353
| 14>   H                      -3.657650            1.660644             6.502851
| 15>   H                      -2.260319            2.065325             7.468942
| 16>   H                      -3.889548            1.933458             8.115113
| 17>   C                      -0.654023            6.778145             8.172964
| 18>   O                      -0.235769            5.489788             7.996272
| 19>   H                      -0.225017            5.269445             7.060791
| 20>   H                      -1.732332            6.890273             7.783417
| 21>   H                      -0.546053            6.975857             9.236422
| 22>   H                      0.002497             7.437889             7.566165
| 23> *
| 24>
| 25> #Run DFT-D3 single point of the molecule with dimer basis set
| 26> $new_job
| 27> %base "11-209_DFT_A"
| 28> ! wB97X-D3 def2-TZVP TIGHTSCF CHELPG PMODEL
| 29>
| 30> %scf
| 31> MaxIter 1000
| 32> end
| 33>
| 34> * xyz 0 1
| 35>   C                      -3.305806            2.350428             7.299162
| 36>   O                      -3.492513            3.717809             7.040741
| 37>   H                      -2.856496            4.083690             6.472353
| 38>   H                      -3.657650            1.660644             6.502851
| 39>   H                      -2.260319            2.065325             7.468942
| 40>   H                      -3.889548            1.933458             8.115113
| 41>   C                    : -0.654023            6.778145             8.172964
| 42>   O                    : -0.235769            5.489788             7.996272
| 43>   H                    : -0.225017            5.269445             7.060791
| 44>   H                    : -1.732332            6.890273             7.783417
| 45>   H                    : -0.546053            6.975857             9.236422
| 46>   H                    : 0.002497             7.437889             7.566165
| 47> *
| 48>
| 49> #Run DFT-D3 single point of the particle with dimer basis set
| 50> $new_job
| 51> %base "11-209_DFT_B"
| 52> ! wB97X-D3 def2-TZVP TIGHTSCF CHELPG PMODEL
| 53>
| 54> %scf
| 55> MaxIter 1000
| 56> end
| 57>
| 58> * xyz 0 1
| 59>   C                    : -3.305806            2.350428             7.299162
| 60>   O                    : -3.492513            3.717809             7.040741
| 61>   H                    : -2.856496            4.083690             6.472353
| 62>   H                    : -3.657650            1.660644             6.502851
| 63>   H                    : -2.260319            2.065325             7.468942
| 64>   H                    : -3.889548            1.933458             8.115113
| 65>   C                      -0.654023            6.778145             8.172964
| 66>   O                      -0.235769            5.489788             7.996272
| 67>   H                      -0.225017            5.269445             7.060791
| 68>   H                      -1.732332            6.890273             7.783417
| 69>   H                      -0.546053            6.975857             9.236422
| 70>   H                      0.002497             7.437889             7.566165
| 71> *
| 72>
| 73>                          ****END OF INPUT****
 Total Charge           Charge          ....    0
 Multiplicity           Mult            ....    1
 Number of Electrons    NEL             ....   36
Dispersion correction           -0.001284102
FINAL SINGLE POINT ENERGY      -231.462622734811
Dispersion correction           -0.000272281
FINAL SINGLE POINT ENERGY      -115.730832183881

CARTESIAN COORDINATES (ANGSTROEM)
---------------------------------
  C     -3.305806    2.350428    7.299162
  O     -3.492513    3.717809    7.040741
  H     -2.856496    4.083690    6.472353
  H     -3.657650    1.660644    6.502851
  H     -2.260319    2.065325    7.468942
  H     -3.889548    1.933458    8.115113
  C     -0.654023    6.778145    8.172964
  O     -0.235769    5.489788    7.996272
  H     -0.225017    5.269445    7.060791
  H     -1.732332    6.890273    7.783417
  H     -0.546053    6.975857    9.236422
  H      0.002497    7.437889    7.566165

 Multiplicity           Mult            ....    1
 Number of Electrons    NEL             ....   18
 Basis Dimension        Dim             ....  172

ORBITAL ENERGIES
----------------

  NO   OCC          E(Eh)            E(eV)
   0   2.0000     -19.227171      -523.1979
   1   2.0000     -10.316293      -280.7206
   2   2.0000      -1.150866       -31.3167
   3   2.0000      -0.788586       -21.4585
   4   2.0000      -0.616861       -16.7856
   5   2.0000      -0.542855       -14.7718
   6   2.0000      -0.535390       -14.5687
   7   2.0000      -0.429627       -11.6907
   8   2.0000      -0.366161        -9.9638
   9   0.0000       0.083564         2.2739
  10   0.0000       0.117808         3.2057
  11   0.0000       0.158587         4.3154
  12   0.0000       0.168626         4.5885
  13   0.0000       0.201472         5.4823

MULLIKEN ATOMIC CHARGES
-----------------------
   0 C :    0.000810
   1 O :   -0.000109
   2 H :   -0.002801
   3 H :   -0.000093
   4 H :   -0.001119
   5 H :    0.000029
   6 C :   -0.138861
   7 O :   -0.466665
   8 H :    0.315418
   9 H :    0.086383
  10 H :    0.118484
  11 H :    0.088524
Sum of atomic charges:    0.0000000

LOEWDIN ATOMIC CHARGES
----------------------
   0 C :   -0.000664
   1 O :   -0.000491
   2 H :   -0.001808
   3 H :   -0.000018
   4 H :   -0.000376
   5 H :   -0.000002
   6 C :   -0.422684
   7 O :   -0.045517
   8 H :    0.170660
   9 H :    0.099330
  10 H :    0.108327
  11 H :    0.093244

  Mayer bond orders larger than 0.1
B(  6-C ,  7-O ) :   1.0023 B(  6-C ,  9-H ) :   0.9731 B(  6-C , 10-H ) :   0.9715
B(  6-C , 11-H ) :   0.9831 B(  7-O ,  8-H ) :   0.8958

Dispersion correction           -0.000213942
FINAL SINGLE POINT ENERGY      -115.732314301233

DIPOLE MOMENT
-------------
                                X             Y             Z
Electronic contribution:      0.57540      -1.63893       0.00792
Nuclear contribution   :     -0.68620       1.96266      -0.52682
                        -----------------------------------------
Total Dipole Moment    :     -0.11080       0.32374      -0.51889
                        -----------------------------------------
Magnitude (a.u.)       :      0.62156
Magnitude (Debye)      :      1.57987

Rotational constants in cm-1:     4.041745     0.887568     0.852442
Rotational constants in MHz : 121168.459730 26608.618510 25555.561183

                             ****ORCA TERMINATED NORMALLY****
TOTAL RUN TIME: 0 days 0 hours 1 minutes 2 seconds 890 msec
