                         Program Version 4.1.2  - RELEASE  -
|  1> #Run DFT-D3 single point of the dimer
|  2> ! wB97X-D3 def2-TZVP TIGHTSCF CHELPG PMODEL PAL8
|  3>
|  4> %base "20-149_DFT_AB"
|  5>
|  6> %scf
|  7> MaxIter 1000
|  8> end
|  9>
| 10> * xyz 0 1
| 11>   C                      8.874004             3.085476             10.304063
| 12>   O                      10.145730            2.658727             10.076454
| 13>   H                      10.009521            2.341201             9.163586
| 14>   H                      8.100950             2.601199             9.643964
| 15>   H                      8.573518             2.918579             11.333169
| 16>   H                      8.874306             4.171957             10.147073
| 17>   C                      9.852805             2.536986             6.346321
| 18>   O                      10.621081            3.442054             7.096839
| 19>   H                      11.562770            3.264983             7.108243
| 20>   H                      10.217700            2.501247             5.300806
| 21>   H                      9.950374             1.489941             6.691329
| 22>   H                      8.787887             2.747556             6.456401
| 23> *
| 24>
| 25> #Run DFT-D3 single point of the molecule with dimer basis set
| 26> $new_job
| 27> %base "20-149_DFT_A"
| 28> ! wB97X-D3 def2-TZVP TIGHTSCF CHELPG PMODEL
| 29>
| 30> %scf
| 31> MaxIter 1000
| 32> end
| 33>
| 34> * xyz 0 1
| 35>   C                      8.874004             3.085476             10.304063
| 36>   O                      10.145730            2.658727             10.076454
| 37>   H                      10.009521            2.341201             9.163586
| 38>   H                      8.100950             2.601199             9.643964
| 39>   H                      8.573518             2.918579             11.333169
| 40>   H                      8.874306             4.171957             10.147073
| 41>   C                    : 9.852805             2.536986             6.346321
| 42>   O                    : 10.621081            3.442054             7.096839
| 43>   H                    : 11.562770            3.264983             7.108243
| 44>   H                    : 10.217700            2.501247             5.300806
| 45>   H                    : 9.950374             1.489941             6.691329
| 46>   H                    : 8.787887             2.747556             6.456401
| 47> *
| 48>
| 49> #Run DFT-D3 single point of the particle with dimer basis set
| 50> $new_job
| 51> %base "20-149_DFT_B"
| 52> ! wB97X-D3 def2-TZVP TIGHTSCF CHELPG PMODEL
| 53>
| 54> %scf
| 55> MaxIter 1000
| 56> end
| 57>
| 58> * xyz 0 1
| 59>   C                    : 8.874004             3.085476             10.304063
| 60>   O                    : 10.145730            2.658727             10.076454
| 61>   H                    : 10.009521            2.341201             9.163586
| 62>   H                    : 8.100950             2.601199             9.643964
| 63>   H                    : 8.573518             2.918579             11.333169
| 64>   H                    : 8.874306             4.171957             10.147073
| 65>   C                      9.852805             2.536986             6.346321
| 66>   O                      10.621081            3.442054             7.096839
| 67>   H                      11.562770            3.264983             7.108243
| 68>   H                      10.217700            2.501247             5.300806
| 69>   H                      9.950374             1.489941             6.691329
| 70>   H                      8.787887             2.747556             6.456401
| 71> *
| 72>
| 73>                          ****END OF INPUT****
 Total Charge           Charge          ....    0
 Multiplicity           Mult            ....    1
 Number of Electrons    NEL             ....   36
Dispersion correction           -0.001981074
FINAL SINGLE POINT ENERGY      -231.464854191135
Dispersion correction           -0.000201517
FINAL SINGLE POINT ENERGY      -115.727504171534

CARTESIAN COORDINATES (ANGSTROEM)
---------------------------------
  C      8.874004    3.085476   10.304063
  O     10.145730    2.658727   10.076454
  H     10.009521    2.341201    9.163586
  H      8.100950    2.601199    9.643964
  H      8.573518    2.918579   11.333169
  H      8.874306    4.171957   10.147073
  C      9.852805    2.536986    6.346321
  O     10.621081    3.442054    7.096839
  H     11.562770    3.264983    7.108243
  H     10.217700    2.501247    5.300806
  H      9.950374    1.489941    6.691329
  H      8.787887    2.747556    6.456401

 Multiplicity           Mult            ....    1
 Number of Electrons    NEL             ....   18
 Basis Dimension        Dim             ....  172

ORBITAL ENERGIES
----------------

  NO   OCC          E(Eh)            E(eV)
   0   2.0000     -19.228558      -523.2357
   1   2.0000     -10.315691      -280.7042
   2   2.0000      -1.135482       -30.8980
   3   2.0000      -0.797586       -21.7034
   4   2.0000      -0.616082       -16.7644
   5   2.0000      -0.543636       -14.7931
   6   2.0000      -0.524440       -14.2707
   7   2.0000      -0.427898       -11.6437
   8   2.0000      -0.369924       -10.0661
   9   0.0000       0.094290         2.5658
  10   0.0000       0.125752         3.4219
  11   0.0000       0.149506         4.0683
  12   0.0000       0.181714         4.9447
  13   0.0000       0.194927         5.3042

MULLIKEN ATOMIC CHARGES
-----------------------
   0 C :    0.000939
   1 O :    0.001793
   2 H :   -0.007389
   3 H :   -0.000572
   4 H :   -0.000125
   5 H :   -0.001337
   6 C :   -0.167559
   7 O :   -0.483718
   8 H :    0.318225
   9 H :    0.110067
  10 H :    0.100937
  11 H :    0.128739
Sum of atomic charges:   -0.0000000

LOEWDIN ATOMIC CHARGES
----------------------
   0 C :   -0.003216
   1 O :   -0.004346
   2 H :   -0.013728
   3 H :   -0.000240
   4 H :   -0.000062
   5 H :   -0.000630
   6 C :   -0.393052
   7 O :   -0.056695
   8 H :    0.167047
   9 H :    0.098808
  10 H :    0.095231
  11 H :    0.110884

  Mayer bond orders larger than 0.1
B(  6-C ,  7-O ) :   0.9798 B(  6-C ,  9-H ) :   0.9755 B(  6-C , 10-H ) :   0.9767
B(  6-C , 11-H ) :   0.9722 B(  7-O ,  8-H ) :   0.8921

Dispersion correction           -0.000254709
FINAL SINGLE POINT ENERGY      -115.734293367846

DIPOLE MOMENT
-------------
                                X             Y             Z
Electronic contribution:      0.83410       1.32183       0.96583
Nuclear contribution   :     -0.52611      -1.80740      -1.26018
                        -----------------------------------------
Total Dipole Moment    :      0.30799      -0.48557      -0.29435
                        -----------------------------------------
Magnitude (a.u.)       :      0.64597
Magnitude (Debye)      :      1.64193

Rotational constants in cm-1:     4.360575     0.830792     0.797639
Rotational constants in MHz : 130726.759285 24906.524655 23912.614648

                             ****ORCA TERMINATED NORMALLY****
TOTAL RUN TIME: 0 days 0 hours 1 minutes 8 seconds 385 msec
