                         Program Version 4.1.2  - RELEASE  -
|  1> #Run DFT-D3 single point of the dimer
|  2> ! wB97X-D3 def2-TZVP TIGHTSCF CHELPG PMODEL PAL8
|  3>
|  4> %base "14-157_DFT_AB"
|  5>
|  6> %scf
|  7> MaxIter 1000
|  8> end
|  9>
| 10> * xyz 0 1
| 11>   C                      -0.024372            -3.885703            -9.135694
| 12>   O                      1.193417             -4.571755            -8.830151
| 13>   H                      1.057361             -5.472801            -8.697428
| 14>   H                      0.187566             -2.775879            -9.153679
| 15>   H                      -0.366519            -4.130893            -10.134858
| 16>   H                      -0.855381            -4.094383            -8.449808
| 17>   C                      1.012450             -8.087145            -8.966099
| 18>   O                      0.468687             -7.235408            -8.032488
| 19>   H                      -0.158623            -7.797549            -7.577769
| 20>   H                      0.352099             -8.187709            -9.837773
| 21>   H                      1.985978             -7.762888            -9.296149
| 22>   H                      1.128138             -9.072692            -8.465791
| 23> *
| 24>
| 25> #Run DFT-D3 single point of the molecule with dimer basis set
| 26> $new_job
| 27> %base "14-157_DFT_A"
| 28> ! wB97X-D3 def2-TZVP TIGHTSCF CHELPG PMODEL
| 29>
| 30> %scf
| 31> MaxIter 1000
| 32> end
| 33>
| 34> * xyz 0 1
| 35>   C                      -0.024372            -3.885703            -9.135694
| 36>   O                      1.193417             -4.571755            -8.830151
| 37>   H                      1.057361             -5.472801            -8.697428
| 38>   H                      0.187566             -2.775879            -9.153679
| 39>   H                      -0.366519            -4.130893            -10.134858
| 40>   H                      -0.855381            -4.094383            -8.449808
| 41>   C                    : 1.012450             -8.087145            -8.966099
| 42>   O                    : 0.468687             -7.235408            -8.032488
| 43>   H                    : -0.158623            -7.797549            -7.577769
| 44>   H                    : 0.352099             -8.187709            -9.837773
| 45>   H                    : 1.985978             -7.762888            -9.296149
| 46>   H                    : 1.128138             -9.072692            -8.465791
| 47> *
| 48>
| 49> #Run DFT-D3 single point of the particle with dimer basis set
| 50> $new_job
| 51> %base "14-157_DFT_B"
| 52> ! wB97X-D3 def2-TZVP TIGHTSCF CHELPG PMODEL
| 53>
| 54> %scf
| 55> MaxIter 1000
| 56> end
| 57>
| 58> * xyz 0 1
| 59>   C                    : -0.024372            -3.885703            -9.135694
| 60>   O                    : 1.193417             -4.571755            -8.830151
| 61>   H                    : 1.057361             -5.472801            -8.697428
| 62>   H                    : 0.187566             -2.775879            -9.153679
| 63>   H                    : -0.366519            -4.130893            -10.134858
| 64>   H                    : -0.855381            -4.094383            -8.449808
| 65>   C                      1.012450             -8.087145            -8.966099
| 66>   O                      0.468687             -7.235408            -8.032488
| 67>   H                      -0.158623            -7.797549            -7.577769
| 68>   H                      0.352099             -8.187709            -9.837773
| 69>   H                      1.985978             -7.762888            -9.296149
| 70>   H                      1.128138             -9.072692            -8.465791
| 71> *
| 72>
| 73>                          ****END OF INPUT****
 Total Charge           Charge          ....    0
 Multiplicity           Mult            ....    1
 Number of Electrons    NEL             ....   36
Dispersion correction           -0.001745738
FINAL SINGLE POINT ENERGY      -231.472834875556
Dispersion correction           -0.000261517
FINAL SINGLE POINT ENERGY      -115.734341260770

CARTESIAN COORDINATES (ANGSTROEM)
---------------------------------
  C     -0.024372   -3.885703   -9.135694
  O      1.193417   -4.571755   -8.830151
  H      1.057361   -5.472801   -8.697428
  H      0.187566   -2.775879   -9.153679
  H     -0.366519   -4.130893  -10.134858
  H     -0.855381   -4.094383   -8.449808
  C      1.012450   -8.087145   -8.966099
  O      0.468687   -7.235408   -8.032488
  H     -0.158623   -7.797549   -7.577769
  H      0.352099   -8.187709   -9.837773
  H      1.985978   -7.762888   -9.296149
  H      1.128138   -9.072692   -8.465791

 Multiplicity           Mult            ....    1
 Number of Electrons    NEL             ....   18
 Basis Dimension        Dim             ....  172

ORBITAL ENERGIES
----------------

  NO   OCC          E(Eh)            E(eV)
   0   2.0000     -19.230224      -523.2810
   1   2.0000     -10.311046      -280.5778
   2   2.0000      -1.153849       -31.3978
   3   2.0000      -0.790135       -21.5007
   4   2.0000      -0.616609       -16.7788
   5   2.0000      -0.549728       -14.9589
   6   2.0000      -0.536986       -14.6121
   7   2.0000      -0.433683       -11.8011
   8   2.0000      -0.371314       -10.1040
   9   0.0000       0.097001         2.6395
  10   0.0000       0.121867         3.3162
  11   0.0000       0.156970         4.2714
  12   0.0000       0.187010         5.0888
  13   0.0000       0.196511         5.3473

MULLIKEN ATOMIC CHARGES
-----------------------
   0 C :   -0.001134
   1 O :    0.001285
   2 H :   -0.004631
   3 H :   -0.000240
   4 H :   -0.000340
   5 H :   -0.001847
   6 C :   -0.153319
   7 O :   -0.451137
   8 H :    0.311662
   9 H :    0.093788
  10 H :    0.112256
  11 H :    0.093656
Sum of atomic charges:   -0.0000000

LOEWDIN ATOMIC CHARGES
----------------------
   0 C :   -0.004302
   1 O :   -0.004469
   2 H :   -0.031221
   3 H :   -0.000075
   4 H :   -0.000127
   5 H :   -0.000986
   6 C :   -0.409457
   7 O :   -0.019300
   8 H :    0.173900
   9 H :    0.093552
  10 H :    0.102640
  11 H :    0.099844

  Mayer bond orders larger than 0.1
B(  6-C ,  7-O ) :   0.9949 B(  6-C ,  9-H ) :   0.9716 B(  6-C , 10-H ) :   0.9788
B(  6-C , 11-H ) :   0.9866 B(  7-O ,  8-H ) :   0.9013

Dispersion correction           -0.000202183
FINAL SINGLE POINT ENERGY      -115.733053971627

DIPOLE MOMENT
-------------
                                X             Y             Z
Electronic contribution:     -0.57898       1.30904       1.13613
Nuclear contribution   :      0.40651      -1.97675      -1.17943
                        -----------------------------------------
Total Dipole Moment    :     -0.17248      -0.66770      -0.04330
                        -----------------------------------------
Magnitude (a.u.)       :      0.69098
Magnitude (Debye)      :      1.75633

Rotational constants in cm-1:     4.204114     0.880673     0.847868
Rotational constants in MHz : 126036.159692 26401.919588 25418.431626

                             ****ORCA TERMINATED NORMALLY****
TOTAL RUN TIME: 0 days 0 hours 1 minutes 11 seconds 751 msec
