                         Program Version 4.1.2  - RELEASE  -
|  1> #Run DFT-D3 single point of the dimer
|  2> ! wB97X-D3 def2-TZVP TIGHTSCF CHELPG PMODEL PAL8
|  3>
|  4> %base "14-186_DFT_AB"
|  5>
|  6> %scf
|  7> MaxIter 1000
|  8> end
|  9>
| 10> * xyz 0 1
| 11>   C                      3.680498             2.335612             0.190636
| 12>   O                      4.893785             1.958004             0.847665
| 13>   H                      5.476696             1.627880             0.132417
| 14>   H                      3.773636             2.993821             -0.671878
| 15>   H                      3.025651             1.475557             -0.033071
| 16>   H                      3.056318             2.917527             0.823814
| 17>   C                      5.780890             -0.100329            3.149870
| 18>   O                      5.712710             1.233009             3.418751
| 19>   H                      5.479120             1.654514             2.574819
| 20>   H                      5.821208             -0.761810            4.007093
| 21>   H                      4.899948             -0.335933            2.576816
| 22>   H                      6.631527             -0.432160            2.521753
| 23> *
| 24>
| 25> #Run DFT-D3 single point of the molecule with dimer basis set
| 26> $new_job
| 27> %base "14-186_DFT_A"
| 28> ! wB97X-D3 def2-TZVP TIGHTSCF CHELPG PMODEL
| 29>
| 30> %scf
| 31> MaxIter 1000
| 32> end
| 33>
| 34> * xyz 0 1
| 35>   C                      3.680498             2.335612             0.190636
| 36>   O                      4.893785             1.958004             0.847665
| 37>   H                      5.476696             1.627880             0.132417
| 38>   H                      3.773636             2.993821             -0.671878
| 39>   H                      3.025651             1.475557             -0.033071
| 40>   H                      3.056318             2.917527             0.823814
| 41>   C                    : 5.780890             -0.100329            3.149870
| 42>   O                    : 5.712710             1.233009             3.418751
| 43>   H                    : 5.479120             1.654514             2.574819
| 44>   H                    : 5.821208             -0.761810            4.007093
| 45>   H                    : 4.899948             -0.335933            2.576816
| 46>   H                    : 6.631527             -0.432160            2.521753
| 47> *
| 48>
| 49> #Run DFT-D3 single point of the particle with dimer basis set
| 50> $new_job
| 51> %base "14-186_DFT_B"
| 52> ! wB97X-D3 def2-TZVP TIGHTSCF CHELPG PMODEL
| 53>
| 54> %scf
| 55> MaxIter 1000
| 56> end
| 57>
| 58> * xyz 0 1
| 59>   C                    : 3.680498             2.335612             0.190636
| 60>   O                    : 4.893785             1.958004             0.847665
| 61>   H                    : 5.476696             1.627880             0.132417
| 62>   H                    : 3.773636             2.993821             -0.671878
| 63>   H                    : 3.025651             1.475557             -0.033071
| 64>   H                    : 3.056318             2.917527             0.823814
| 65>   C                      5.780890             -0.100329            3.149870
| 66>   O                      5.712710             1.233009             3.418751
| 67>   H                      5.479120             1.654514             2.574819
| 68>   H                      5.821208             -0.761810            4.007093
| 69>   H                      4.899948             -0.335933            2.576816
| 70>   H                      6.631527             -0.432160            2.521753
| 71> *
| 72>
| 73>                          ****END OF INPUT****
 Total Charge           Charge          ....    0
 Multiplicity           Mult            ....    1
 Number of Electrons    NEL             ....   36
Dispersion correction           -0.001878861
FINAL SINGLE POINT ENERGY      -231.472449309386
Dispersion correction           -0.000263365
FINAL SINGLE POINT ENERGY      -115.732881485771

CARTESIAN COORDINATES (ANGSTROEM)
---------------------------------
  C      3.680498    2.335612    0.190636
  O      4.893785    1.958004    0.847665
  H      5.476696    1.627880    0.132417
  H      3.773636    2.993821   -0.671878
  H      3.025651    1.475557   -0.033071
  H      3.056318    2.917527    0.823814
  C      5.780890   -0.100329    3.149870
  O      5.712710    1.233009    3.418751
  H      5.479120    1.654514    2.574819
  H      5.821208   -0.761810    4.007093
  H      4.899948   -0.335933    2.576816
  H      6.631527   -0.432160    2.521753

 Multiplicity           Mult            ....    1
 Number of Electrons    NEL             ....   18
 Basis Dimension        Dim             ....  172

ORBITAL ENERGIES
----------------

  NO   OCC          E(Eh)            E(eV)
   0   2.0000     -19.233678      -523.3750
   1   2.0000     -10.307259      -280.4748
   2   2.0000      -1.154915       -31.4268
   3   2.0000      -0.792865       -21.5750
   4   2.0000      -0.622065       -16.9273
   5   2.0000      -0.549601       -14.9554
   6   2.0000      -0.536845       -14.6083
   7   2.0000      -0.431753       -11.7486
   8   2.0000      -0.368973       -10.0403
   9   0.0000       0.065566         1.7841
  10   0.0000       0.131123         3.5680
  11   0.0000       0.151095         4.1115
  12   0.0000       0.164360         4.4725
  13   0.0000       0.186186         5.0664

MULLIKEN ATOMIC CHARGES
-----------------------
   0 C :   -0.001746
   1 O :   -0.005832
   2 H :   -0.000060
   3 H :    0.000017
   4 H :   -0.000126
   5 H :    0.000101
   6 C :   -0.168118
   7 O :   -0.456138
   8 H :    0.323529
   9 H :    0.119191
  10 H :    0.098141
  11 H :    0.091041
Sum of atomic charges:    0.0000000

LOEWDIN ATOMIC CHARGES
----------------------
   0 C :   -0.002400
   1 O :   -0.025384
   2 H :   -0.001632
   3 H :   -0.000051
   4 H :   -0.000099
   5 H :   -0.000160
   6 C :   -0.429260
   7 O :   -0.028375
   8 H :    0.196203
   9 H :    0.105155
  10 H :    0.092209
  11 H :    0.093793

  Mayer bond orders larger than 0.1
B(  6-C ,  7-O ) :   0.9968 B(  6-C ,  9-H ) :   0.9722 B(  6-C , 10-H ) :   0.9931
B(  6-C , 11-H ) :   0.9726 B(  7-O ,  8-H ) :   0.9005

Dispersion correction           -0.000214011
FINAL SINGLE POINT ENERGY      -115.730718651881

DIPOLE MOMENT
-------------
                                X             Y             Z
Electronic contribution:     -0.02646       1.83463       0.64547
Nuclear contribution   :     -0.11189      -2.05742      -1.25509
                        -----------------------------------------
Total Dipole Moment    :     -0.13835      -0.22279      -0.60962
                        -----------------------------------------
Magnitude (a.u.)       :      0.66364
Magnitude (Debye)      :      1.68683

Rotational constants in cm-1:     4.409361     0.881243     0.844100
Rotational constants in MHz : 132189.312438 26419.012853 25305.470977

                             ****ORCA TERMINATED NORMALLY****
TOTAL RUN TIME: 0 days 0 hours 1 minutes 7 seconds 954 msec
