                         Program Version 4.1.2  - RELEASE  -
|  1> #Run DFT-D3 single point of the dimer
|  2> ! wB97X-D3 def2-TZVP TIGHTSCF CHELPG PMODEL PAL8
|  3>
|  4> %base "12-9_DFT_AB"
|  5>
|  6> %scf
|  7> MaxIter 1000
|  8> end
|  9>
| 10> * xyz 0 1
| 11>   C                      -3.318311            -0.619609            -4.975786
| 12>   O                      -2.848868            -0.188945            -3.711665
| 13>   H                      -2.709265            0.711760             -3.772373
| 14>   H                      -2.662649            -0.195860            -5.703031
| 15>   H                      -3.228268            -1.702189            -5.124246
| 16>   H                      -4.392851            -0.308560            -5.145854
| 17>   C                      -6.737067            -1.854229            -3.519929
| 18>   O                      -7.192342            -3.164217            -3.769857
| 19>   H                      -7.496775            -3.389537            -2.879806
| 20>   H                      -6.681787            -1.336353            -4.565790
| 21>   H                      -7.464950            -1.145301            -2.982328
| 22>   H                      -5.778120            -1.870265            -3.005641
| 23> *
| 24>
| 25> #Run DFT-D3 single point of the molecule with dimer basis set
| 26> $new_job
| 27> %base "12-9_DFT_A"
| 28> ! wB97X-D3 def2-TZVP TIGHTSCF CHELPG PMODEL
| 29>
| 30> %scf
| 31> MaxIter 1000
| 32> end
| 33>
| 34> * xyz 0 1
| 35>   C                      -3.318311            -0.619609            -4.975786
| 36>   O                      -2.848868            -0.188945            -3.711665
| 37>   H                      -2.709265            0.711760             -3.772373
| 38>   H                      -2.662649            -0.195860            -5.703031
| 39>   H                      -3.228268            -1.702189            -5.124246
| 40>   H                      -4.392851            -0.308560            -5.145854
| 41>   C                    : -6.737067            -1.854229            -3.519929
| 42>   O                    : -7.192342            -3.164217            -3.769857
| 43>   H                    : -7.496775            -3.389537            -2.879806
| 44>   H                    : -6.681787            -1.336353            -4.565790
| 45>   H                    : -7.464950            -1.145301            -2.982328
| 46>   H                    : -5.778120            -1.870265            -3.005641
| 47> *
| 48>
| 49> #Run DFT-D3 single point of the particle with dimer basis set
| 50> $new_job
| 51> %base "12-9_DFT_B"
| 52> ! wB97X-D3 def2-TZVP TIGHTSCF CHELPG PMODEL
| 53>
| 54> %scf
| 55> MaxIter 1000
| 56> end
| 57>
| 58> * xyz 0 1
| 59>   C                    : -3.318311            -0.619609            -4.975786
| 60>   O                    : -2.848868            -0.188945            -3.711665
| 61>   H                    : -2.709265            0.711760             -3.772373
| 62>   H                    : -2.662649            -0.195860            -5.703031
| 63>   H                    : -3.228268            -1.702189            -5.124246
| 64>   H                    : -4.392851            -0.308560            -5.145854
| 65>   C                      -6.737067            -1.854229            -3.519929
| 66>   O                      -7.192342            -3.164217            -3.769857
| 67>   H                      -7.496775            -3.389537            -2.879806
| 68>   H                      -6.681787            -1.336353            -4.565790
| 69>   H                      -7.464950            -1.145301            -2.982328
| 70>   H                      -5.778120            -1.870265            -3.005641
| 71> *
| 72>
| 73>                          ****END OF INPUT****
 Total Charge           Charge          ....    0
 Multiplicity           Mult            ....    1
 Number of Electrons    NEL             ....   36
Dispersion correction           -0.001483983
FINAL SINGLE POINT ENERGY      -231.460442989873
Dispersion correction           -0.000229502
FINAL SINGLE POINT ENERGY      -115.731668282388

CARTESIAN COORDINATES (ANGSTROEM)
---------------------------------
  C     -3.318311   -0.619609   -4.975786
  O     -2.848868   -0.188945   -3.711665
  H     -2.709265    0.711760   -3.772373
  H     -2.662649   -0.195860   -5.703031
  H     -3.228268   -1.702189   -5.124246
  H     -4.392851   -0.308560   -5.145854
  C     -6.737067   -1.854229   -3.519929
  O     -7.192342   -3.164217   -3.769857
  H     -7.496775   -3.389537   -2.879806
  H     -6.681787   -1.336353   -4.565790
  H     -7.464950   -1.145301   -2.982328
  H     -5.778120   -1.870265   -3.005641

 Multiplicity           Mult            ....    1
 Number of Electrons    NEL             ....   18
 Basis Dimension        Dim             ....  172

ORBITAL ENERGIES
----------------

  NO   OCC          E(Eh)            E(eV)
   0   2.0000     -19.237454      -523.4777
   1   2.0000     -10.325403      -280.9685
   2   2.0000      -1.145469       -31.1698
   3   2.0000      -0.781706       -21.2713
   4   2.0000      -0.609448       -16.5839
   5   2.0000      -0.549402       -14.9500
   6   2.0000      -0.515178       -14.0187
   7   2.0000      -0.431920       -11.7531
   8   2.0000      -0.378639       -10.3033
   9   0.0000       0.086723         2.3598
  10   0.0000       0.114248         3.1088
  11   0.0000       0.153777         4.1845
  12   0.0000       0.164270         4.4700
  13   0.0000       0.178483         4.8568

MULLIKEN ATOMIC CHARGES
-----------------------
   0 C :   -0.000427
   1 O :    0.000103
   2 H :   -0.000017
   3 H :   -0.000015
   4 H :    0.000483
   5 H :   -0.001400
   6 C :   -0.193017
   7 O :   -0.448522
   8 H :    0.315453
   9 H :    0.113694
  10 H :    0.102170
  11 H :    0.111493
Sum of atomic charges:    0.0000000

LOEWDIN ATOMIC CHARGES
----------------------
   0 C :   -0.003676
   1 O :   -0.000209
   2 H :   -0.000024
   3 H :   -0.000027
   4 H :   -0.000229
   5 H :   -0.003824
   6 C :   -0.414817
   7 O :   -0.072383
   8 H :    0.178157
   9 H :    0.122372
  10 H :    0.101323
  11 H :    0.093336

  Mayer bond orders larger than 0.1
B(  6-C ,  7-O ) :   1.0071 B(  6-C ,  9-H ) :   0.9740 B(  6-C , 10-H ) :   0.9642
B(  6-C , 11-H ) :   0.9677 B(  7-O ,  8-H ) :   0.9012

Dispersion correction           -0.000241587
FINAL SINGLE POINT ENERGY      -115.727421863704

DIPOLE MOMENT
-------------
                                X             Y             Z
Electronic contribution:     -0.49138      -1.84983      -0.36397
Nuclear contribution   :      0.46172       2.17891       0.99608
                        -----------------------------------------
Total Dipole Moment    :     -0.02966       0.32909       0.63211
                        -----------------------------------------
Magnitude (a.u.)       :      0.71326
Magnitude (Debye)      :      1.81298

Rotational constants in cm-1:     3.984207     0.835242     0.805287
Rotational constants in MHz : 119443.524233 25039.929652 24141.903276

                             ****ORCA TERMINATED NORMALLY****
TOTAL RUN TIME: 0 days 0 hours 1 minutes 5 seconds 567 msec
