                         Program Version 4.1.2  - RELEASE  -
|  1> #Run DFT-D3 single point of the dimer
|  2> ! wB97X-D3 def2-TZVP TIGHTSCF CHELPG PMODEL PAL8
|  3>
|  4> %base "5-139_DFT_AB"
|  5>
|  6> %scf
|  7> MaxIter 1000
|  8> end
|  9>
| 10> * xyz 0 1
| 11>   C                      0.074017             4.217301             -5.496732
| 12>   O                      0.563221             5.487481             -5.740181
| 13>   H                      -0.073991            6.071840             -5.294138
| 14>   H                      -0.913316            4.025196             -5.905946
| 15>   H                      0.774878             3.517048             -5.955846
| 16>   H                      -0.044787            3.904843             -4.515804
| 17>   C                      -3.821677            6.233248             -5.358591
| 18>   O                      -2.479751            6.079981             -5.019133
| 19>   H                      -2.364337            5.272735             -4.519408
| 20>   H                      -4.066445            5.743584             -6.270756
| 21>   H                      -4.452980            5.822695             -4.568064
| 22>   H                      -3.995111            7.286955             -5.595354
| 23> *
| 24>
| 25> #Run DFT-D3 single point of the molecule with dimer basis set
| 26> $new_job
| 27> %base "5-139_DFT_A"
| 28> ! wB97X-D3 def2-TZVP TIGHTSCF CHELPG PMODEL
| 29>
| 30> %scf
| 31> MaxIter 1000
| 32> end
| 33>
| 34> * xyz 0 1
| 35>   C                      0.074017             4.217301             -5.496732
| 36>   O                      0.563221             5.487481             -5.740181
| 37>   H                      -0.073991            6.071840             -5.294138
| 38>   H                      -0.913316            4.025196             -5.905946
| 39>   H                      0.774878             3.517048             -5.955846
| 40>   H                      -0.044787            3.904843             -4.515804
| 41>   C                    : -3.821677            6.233248             -5.358591
| 42>   O                    : -2.479751            6.079981             -5.019133
| 43>   H                    : -2.364337            5.272735             -4.519408
| 44>   H                    : -4.066445            5.743584             -6.270756
| 45>   H                    : -4.452980            5.822695             -4.568064
| 46>   H                    : -3.995111            7.286955             -5.595354
| 47> *
| 48>
| 49> #Run DFT-D3 single point of the particle with dimer basis set
| 50> $new_job
| 51> %base "5-139_DFT_B"
| 52> ! wB97X-D3 def2-TZVP TIGHTSCF CHELPG PMODEL
| 53>
| 54> %scf
| 55> MaxIter 1000
| 56> end
| 57>
| 58> * xyz 0 1
| 59>   C                    : 0.074017             4.217301             -5.496732
| 60>   O                    : 0.563221             5.487481             -5.740181
| 61>   H                    : -0.073991            6.071840             -5.294138
| 62>   H                    : -0.913316            4.025196             -5.905946
| 63>   H                    : 0.774878             3.517048             -5.955846
| 64>   H                    : -0.044787            3.904843             -4.515804
| 65>   C                      -3.821677            6.233248             -5.358591
| 66>   O                      -2.479751            6.079981             -5.019133
| 67>   H                      -2.364337            5.272735             -4.519408
| 68>   H                      -4.066445            5.743584             -6.270756
| 69>   H                      -4.452980            5.822695             -4.568064
| 70>   H                      -3.995111            7.286955             -5.595354
| 71> *
| 72>
| 73>                          ****END OF INPUT****
 Total Charge           Charge          ....    0
 Multiplicity           Mult            ....    1
 Number of Electrons    NEL             ....   36
Dispersion correction           -0.001857974
FINAL SINGLE POINT ENERGY      -231.469843554412
Dispersion correction           -0.000222440
FINAL SINGLE POINT ENERGY      -115.731253952909

CARTESIAN COORDINATES (ANGSTROEM)
---------------------------------
  C      0.074017    4.217301   -5.496732
  O      0.563221    5.487481   -5.740181
  H     -0.073991    6.071840   -5.294138
  H     -0.913316    4.025196   -5.905946
  H      0.774878    3.517048   -5.955846
  H     -0.044787    3.904843   -4.515804
  C     -3.821677    6.233248   -5.358591
  O     -2.479751    6.079981   -5.019133
  H     -2.364337    5.272735   -4.519408
  H     -4.066445    5.743584   -6.270756
  H     -4.452980    5.822695   -4.568064
  H     -3.995111    7.286955   -5.595354

 Multiplicity           Mult            ....    1
 Number of Electrons    NEL             ....   18
 Basis Dimension        Dim             ....  172

ORBITAL ENERGIES
----------------

  NO   OCC          E(Eh)            E(eV)
   0   2.0000     -19.228769      -523.2414
   1   2.0000     -10.307760      -280.4884
   2   2.0000      -1.142774       -31.0965
   3   2.0000      -0.798366       -21.7247
   4   2.0000      -0.617282       -16.7971
   5   2.0000      -0.547899       -14.9091
   6   2.0000      -0.530079       -14.4242
   7   2.0000      -0.434089       -11.8122
   8   2.0000      -0.370418       -10.0796
   9   0.0000       0.086756         2.3608
  10   0.0000       0.130852         3.5607
  11   0.0000       0.159849         4.3497
  12   0.0000       0.181260         4.9323
  13   0.0000       0.191729         5.2172

MULLIKEN ATOMIC CHARGES
-----------------------
   0 C :    0.001720
   1 O :    0.001474
   2 H :   -0.005676
   3 H :   -0.012115
   4 H :   -0.000955
   5 H :   -0.000126
   6 C :   -0.154167
   7 O :   -0.460339
   8 H :    0.317096
   9 H :    0.097502
  10 H :    0.100858
  11 H :    0.114730
Sum of atomic charges:   -0.0000000

LOEWDIN ATOMIC CHARGES
----------------------
   0 C :   -0.011730
   1 O :   -0.001835
   2 H :   -0.013267
   3 H :   -0.007075
   4 H :   -0.000134
   5 H :   -0.000756
   6 C :   -0.392814
   7 O :   -0.037740
   8 H :    0.171890
   9 H :    0.087215
  10 H :    0.096965
  11 H :    0.109282

  Mayer bond orders larger than 0.1
B(  6-C ,  7-O ) :   1.0070 B(  6-C ,  9-H ) :   0.9734 B(  6-C , 10-H ) :   0.9842
B(  6-C , 11-H ) :   0.9776 B(  7-O ,  8-H ) :   0.8954

Dispersion correction           -0.000226225
FINAL SINGLE POINT ENERGY      -115.734677263191

DIPOLE MOMENT
-------------
                                X             Y             Z
Electronic contribution:      1.70206      -0.07695       0.42131
Nuclear contribution   :     -2.17025      -0.37543      -0.23948
                        -----------------------------------------
Total Dipole Moment    :     -0.46819      -0.45238       0.18184
                        -----------------------------------------
Magnitude (a.u.)       :      0.67596
Magnitude (Debye)      :      1.71814

Rotational constants in cm-1:     4.362127     0.862609     0.819230
Rotational constants in MHz : 130773.289270 25860.372295 24559.903109

                             ****ORCA TERMINATED NORMALLY****
TOTAL RUN TIME: 0 days 0 hours 0 minutes 55 seconds 183 msec
