                         Program Version 4.1.2  - RELEASE  -
|  1> #Run DFT geometry optimization
|  2> ! wB97X-D3 def2-TZVP TIGHTSCF Grid5 FinalGrid6 Opt CHELPG PAL4
|  3>
|  4> %base "10_geo_opt"
|  5> %geom MaxIter 500
|  6> end
|  7>
|  8> %geom
|  9>   Constraints
| 10>     { B 0 1 C }
| 11>   end
| 12> end
| 13>
| 14>
| 15> * xyz 0 1
| 16>   C                    3.011798             -1.180878            0.598590
| 17>   O                    4.394183             -1.128069            0.874210
| 18>   H                    4.771706             -0.379041            0.412395
| 19>   H                    2.806924             -1.318946            -0.469252
| 20>   H                    2.612122             -2.040246            1.135996
| 21>   H                    2.485247             -0.284472            0.945757
| 22> *
| 23>
| 24>                          ****END OF INPUT****
 Total Charge           Charge          ....    0
 Multiplicity           Mult            ....    1
 Number of Electrons    NEL             ....   18
Dispersion correction           -0.000238781
FINAL SINGLE POINT ENERGY      -115.738050714571
Dispersion correction            ... done
                    ***********************HURRAY********************

CARTESIAN COORDINATES (ANGSTROEM)
---------------------------------
  C      3.011896   -1.180911    0.598632
  O      4.394296   -1.127979    0.874155
  H      4.771957   -0.378986    0.412430
  H      2.806771   -1.318991   -0.469213
  H      2.611942   -2.040234    1.135952
  H      2.485118   -0.284551    0.945738

 Multiplicity           Mult            ....    1
 Number of Electrons    NEL             ....   18
 Basis Dimension        Dim             ....   86

ORBITAL ENERGIES
----------------

  NO   OCC          E(Eh)            E(eV)
   0   2.0000     -19.228086      -523.2228
   1   2.0000     -10.315033      -280.6863
   2   2.0000      -1.137113       -30.9424
   3   2.0000      -0.795308       -21.6414
   4   2.0000      -0.611785       -16.6475
   5   2.0000      -0.541856       -14.7446
   6   2.0000      -0.526469       -14.3260
   7   2.0000      -0.433699       -11.8016
   8   2.0000      -0.373559       -10.1651
   9   0.0000       0.116644         3.1740
  10   0.0000       0.156734         4.2650
  11   0.0000       0.202606         5.5132
  12   0.0000       0.205145         5.5823
  13   0.0000       0.226471         6.1626

MULLIKEN ATOMIC CHARGES
-----------------------
   0 C :   -0.150629
   1 O :   -0.477477
   2 H :    0.313062
   3 H :    0.098461
   4 H :    0.118118
   5 H :    0.098465
Sum of atomic charges:   -0.0000000

LOEWDIN ATOMIC CHARGES
----------------------
   0 C :   -0.385932
   1 O :   -0.075353
   2 H :    0.165880
   3 H :    0.093360
   4 H :    0.108688
   5 H :    0.093358

  Mayer bond orders larger than 0.1
B(  0-C ,  1-O ) :   0.9988 B(  0-C ,  3-H ) :   0.9756 B(  0-C ,  4-H ) :   0.9749
B(  0-C ,  5-H ) :   0.9756 B(  1-O ,  2-H ) :   0.9001

Dispersion correction           -0.000238914
FINAL SINGLE POINT ENERGY      -115.738050828722

DIPOLE MOMENT
-------------
                                X             Y             Z
Electronic contribution:      1.75677      -0.02808       0.41986
Nuclear contribution   :     -2.06516       0.47569      -0.81719
                        -----------------------------------------
Total Dipole Moment    :     -0.30839       0.44761      -0.39733
                        -----------------------------------------
Magnitude (a.u.)       :      0.67330
Magnitude (Debye)      :      1.71139

Rotational constants in cm-1:     4.293382     0.834705     0.805763
Rotational constants in MHz : 128712.354280 25023.813232 24156.159557

                             ****ORCA TERMINATED NORMALLY****
TOTAL RUN TIME: 0 days 0 hours 0 minutes 38 seconds 673 msec
