                         Program Version 4.1.2  - RELEASE  -
|  1> #Run DFT-D3 single point of the dimer
|  2> ! wB97X-D3 def2-TZVP TIGHTSCF CHELPG PMODEL PAL8
|  3>
|  4> %base "5-197_DFT_AB"
|  5>
|  6> %scf
|  7> MaxIter 1000
|  8> end
|  9>
| 10> * xyz 0 1
| 11>   C                      1.574594             -2.147675            -10.160961
| 12>   O                      2.480961             -1.239558            -9.580505
| 13>   H                      1.907902             -0.652711            -9.047273
| 14>   H                      1.867958             -2.624338            -11.055404
| 15>   H                      1.212482             -2.902957            -9.483861
| 16>   H                      0.750634             -1.476024            -10.482996
| 17>   C                      1.660130             2.016156             -10.208712
| 18>   O                      2.793933             1.381402             -10.765261
| 19>   H                      3.107994             0.803919             -10.093521
| 20>   H                      1.177720             2.783274             -10.809407
| 21>   H                      0.857712             1.198008             -10.041690
| 22>   H                      1.920190             2.547271             -9.303357
| 23> *
| 24>
| 25> #Run DFT-D3 single point of the molecule with dimer basis set
| 26> $new_job
| 27> %base "5-197_DFT_A"
| 28> ! wB97X-D3 def2-TZVP TIGHTSCF CHELPG PMODEL
| 29>
| 30> %scf
| 31> MaxIter 1000
| 32> end
| 33>
| 34> * xyz 0 1
| 35>   C                      1.574594             -2.147675            -10.160961
| 36>   O                      2.480961             -1.239558            -9.580505
| 37>   H                      1.907902             -0.652711            -9.047273
| 38>   H                      1.867958             -2.624338            -11.055404
| 39>   H                      1.212482             -2.902957            -9.483861
| 40>   H                      0.750634             -1.476024            -10.482996
| 41>   C                    : 1.660130             2.016156             -10.208712
| 42>   O                    : 2.793933             1.381402             -10.765261
| 43>   H                    : 3.107994             0.803919             -10.093521
| 44>   H                    : 1.177720             2.783274             -10.809407
| 45>   H                    : 0.857712             1.198008             -10.041690
| 46>   H                    : 1.920190             2.547271             -9.303357
| 47> *
| 48>
| 49> #Run DFT-D3 single point of the particle with dimer basis set
| 50> $new_job
| 51> %base "5-197_DFT_B"
| 52> ! wB97X-D3 def2-TZVP TIGHTSCF CHELPG PMODEL
| 53>
| 54> %scf
| 55> MaxIter 1000
| 56> end
| 57>
| 58> * xyz 0 1
| 59>   C                    : 1.574594             -2.147675            -10.160961
| 60>   O                    : 2.480961             -1.239558            -9.580505
| 61>   H                    : 1.907902             -0.652711            -9.047273
| 62>   H                    : 1.867958             -2.624338            -11.055404
| 63>   H                    : 1.212482             -2.902957            -9.483861
| 64>   H                    : 0.750634             -1.476024            -10.482996
| 65>   C                      1.660130             2.016156             -10.208712
| 66>   O                      2.793933             1.381402             -10.765261
| 67>   H                      3.107994             0.803919             -10.093521
| 68>   H                      1.177720             2.783274             -10.809407
| 69>   H                      0.857712             1.198008             -10.041690
| 70>   H                      1.920190             2.547271             -9.303357
| 71> *
| 72>
| 73>                          ****END OF INPUT****
 Total Charge           Charge          ....    0
 Multiplicity           Mult            ....    1
 Number of Electrons    NEL             ....   36
Dispersion correction           -0.002044666
FINAL SINGLE POINT ENERGY      -231.461513652727
Dispersion correction           -0.000217012
FINAL SINGLE POINT ENERGY      -115.728762202491

CARTESIAN COORDINATES (ANGSTROEM)
---------------------------------
  C      1.574594   -2.147675  -10.160961
  O      2.480961   -1.239558   -9.580505
  H      1.907902   -0.652711   -9.047273
  H      1.867958   -2.624338  -11.055404
  H      1.212482   -2.902957   -9.483861
  H      0.750634   -1.476024  -10.482996
  C      1.660130    2.016156  -10.208712
  O      2.793933    1.381402  -10.765261
  H      3.107994    0.803919  -10.093521
  H      1.177720    2.783274  -10.809407
  H      0.857712    1.198008  -10.041690
  H      1.920190    2.547271   -9.303357

 Multiplicity           Mult            ....    1
 Number of Electrons    NEL             ....   18
 Basis Dimension        Dim             ....  172

ORBITAL ENERGIES
----------------

  NO   OCC          E(Eh)            E(eV)
   0   2.0000     -19.230906      -523.2996
   1   2.0000     -10.318913      -280.7919
   2   2.0000      -1.143582       -31.1184
   3   2.0000      -0.794692       -21.6247
   4   2.0000      -0.609288       -16.5796
   5   2.0000      -0.544880       -14.8269
   6   2.0000      -0.533738       -14.5237
   7   2.0000      -0.430104       -11.7037
   8   2.0000      -0.374737       -10.1971
   9   0.0000       0.079689         2.1685
  10   0.0000       0.132355         3.6015
  11   0.0000       0.148722         4.0469
  12   0.0000       0.178457         4.8561
  13   0.0000       0.184684         5.0255

MULLIKEN ATOMIC CHARGES
-----------------------
   0 C :   -0.003558
   1 O :   -0.004631
   2 H :   -0.000177
   3 H :    0.000391
   4 H :    0.000003
   5 H :    0.000774
   6 C :   -0.180620
   7 O :   -0.456287
   8 H :    0.313787
   9 H :    0.125609
  10 H :    0.095338
  11 H :    0.109372
Sum of atomic charges:    0.0000000

LOEWDIN ATOMIC CHARGES
----------------------
   0 C :   -0.003532
   1 O :   -0.012471
   2 H :   -0.006668
   3 H :   -0.000094
   4 H :   -0.000082
   5 H :   -0.001223
   6 C :   -0.387971
   7 O :   -0.055706
   8 H :    0.161038
   9 H :    0.105916
  10 H :    0.107688
  11 H :    0.093103

  Mayer bond orders larger than 0.1
B(  6-C ,  7-O ) :   0.9987 B(  6-C ,  9-H ) :   0.9708 B(  6-C , 10-H ) :   0.9787
B(  6-C , 11-H ) :   0.9804 B(  7-O ,  8-H ) :   0.9059

Dispersion correction           -0.000234427
FINAL SINGLE POINT ENERGY      -115.731102921941

DIPOLE MOMENT
-------------
                                X             Y             Z
Electronic contribution:      1.53590      -0.65335      -0.89361
Nuclear contribution   :     -1.76930       0.58457       1.51976
                        -----------------------------------------
Total Dipole Moment    :     -0.23340      -0.06878       0.62615
                        -----------------------------------------
Magnitude (a.u.)       :      0.67177
Magnitude (Debye)      :      1.70750

Rotational constants in cm-1:     4.265420     0.822777     0.805801
Rotational constants in MHz : 127874.067882 24666.244645 24157.319251

                             ****ORCA TERMINATED NORMALLY****
TOTAL RUN TIME: 0 days 0 hours 1 minutes 2 seconds 785 msec
