                         Program Version 4.1.2  - RELEASE  -
|  1> #Run DFT-D3 single point of the dimer
|  2> ! wB97X-D3 def2-TZVP TIGHTSCF CHELPG PMODEL PAL8
|  3>
|  4> %base "6-87_DFT_AB"
|  5>
|  6> %scf
|  7> MaxIter 1000
|  8> end
|  9>
| 10> * xyz 0 1
| 11>   C                      -4.592135            -8.778354            -4.672863
| 12>   O                      -4.996036            -7.685713            -3.782804
| 13>   H                      -4.696775            -7.821721            -2.928204
| 14>   H                      -3.534098            -9.010149            -4.638917
| 15>   H                      -5.112055            -9.688766            -4.343416
| 16>   H                      -4.938609            -8.647915            -5.698391
| 17>   C                      -6.449756            -7.615354            -0.842301
| 18>   O                      -6.509052            -8.805502            -1.705923
| 19>   H                      -6.635960            -9.581778            -1.119752
| 20>   H                      -5.448720            -7.302162            -0.761370
| 21>   H                      -6.964512            -6.780777            -1.292883
| 22>   H                      -6.923662            -7.772756            0.107971
| 23> *
| 24>
| 25> #Run DFT-D3 single point of the molecule with dimer basis set
| 26> $new_job
| 27> %base "6-87_DFT_A"
| 28> ! wB97X-D3 def2-TZVP TIGHTSCF CHELPG PMODEL
| 29>
| 30> %scf
| 31> MaxIter 1000
| 32> end
| 33>
| 34> * xyz 0 1
| 35>   C                      -4.592135            -8.778354            -4.672863
| 36>   O                      -4.996036            -7.685713            -3.782804
| 37>   H                      -4.696775            -7.821721            -2.928204
| 38>   H                      -3.534098            -9.010149            -4.638917
| 39>   H                      -5.112055            -9.688766            -4.343416
| 40>   H                      -4.938609            -8.647915            -5.698391
| 41>   C                    : -6.449756            -7.615354            -0.842301
| 42>   O                    : -6.509052            -8.805502            -1.705923
| 43>   H                    : -6.635960            -9.581778            -1.119752
| 44>   H                    : -5.448720            -7.302162            -0.761370
| 45>   H                    : -6.964512            -6.780777            -1.292883
| 46>   H                    : -6.923662            -7.772756            0.107971
| 47> *
| 48>
| 49> #Run DFT-D3 single point of the particle with dimer basis set
| 50> $new_job
| 51> %base "6-87_DFT_B"
| 52> ! wB97X-D3 def2-TZVP TIGHTSCF CHELPG PMODEL
| 53>
| 54> %scf
| 55> MaxIter 1000
| 56> end
| 57>
| 58> * xyz 0 1
| 59>   C                    : -4.592135            -8.778354            -4.672863
| 60>   O                    : -4.996036            -7.685713            -3.782804
| 61>   H                    : -4.696775            -7.821721            -2.928204
| 62>   H                    : -3.534098            -9.010149            -4.638917
| 63>   H                    : -5.112055            -9.688766            -4.343416
| 64>   H                    : -4.938609            -8.647915            -5.698391
| 65>   C                      -6.449756            -7.615354            -0.842301
| 66>   O                      -6.509052            -8.805502            -1.705923
| 67>   H                      -6.635960            -9.581778            -1.119752
| 68>   H                      -5.448720            -7.302162            -0.761370
| 69>   H                      -6.964512            -6.780777            -1.292883
| 70>   H                      -6.923662            -7.772756            0.107971
| 71> *
| 72>
| 73>                          ****END OF INPUT****
 Total Charge           Charge          ....    0
 Multiplicity           Mult            ....    1
 Number of Electrons    NEL             ....   36
Dispersion correction           -0.001950774
FINAL SINGLE POINT ENERGY      -231.461862828089
Dispersion correction           -0.000267042
FINAL SINGLE POINT ENERGY      -115.731007557145

CARTESIAN COORDINATES (ANGSTROEM)
---------------------------------
  C     -4.592135   -8.778354   -4.672863
  O     -4.996036   -7.685713   -3.782804
  H     -4.696775   -7.821721   -2.928204
  H     -3.534098   -9.010149   -4.638917
  H     -5.112055   -9.688766   -4.343416
  H     -4.938609   -8.647915   -5.698391
  C     -6.449756   -7.615354   -0.842301
  O     -6.509052   -8.805502   -1.705923
  H     -6.635960   -9.581778   -1.119752
  H     -5.448720   -7.302162   -0.761370
  H     -6.964512   -6.780777   -1.292883
  H     -6.923662   -7.772756    0.107971

 Multiplicity           Mult            ....    1
 Number of Electrons    NEL             ....   18
 Basis Dimension        Dim             ....  172

ORBITAL ENERGIES
----------------

  NO   OCC          E(Eh)            E(eV)
   0   2.0000     -19.230828      -523.2974
   1   2.0000     -10.309249      -280.5289
   2   2.0000      -1.114883       -30.3375
   3   2.0000      -0.803013       -21.8511
   4   2.0000      -0.598630       -16.2896
   5   2.0000      -0.541660       -14.7393
   6   2.0000      -0.522839       -14.2272
   7   2.0000      -0.438062       -11.9203
   8   2.0000      -0.374895       -10.2014
   9   0.0000       0.098349         2.6762
  10   0.0000       0.123693         3.3658
  11   0.0000       0.147634         4.0173
  12   0.0000       0.183612         4.9963
  13   0.0000       0.200958         5.4684

MULLIKEN ATOMIC CHARGES
-----------------------
   0 C :   -0.000323
   1 O :    0.005034
   2 H :   -0.003748
   3 H :   -0.000094
   4 H :   -0.003341
   5 H :   -0.000270
   6 C :   -0.179082
   7 O :   -0.485329
   8 H :    0.313677
   9 H :    0.117416
  10 H :    0.117033
  11 H :    0.119028
Sum of atomic charges:   -0.0000000

LOEWDIN ATOMIC CHARGES
----------------------
   0 C :   -0.005240
   1 O :   -0.007131
   2 H :   -0.011490
   3 H :   -0.000053
   4 H :   -0.002582
   5 H :   -0.000070
   6 C :   -0.333864
   7 O :   -0.108627
   8 H :    0.175947
   9 H :    0.092652
  10 H :    0.104068
  11 H :    0.096390

  Mayer bond orders larger than 0.1
B(  6-C ,  7-O ) :   0.9967 B(  6-C ,  9-H ) :   0.9805 B(  6-C , 10-H ) :   0.9783
B(  6-C , 11-H ) :   0.9760 B(  7-O ,  8-H ) :   0.9001

Dispersion correction           -0.000261058
FINAL SINGLE POINT ENERGY      -115.731835534058

DIPOLE MOMENT
-------------
                                X             Y             Z
Electronic contribution:     -0.03938      -1.38098      -1.10451
Nuclear contribution   :     -0.03181       1.42123       1.86033
                        -----------------------------------------
Total Dipole Moment    :     -0.07119       0.04025       0.75582
                        -----------------------------------------
Magnitude (a.u.)       :      0.76023
Magnitude (Debye)      :      1.93236

Rotational constants in cm-1:     4.422389     0.783068     0.753214
Rotational constants in MHz : 132579.897717 23475.793079 22580.793795

                             ****ORCA TERMINATED NORMALLY****
TOTAL RUN TIME: 0 days 0 hours 1 minutes 4 seconds 944 msec
