                         Program Version 4.1.2  - RELEASE  -
|  1> #Run DFT-D3 single point of the dimer
|  2> ! wB97X-D3 def2-TZVP TIGHTSCF CHELPG PMODEL PAL8
|  3>
|  4> %base "6-132_DFT_AB"
|  5>
|  6> %scf
|  7> MaxIter 1000
|  8> end
|  9>
| 10> * xyz 0 1
| 11>   C                      5.799702             10.013961            -6.139659
| 12>   O                      6.314410             9.354648             -5.022214
| 13>   H                      6.679682             8.539401             -5.378463
| 14>   H                      5.031475             9.459829             -6.584512
| 15>   H                      5.568476             11.039382            -5.914100
| 16>   H                      6.622979             10.145301            -6.957438
| 17>   C                      6.624132             7.413603             -8.245069
| 18>   O                      6.961184             7.120662             -6.934028
| 19>   H                      6.227871             6.513925             -6.667975
| 20>   H                      5.636665             7.834157             -8.331550
| 21>   H                      7.321227             8.095600             -8.805844
| 22>   H                      6.747616             6.490102             -8.871968
| 23> *
| 24>
| 25> #Run DFT-D3 single point of the molecule with dimer basis set
| 26> $new_job
| 27> %base "6-132_DFT_A"
| 28> ! wB97X-D3 def2-TZVP TIGHTSCF CHELPG PMODEL
| 29>
| 30> %scf
| 31> MaxIter 1000
| 32> end
| 33>
| 34> * xyz 0 1
| 35>   C                      5.799702             10.013961            -6.139659
| 36>   O                      6.314410             9.354648             -5.022214
| 37>   H                      6.679682             8.539401             -5.378463
| 38>   H                      5.031475             9.459829             -6.584512
| 39>   H                      5.568476             11.039382            -5.914100
| 40>   H                      6.622979             10.145301            -6.957438
| 41>   C                    : 6.624132             7.413603             -8.245069
| 42>   O                    : 6.961184             7.120662             -6.934028
| 43>   H                    : 6.227871             6.513925             -6.667975
| 44>   H                    : 5.636665             7.834157             -8.331550
| 45>   H                    : 7.321227             8.095600             -8.805844
| 46>   H                    : 6.747616             6.490102             -8.871968
| 47> *
| 48>
| 49> #Run DFT-D3 single point of the particle with dimer basis set
| 50> $new_job
| 51> %base "6-132_DFT_B"
| 52> ! wB97X-D3 def2-TZVP TIGHTSCF CHELPG PMODEL
| 53>
| 54> %scf
| 55> MaxIter 1000
| 56> end
| 57>
| 58> * xyz 0 1
| 59>   C                    : 5.799702             10.013961            -6.139659
| 60>   O                    : 6.314410             9.354648             -5.022214
| 61>   H                    : 6.679682             8.539401             -5.378463
| 62>   H                    : 5.031475             9.459829             -6.584512
| 63>   H                    : 5.568476             11.039382            -5.914100
| 64>   H                    : 6.622979             10.145301            -6.957438
| 65>   C                      6.624132             7.413603             -8.245069
| 66>   O                      6.961184             7.120662             -6.934028
| 67>   H                      6.227871             6.513925             -6.667975
| 68>   H                      5.636665             7.834157             -8.331550
| 69>   H                      7.321227             8.095600             -8.805844
| 70>   H                      6.747616             6.490102             -8.871968
| 71> *
| 72>
| 73>                          ****END OF INPUT****
 Total Charge           Charge          ....    0
 Multiplicity           Mult            ....    1
 Number of Electrons    NEL             ....   36
Dispersion correction           -0.002401531
FINAL SINGLE POINT ENERGY      -231.467780238229
Dispersion correction           -0.000218250
FINAL SINGLE POINT ENERGY      -115.730477767194

CARTESIAN COORDINATES (ANGSTROEM)
---------------------------------
  C      5.799702   10.013961   -6.139659
  O      6.314410    9.354648   -5.022214
  H      6.679682    8.539401   -5.378463
  H      5.031475    9.459829   -6.584512
  H      5.568476   11.039382   -5.914100
  H      6.622979   10.145301   -6.957438
  C      6.624132    7.413603   -8.245069
  O      6.961184    7.120662   -6.934028
  H      6.227871    6.513925   -6.667975
  H      5.636665    7.834157   -8.331550
  H      7.321227    8.095600   -8.805844
  H      6.747616    6.490102   -8.871968

 Multiplicity           Mult            ....    1
 Number of Electrons    NEL             ....   18
 Basis Dimension        Dim             ....  172

ORBITAL ENERGIES
----------------

  NO   OCC          E(Eh)            E(eV)
   0   2.0000     -19.237667      -523.4835
   1   2.0000     -10.315062      -280.6871
   2   2.0000      -1.146985       -31.2110
   3   2.0000      -0.787344       -21.4247
   4   2.0000      -0.610955       -16.6249
   5   2.0000      -0.551757       -15.0141
   6   2.0000      -0.530812       -14.4441
   7   2.0000      -0.428594       -11.6626
   8   2.0000      -0.373422       -10.1613
   9   0.0000       0.092122         2.5068
  10   0.0000       0.129702         3.5294
  11   0.0000       0.148644         4.0448
  12   0.0000       0.184333         5.0159
  13   0.0000       0.195691         5.3250

MULLIKEN ATOMIC CHARGES
-----------------------
   0 C :    0.011293
   1 O :   -0.002028
   2 H :   -0.010480
   3 H :   -0.004509
   4 H :    0.000092
   5 H :   -0.001376
   6 C :   -0.194186
   7 O :   -0.454053
   8 H :    0.323123
   9 H :    0.112309
  10 H :    0.115429
  11 H :    0.104385
Sum of atomic charges:   -0.0000000

LOEWDIN ATOMIC CHARGES
----------------------
   0 C :   -0.011076
   1 O :   -0.004126
   2 H :   -0.030124
   3 H :   -0.002946
   4 H :   -0.000101
   5 H :   -0.002111
   6 C :   -0.423062
   7 O :   -0.031049
   8 H :    0.197122
   9 H :    0.092611
  10 H :    0.114079
  11 H :    0.100784

  Mayer bond orders larger than 0.1
B(  6-C ,  7-O ) :   0.9941 B(  6-C ,  9-H ) :   0.9772 B(  6-C , 10-H ) :   0.9725
B(  6-C , 11-H ) :   0.9777 B(  7-O ,  8-H ) :   0.8909

Dispersion correction           -0.000222989
FINAL SINGLE POINT ENERGY      -115.729944181416

DIPOLE MOMENT
-------------
                                X             Y             Z
Electronic contribution:      0.52797      -0.21699       1.86830
Nuclear contribution   :     -1.09065      -0.04393      -2.19858
                        -----------------------------------------
Total Dipole Moment    :     -0.56269      -0.26092      -0.33029
                        -----------------------------------------
Magnitude (a.u.)       :      0.70270
Magnitude (Debye)      :      1.78612

Rotational constants in cm-1:     4.218476     0.852132     0.824516
Rotational constants in MHz : 126466.721008 25546.263939 24718.353050

                             ****ORCA TERMINATED NORMALLY****
TOTAL RUN TIME: 0 days 0 hours 1 minutes 6 seconds 441 msec
