                         Program Version 4.1.2  - RELEASE  -
|  1> #Run DFT-D3 single point of the dimer
|  2> ! wB97X-D3 def2-TZVP TIGHTSCF CHELPG PMODEL PAL8
|  3>
|  4> %base "7-26_DFT_AB"
|  5>
|  6> %scf
|  7> MaxIter 1000
|  8> end
|  9>
| 10> * xyz 0 1
| 11>   C                      0.666390             -0.715815            -0.420100
| 12>   O                      1.567490             0.321839             -0.143165
| 13>   H                      1.326093             1.086254             -0.696441
| 14>   H                      -0.316124            -0.427597            -0.014911
| 15>   H                      0.543968             -0.926248            -1.464179
| 16>   H                      1.024687             -1.624058            0.019191
| 17>   C                      -4.463582            -1.354472            0.559463
| 18>   O                      -5.340438            -2.213762            -0.128602
| 19>   H                      -6.211150            -1.951602            -0.000589
| 20>   H                      -4.627158            -1.465617            1.596524
| 21>   H                      -3.468846            -1.728514            0.454134
| 22>   H                      -4.436178            -0.307758            0.291256
| 23> *
| 24>
| 25> #Run DFT-D3 single point of the molecule with dimer basis set
| 26> $new_job
| 27> %base "7-26_DFT_A"
| 28> ! wB97X-D3 def2-TZVP TIGHTSCF CHELPG PMODEL
| 29>
| 30> %scf
| 31> MaxIter 1000
| 32> end
| 33>
| 34> * xyz 0 1
| 35>   C                      0.666390             -0.715815            -0.420100
| 36>   O                      1.567490             0.321839             -0.143165
| 37>   H                      1.326093             1.086254             -0.696441
| 38>   H                      -0.316124            -0.427597            -0.014911
| 39>   H                      0.543968             -0.926248            -1.464179
| 40>   H                      1.024687             -1.624058            0.019191
| 41>   C                    : -4.463582            -1.354472            0.559463
| 42>   O                    : -5.340438            -2.213762            -0.128602
| 43>   H                    : -6.211150            -1.951602            -0.000589
| 44>   H                    : -4.627158            -1.465617            1.596524
| 45>   H                    : -3.468846            -1.728514            0.454134
| 46>   H                    : -4.436178            -0.307758            0.291256
| 47> *
| 48>
| 49> #Run DFT-D3 single point of the particle with dimer basis set
| 50> $new_job
| 51> %base "7-26_DFT_B"
| 52> ! wB97X-D3 def2-TZVP TIGHTSCF CHELPG PMODEL
| 53>
| 54> %scf
| 55> MaxIter 1000
| 56> end
| 57>
| 58> * xyz 0 1
| 59>   C                    : 0.666390             -0.715815            -0.420100
| 60>   O                    : 1.567490             0.321839             -0.143165
| 61>   H                    : 1.326093             1.086254             -0.696441
| 62>   H                    : -0.316124            -0.427597            -0.014911
| 63>   H                    : 0.543968             -0.926248            -1.464179
| 64>   H                    : 1.024687             -1.624058            0.019191
| 65>   C                      -4.463582            -1.354472            0.559463
| 66>   O                      -5.340438            -2.213762            -0.128602
| 67>   H                      -6.211150            -1.951602            -0.000589
| 68>   H                      -4.627158            -1.465617            1.596524
| 69>   H                      -3.468846            -1.728514            0.454134
| 70>   H                      -4.436178            -0.307758            0.291256
| 71> *
| 72>
| 73>                          ****END OF INPUT****
 Total Charge           Charge          ....    0
 Multiplicity           Mult            ....    1
 Number of Electrons    NEL             ....   36
Dispersion correction           -0.000718636
FINAL SINGLE POINT ENERGY      -231.467319348157
Dispersion correction           -0.000225229
FINAL SINGLE POINT ENERGY      -115.735456883024

CARTESIAN COORDINATES (ANGSTROEM)
---------------------------------
  C      0.666390   -0.715815   -0.420100
  O      1.567490    0.321839   -0.143165
  H      1.326093    1.086254   -0.696441
  H     -0.316124   -0.427597   -0.014911
  H      0.543968   -0.926248   -1.464179
  H      1.024687   -1.624058    0.019191
  C     -4.463582   -1.354472    0.559463
  O     -5.340438   -2.213762   -0.128602
  H     -6.211150   -1.951602   -0.000589
  H     -4.627158   -1.465617    1.596524
  H     -3.468846   -1.728514    0.454134
  H     -4.436178   -0.307758    0.291256

 Multiplicity           Mult            ....    1
 Number of Electrons    NEL             ....   18
 Basis Dimension        Dim             ....  172

ORBITAL ENERGIES
----------------

  NO   OCC          E(Eh)            E(eV)
   0   2.0000     -19.225447      -523.1510
   1   2.0000     -10.303206      -280.3645
   2   2.0000      -1.144648       -31.1475
   3   2.0000      -0.807857       -21.9829
   4   2.0000      -0.618497       -16.8302
   5   2.0000      -0.548670       -14.9301
   6   2.0000      -0.529137       -14.3986
   7   2.0000      -0.431336       -11.7372
   8   2.0000      -0.376815       -10.2536
   9   0.0000       0.085371         2.3231
  10   0.0000       0.122628         3.3369
  11   0.0000       0.145743         3.9659
  12   0.0000       0.167799         4.5661
  13   0.0000       0.196822         5.3558

MULLIKEN ATOMIC CHARGES
-----------------------
   0 C :    0.000020
   1 O :   -0.000001
   2 H :   -0.000001
   3 H :   -0.000144
   4 H :   -0.000014
   5 H :   -0.000010
   6 C :   -0.162829
   7 O :   -0.470007
   8 H :    0.306568
   9 H :    0.105746
  10 H :    0.118054
  11 H :    0.102619
Sum of atomic charges:   -0.0000000

LOEWDIN ATOMIC CHARGES
----------------------
   0 C :   -0.000131
   1 O :   -0.000002
   2 H :   -0.000000
   3 H :   -0.000265
   4 H :   -0.000004
   5 H :   -0.000004
   6 C :   -0.380644
   7 O :   -0.048446
   8 H :    0.139930
   9 H :    0.090050
  10 H :    0.106361
  11 H :    0.093155

  Mayer bond orders larger than 0.1
B(  6-C ,  7-O ) :   1.0010 B(  6-C ,  9-H ) :   0.9850 B(  6-C , 10-H ) :   0.9764
B(  6-C , 11-H ) :   0.9691 B(  7-O ,  8-H ) :   0.9091

Dispersion correction           -0.000239403
FINAL SINGLE POINT ENERGY      -115.731552983792

DIPOLE MOMENT
-------------
                                X             Y             Z
Electronic contribution:     -1.10865      -1.06993      -0.99132
Nuclear contribution   :      0.90786       1.57457       1.36900
                        -----------------------------------------
Total Dipole Moment    :     -0.20079       0.50464       0.37767
                        -----------------------------------------
Magnitude (a.u.)       :      0.66153
Magnitude (Debye)      :      1.68147

Rotational constants in cm-1:     4.660747     0.833858     0.811624
Rotational constants in MHz : 139725.693184 24998.421666 24331.884672

                             ****ORCA TERMINATED NORMALLY****
TOTAL RUN TIME: 0 days 0 hours 0 minutes 55 seconds 510 msec
