                         Program Version 4.1.2  - RELEASE  -
|  1> #Run DFT-D3 single point of the dimer
|  2> ! wB97X-D3 def2-TZVP TIGHTSCF CHELPG PMODEL PAL8
|  3>
|  4> %base "5-171_DFT_AB"
|  5>
|  6> %scf
|  7> MaxIter 1000
|  8> end
|  9>
| 10> * xyz 0 1
| 11>   C                      2.961884             0.407319             -2.412688
| 12>   O                      2.456259             1.484305             -1.679243
| 13>   H                      2.553771             1.294301             -0.756044
| 14>   H                      3.996649             0.213085             -2.123589
| 15>   H                      2.420544             -0.510132            -2.440008
| 16>   H                      2.934534             0.770478             -3.468027
| 17>   C                      1.586198             3.064769             1.258012
| 18>   O                      2.942958             3.362784             1.580281
| 19>   H                      3.444564             3.670223             0.817226
| 20>   H                      1.019516             3.962641             1.026956
| 21>   H                      1.526199             2.411293             0.366586
| 22>   H                      0.905983             2.694856             2.019195
| 23> *
| 24>
| 25> #Run DFT-D3 single point of the molecule with dimer basis set
| 26> $new_job
| 27> %base "5-171_DFT_A"
| 28> ! wB97X-D3 def2-TZVP TIGHTSCF CHELPG PMODEL
| 29>
| 30> %scf
| 31> MaxIter 1000
| 32> end
| 33>
| 34> * xyz 0 1
| 35>   C                      2.961884             0.407319             -2.412688
| 36>   O                      2.456259             1.484305             -1.679243
| 37>   H                      2.553771             1.294301             -0.756044
| 38>   H                      3.996649             0.213085             -2.123589
| 39>   H                      2.420544             -0.510132            -2.440008
| 40>   H                      2.934534             0.770478             -3.468027
| 41>   C                    : 1.586198             3.064769             1.258012
| 42>   O                    : 2.942958             3.362784             1.580281
| 43>   H                    : 3.444564             3.670223             0.817226
| 44>   H                    : 1.019516             3.962641             1.026956
| 45>   H                    : 1.526199             2.411293             0.366586
| 46>   H                    : 0.905983             2.694856             2.019195
| 47> *
| 48>
| 49> #Run DFT-D3 single point of the particle with dimer basis set
| 50> $new_job
| 51> %base "5-171_DFT_B"
| 52> ! wB97X-D3 def2-TZVP TIGHTSCF CHELPG PMODEL
| 53>
| 54> %scf
| 55> MaxIter 1000
| 56> end
| 57>
| 58> * xyz 0 1
| 59>   C                    : 2.961884             0.407319             -2.412688
| 60>   O                    : 2.456259             1.484305             -1.679243
| 61>   H                    : 2.553771             1.294301             -0.756044
| 62>   H                    : 3.996649             0.213085             -2.123589
| 63>   H                    : 2.420544             -0.510132            -2.440008
| 64>   H                    : 2.934534             0.770478             -3.468027
| 65>   C                      1.586198             3.064769             1.258012
| 66>   O                      2.942958             3.362784             1.580281
| 67>   H                      3.444564             3.670223             0.817226
| 68>   H                      1.019516             3.962641             1.026956
| 69>   H                      1.526199             2.411293             0.366586
| 70>   H                      0.905983             2.694856             2.019195
| 71> *
| 72>
| 73>                          ****END OF INPUT****
 Total Charge           Charge          ....    0
 Multiplicity           Mult            ....    1
 Number of Electrons    NEL             ....   36
Dispersion correction           -0.001559812
FINAL SINGLE POINT ENERGY      -231.463109802607
Dispersion correction           -0.000239720
FINAL SINGLE POINT ENERGY      -115.734317803548

CARTESIAN COORDINATES (ANGSTROEM)
---------------------------------
  C      2.961884    0.407319   -2.412688
  O      2.456259    1.484305   -1.679243
  H      2.553771    1.294301   -0.756044
  H      3.996649    0.213085   -2.123589
  H      2.420544   -0.510132   -2.440008
  H      2.934534    0.770478   -3.468027
  C      1.586198    3.064769    1.258012
  O      2.942958    3.362784    1.580281
  H      3.444564    3.670223    0.817226
  H      1.019516    3.962641    1.026956
  H      1.526199    2.411293    0.366586
  H      0.905983    2.694856    2.019195

 Multiplicity           Mult            ....    1
 Number of Electrons    NEL             ....   18
 Basis Dimension        Dim             ....  172

ORBITAL ENERGIES
----------------

  NO   OCC          E(Eh)            E(eV)
   0   2.0000     -19.231365      -523.3121
   1   2.0000     -10.314974      -280.6847
   2   2.0000      -1.129840       -30.7445
   3   2.0000      -0.801494       -21.8098
   4   2.0000      -0.611249       -16.6329
   5   2.0000      -0.545169       -14.8348
   6   2.0000      -0.523942       -14.2572
   7   2.0000      -0.424746       -11.5579
   8   2.0000      -0.372595       -10.1388
   9   0.0000       0.082682         2.2499
  10   0.0000       0.120128         3.2689
  11   0.0000       0.145350         3.9552
  12   0.0000       0.179498         4.8844
  13   0.0000       0.192304         5.2329

MULLIKEN ATOMIC CHARGES
-----------------------
   0 C :   -0.000959
   1 O :   -0.000087
   2 H :    0.005513
   3 H :   -0.000007
   4 H :    0.000096
   5 H :   -0.000038
   6 C :   -0.167292
   7 O :   -0.486078
   8 H :    0.322736
   9 H :    0.108340
  10 H :    0.086989
  11 H :    0.130787
Sum of atomic charges:    0.0000000

LOEWDIN ATOMIC CHARGES
----------------------
   0 C :   -0.000331
   1 O :   -0.005943
   2 H :   -0.011179
   3 H :   -0.000009
   4 H :   -0.000006
   5 H :   -0.000013
   6 C :   -0.377774
   7 O :   -0.086538
   8 H :    0.172259
   9 H :    0.094588
  10 H :    0.105059
  11 H :    0.109887

  Mayer bond orders larger than 0.1
B(  6-C ,  7-O ) :   0.9935 B(  6-C ,  9-H ) :   0.9868 B(  6-C , 10-H ) :   0.9786
B(  6-C , 11-H ) :   0.9708 B(  7-O ,  8-H ) :   0.8910

Dispersion correction           -0.000267075
FINAL SINGLE POINT ENERGY      -115.727900859825

DIPOLE MOMENT
-------------
                                X             Y             Z
Electronic contribution:      1.82631       0.25844       0.64494
Nuclear contribution   :     -2.08020      -0.16282      -1.25891
                        -----------------------------------------
Total Dipole Moment    :     -0.25389       0.09562      -0.61397
                        -----------------------------------------
Magnitude (a.u.)       :      0.67124
Magnitude (Debye)      :      1.70615

Rotational constants in cm-1:     4.565972     0.800397     0.773425
Rotational constants in MHz : 136884.400373 23995.305398 23186.710060

                             ****ORCA TERMINATED NORMALLY****
TOTAL RUN TIME: 0 days 0 hours 0 minutes 51 seconds 151 msec
