                         Program Version 4.1.2  - RELEASE  -
|  1> #Run DFT-D3 single point of the dimer
|  2> ! wB97X-D3 def2-TZVP TIGHTSCF CHELPG PMODEL PAL8
|  3>
|  4> %base "17-16_DFT_AB"
|  5>
|  6> %scf
|  7> MaxIter 1000
|  8> end
|  9>
| 10> * xyz 0 1
| 11>   C                      -4.021581            2.799748             -3.951247
| 12>   O                      -3.968984            3.408857             -2.693875
| 13>   H                      -3.428997            4.133400             -2.976944
| 14>   H                      -4.837682            2.116741             -4.115847
| 15>   H                      -4.388551            3.544017             -4.698766
| 16>   H                      -3.031499            2.512948             -4.232440
| 17>   C                      -5.938019            1.396045             -1.010357
| 18>   O                      -5.780449            2.649759             -0.478520
| 19>   H                      -5.146989            3.115646             -1.048343
| 20>   H                      -5.745337            1.479658             -2.080329
| 21>   H                      -5.070851            0.715713             -0.818665
| 22>   H                      -6.876233            0.889256             -0.793456
| 23> *
| 24>
| 25> #Run DFT-D3 single point of the molecule with dimer basis set
| 26> $new_job
| 27> %base "17-16_DFT_A"
| 28> ! wB97X-D3 def2-TZVP TIGHTSCF CHELPG PMODEL
| 29>
| 30> %scf
| 31> MaxIter 1000
| 32> end
| 33>
| 34> * xyz 0 1
| 35>   C                      -4.021581            2.799748             -3.951247
| 36>   O                      -3.968984            3.408857             -2.693875
| 37>   H                      -3.428997            4.133400             -2.976944
| 38>   H                      -4.837682            2.116741             -4.115847
| 39>   H                      -4.388551            3.544017             -4.698766
| 40>   H                      -3.031499            2.512948             -4.232440
| 41>   C                    : -5.938019            1.396045             -1.010357
| 42>   O                    : -5.780449            2.649759             -0.478520
| 43>   H                    : -5.146989            3.115646             -1.048343
| 44>   H                    : -5.745337            1.479658             -2.080329
| 45>   H                    : -5.070851            0.715713             -0.818665
| 46>   H                    : -6.876233            0.889256             -0.793456
| 47> *
| 48>
| 49> #Run DFT-D3 single point of the particle with dimer basis set
| 50> $new_job
| 51> %base "17-16_DFT_B"
| 52> ! wB97X-D3 def2-TZVP TIGHTSCF CHELPG PMODEL
| 53>
| 54> %scf
| 55> MaxIter 1000
| 56> end
| 57>
| 58> * xyz 0 1
| 59>   C                    : -4.021581            2.799748             -3.951247
| 60>   O                    : -3.968984            3.408857             -2.693875
| 61>   H                    : -3.428997            4.133400             -2.976944
| 62>   H                    : -4.837682            2.116741             -4.115847
| 63>   H                    : -4.388551            3.544017             -4.698766
| 64>   H                    : -3.031499            2.512948             -4.232440
| 65>   C                      -5.938019            1.396045             -1.010357
| 66>   O                      -5.780449            2.649759             -0.478520
| 67>   H                      -5.146989            3.115646             -1.048343
| 68>   H                      -5.745337            1.479658             -2.080329
| 69>   H                      -5.070851            0.715713             -0.818665
| 70>   H                      -6.876233            0.889256             -0.793456
| 71> *
| 72>
| 73>                          ****END OF INPUT****
 Total Charge           Charge          ....    0
 Multiplicity           Mult            ....    1
 Number of Electrons    NEL             ....   36
Dispersion correction           -0.001999344
FINAL SINGLE POINT ENERGY      -231.457219670756
Dispersion correction           -0.000191094
FINAL SINGLE POINT ENERGY      -115.721881066207

CARTESIAN COORDINATES (ANGSTROEM)
---------------------------------
  C     -4.021581    2.799748   -3.951247
  O     -3.968984    3.408857   -2.693875
  H     -3.428997    4.133400   -2.976944
  H     -4.837682    2.116741   -4.115847
  H     -4.388551    3.544017   -4.698766
  H     -3.031499    2.512948   -4.232440
  C     -5.938019    1.396045   -1.010357
  O     -5.780449    2.649759   -0.478520
  H     -5.146989    3.115646   -1.048343
  H     -5.745337    1.479658   -2.080329
  H     -5.070851    0.715713   -0.818665
  H     -6.876233    0.889256   -0.793456

 Multiplicity           Mult            ....    1
 Number of Electrons    NEL             ....   18
 Basis Dimension        Dim             ....  172

ORBITAL ENERGIES
----------------

  NO   OCC          E(Eh)            E(eV)
   0   2.0000     -19.233181      -523.3615
   1   2.0000     -10.311949      -280.6024
   2   2.0000      -1.151268       -31.3276
   3   2.0000      -0.791932       -21.5496
   4   2.0000      -0.626062       -17.0360
   5   2.0000      -0.544761       -14.8237
   6   2.0000      -0.530550       -14.4370
   7   2.0000      -0.436364       -11.8741
   8   2.0000      -0.363845        -9.9007
   9   0.0000       0.067021         1.8237
  10   0.0000       0.131538         3.5793
  11   0.0000       0.144982         3.9452
  12   0.0000       0.172954         4.7063
  13   0.0000       0.195302         5.3144

MULLIKEN ATOMIC CHARGES
-----------------------
   0 C :    0.001742
   1 O :   -0.004389
   2 H :   -0.000478
   3 H :   -0.000861
   4 H :   -0.000183
   5 H :   -0.000050
   6 C :   -0.172306
   7 O :   -0.456720
   8 H :    0.320997
   9 H :    0.094525
  10 H :    0.089393
  11 H :    0.128331
Sum of atomic charges:    0.0000000

LOEWDIN ATOMIC CHARGES
----------------------
   0 C :   -0.007453
   1 O :   -0.016055
   2 H :   -0.000714
   3 H :   -0.004682
   4 H :   -0.000061
   5 H :   -0.000068
   6 C :   -0.422473
   7 O :   -0.040796
   8 H :    0.188979
   9 H :    0.099577
  10 H :    0.097552
  11 H :    0.106194

  Mayer bond orders larger than 0.1
B(  6-C ,  7-O ) :   0.9973 B(  6-C ,  9-H ) :   0.9937 B(  6-C , 10-H ) :   0.9703
B(  6-C , 11-H ) :   0.9702 B(  7-O ,  8-H ) :   0.9018

Dispersion correction           -0.000218295
FINAL SINGLE POINT ENERGY      -115.726847205088

DIPOLE MOMENT
-------------
                                X             Y             Z
Electronic contribution:     -0.11751       1.68816       0.98770
Nuclear contribution   :      0.45399      -1.83491      -1.56584
                        -----------------------------------------
Total Dipole Moment    :      0.33648      -0.14675      -0.57814
                        -----------------------------------------
Magnitude (a.u.)       :      0.68484
Magnitude (Debye)      :      1.74072

Rotational constants in cm-1:     4.319980     0.878563     0.828366
Rotational constants in MHz : 129509.740771 26338.664179 24833.791624

                             ****ORCA TERMINATED NORMALLY****
TOTAL RUN TIME: 0 days 0 hours 1 minutes 13 seconds 797 msec
