                         Program Version 4.1.2  - RELEASE  -
|  1> #Run DFT-D3 single point of the dimer
|  2> ! wB97X-D3 def2-TZVP TIGHTSCF CHELPG PMODEL PAL8
|  3>
|  4> %base "13-88_DFT_AB"
|  5>
|  6> %scf
|  7> MaxIter 1000
|  8> end
|  9>
| 10> * xyz 0 1
| 11>   C                      -2.473489            2.754382             -3.587635
| 12>   O                      -2.443331            4.137999             -3.468418
| 13>   H                      -2.406738            4.647574             -4.288539
| 14>   H                      -1.822514            2.438176             -4.417710
| 15>   H                      -2.095098            2.370439             -2.644488
| 16>   H                      -3.458589            2.327411             -3.868728
| 17>   C                      -2.594879            8.199299             0.433839
| 18>   O                      -2.875502            6.827219             0.129060
| 19>   H                      -3.783125            6.745427             -0.117083
| 20>   H                      -1.540234            8.249601             0.733262
| 21>   H                      -2.685778            8.822723             -0.489684
| 22>   H                      -3.280828            8.560480             1.135978
| 23> *
| 24>
| 25> #Run DFT-D3 single point of the molecule with dimer basis set
| 26> $new_job
| 27> %base "13-88_DFT_A"
| 28> ! wB97X-D3 def2-TZVP TIGHTSCF CHELPG PMODEL
| 29>
| 30> %scf
| 31> MaxIter 1000
| 32> end
| 33>
| 34> * xyz 0 1
| 35>   C                      -2.473489            2.754382             -3.587635
| 36>   O                      -2.443331            4.137999             -3.468418
| 37>   H                      -2.406738            4.647574             -4.288539
| 38>   H                      -1.822514            2.438176             -4.417710
| 39>   H                      -2.095098            2.370439             -2.644488
| 40>   H                      -3.458589            2.327411             -3.868728
| 41>   C                    : -2.594879            8.199299             0.433839
| 42>   O                    : -2.875502            6.827219             0.129060
| 43>   H                    : -3.783125            6.745427             -0.117083
| 44>   H                    : -1.540234            8.249601             0.733262
| 45>   H                    : -2.685778            8.822723             -0.489684
| 46>   H                    : -3.280828            8.560480             1.135978
| 47> *
| 48>
| 49> #Run DFT-D3 single point of the particle with dimer basis set
| 50> $new_job
| 51> %base "13-88_DFT_B"
| 52> ! wB97X-D3 def2-TZVP TIGHTSCF CHELPG PMODEL
| 53>
| 54> %scf
| 55> MaxIter 1000
| 56> end
| 57>
| 58> * xyz 0 1
| 59>   C                    : -2.473489            2.754382             -3.587635
| 60>   O                    : -2.443331            4.137999             -3.468418
| 61>   H                    : -2.406738            4.647574             -4.288539
| 62>   H                    : -1.822514            2.438176             -4.417710
| 63>   H                    : -2.095098            2.370439             -2.644488
| 64>   H                    : -3.458589            2.327411             -3.868728
| 65>   C                      -2.594879            8.199299             0.433839
| 66>   O                      -2.875502            6.827219             0.129060
| 67>   H                      -3.783125            6.745427             -0.117083
| 68>   H                      -1.540234            8.249601             0.733262
| 69>   H                      -2.685778            8.822723             -0.489684
| 70>   H                      -3.280828            8.560480             1.135978
| 71> *
| 72>
| 73>                          ****END OF INPUT****
 Total Charge           Charge          ....    0
 Multiplicity           Mult            ....    1
 Number of Electrons    NEL             ....   36
Dispersion correction           -0.000635702
FINAL SINGLE POINT ENERGY      -231.466968701820
Dispersion correction           -0.000251151
FINAL SINGLE POINT ENERGY      -115.733429488906

CARTESIAN COORDINATES (ANGSTROEM)
---------------------------------
  C     -2.473489    2.754382   -3.587635
  O     -2.443331    4.137999   -3.468418
  H     -2.406738    4.647574   -4.288539
  H     -1.822514    2.438176   -4.417710
  H     -2.095098    2.370439   -2.644488
  H     -3.458589    2.327411   -3.868728
  C     -2.594879    8.199299    0.433839
  O     -2.875502    6.827219    0.129060
  H     -3.783125    6.745427   -0.117083
  H     -1.540234    8.249601    0.733262
  H     -2.685778    8.822723   -0.489684
  H     -3.280828    8.560480    1.135978

 Multiplicity           Mult            ....    1
 Number of Electrons    NEL             ....   18
 Basis Dimension        Dim             ....  172

ORBITAL ENERGIES
----------------

  NO   OCC          E(Eh)            E(eV)
   0   2.0000     -19.224968      -523.1380
   1   2.0000     -10.312120      -280.6071
   2   2.0000      -1.131369       -30.7861
   3   2.0000      -0.798329       -21.7236
   4   2.0000      -0.610739       -16.6191
   5   2.0000      -0.543404       -14.7868
   6   2.0000      -0.522237       -14.2108
   7   2.0000      -0.436447       -11.8763
   8   2.0000      -0.372069       -10.1245
   9   0.0000       0.090999         2.4762
  10   0.0000       0.117117         3.1869
  11   0.0000       0.156355         4.2546
  12   0.0000       0.170426         4.6375
  13   0.0000       0.199423         5.4266

MULLIKEN ATOMIC CHARGES
-----------------------
   0 C :   -0.000118
   1 O :   -0.000076
   2 H :   -0.000024
   3 H :    0.000003
   4 H :    0.000003
   5 H :    0.000004
   6 C :   -0.161381
   7 O :   -0.480069
   8 H :    0.308151
   9 H :    0.123760
  10 H :    0.097647
  11 H :    0.112102
Sum of atomic charges:   -0.0000000

LOEWDIN ATOMIC CHARGES
----------------------
   0 C :   -0.000029
   1 O :   -0.000106
   2 H :   -0.000027
   3 H :   -0.000000
   4 H :   -0.000003
   5 H :   -0.000000
   6 C :   -0.362442
   7 O :   -0.087031
   8 H :    0.153827
   9 H :    0.112353
  10 H :    0.098777
  11 H :    0.084682

  Mayer bond orders larger than 0.1
B(  6-C ,  7-O ) :   0.9888 B(  6-C ,  9-H ) :   0.9733 B(  6-C , 10-H ) :   0.9771
B(  6-C , 11-H ) :   0.9763 B(  7-O ,  8-H ) :   0.9053

Dispersion correction           -0.000232951
FINAL SINGLE POINT ENERGY      -115.734269890202

DIPOLE MOMENT
-------------
                                X             Y             Z
Electronic contribution:     -0.24586      -1.69903      -0.20112
Nuclear contribution   :     -0.22251       2.21740       0.18123
                        -----------------------------------------
Total Dipole Moment    :     -0.46837       0.51837      -0.01989
                        -----------------------------------------
Magnitude (a.u.)       :      0.69891
Magnitude (Debye)      :      1.77648

Rotational constants in cm-1:     4.295980     0.822711     0.790335
Rotational constants in MHz : 128790.228792 24664.263125 23693.634729

                             ****ORCA TERMINATED NORMALLY****
TOTAL RUN TIME: 0 days 0 hours 1 minutes 2 seconds 606 msec
