                         Program Version 4.1.2  - RELEASE  -
|  1> #Run DFT-D3 single point of the dimer
|  2> ! wB97X-D3 def2-TZVP TIGHTSCF CHELPG PMODEL PAL8
|  3>
|  4> %base "14-67_DFT_AB"
|  5>
|  6> %scf
|  7> MaxIter 1000
|  8> end
|  9>
| 10> * xyz 0 1
| 11>   C                      -0.584460            9.833385             -7.370606
| 12>   O                      0.262817             9.973202             -6.259486
| 13>   H                      -0.083268            10.436978            -5.479950
| 14>   H                      -1.227082            10.668618            -7.422794
| 15>   H                      0.023229             9.743565             -8.282138
| 16>   H                      -1.232432            8.935795             -7.342917
| 17>   C                      0.387438             7.211846             -3.550846
| 18>   O                      1.792564             7.463747             -3.620765
| 19>   H                      2.049877             7.318178             -2.693924
| 20>   H                      0.212305             6.111345             -3.715045
| 21>   H                      -0.024939            7.621403             -2.647262
| 22>   H                      -0.201617            7.672835             -4.356984
| 23> *
| 24>
| 25> #Run DFT-D3 single point of the molecule with dimer basis set
| 26> $new_job
| 27> %base "14-67_DFT_A"
| 28> ! wB97X-D3 def2-TZVP TIGHTSCF CHELPG PMODEL
| 29>
| 30> %scf
| 31> MaxIter 1000
| 32> end
| 33>
| 34> * xyz 0 1
| 35>   C                      -0.584460            9.833385             -7.370606
| 36>   O                      0.262817             9.973202             -6.259486
| 37>   H                      -0.083268            10.436978            -5.479950
| 38>   H                      -1.227082            10.668618            -7.422794
| 39>   H                      0.023229             9.743565             -8.282138
| 40>   H                      -1.232432            8.935795             -7.342917
| 41>   C                    : 0.387438             7.211846             -3.550846
| 42>   O                    : 1.792564             7.463747             -3.620765
| 43>   H                    : 2.049877             7.318178             -2.693924
| 44>   H                    : 0.212305             6.111345             -3.715045
| 45>   H                    : -0.024939            7.621403             -2.647262
| 46>   H                    : -0.201617            7.672835             -4.356984
| 47> *
| 48>
| 49> #Run DFT-D3 single point of the particle with dimer basis set
| 50> $new_job
| 51> %base "14-67_DFT_B"
| 52> ! wB97X-D3 def2-TZVP TIGHTSCF CHELPG PMODEL
| 53>
| 54> %scf
| 55> MaxIter 1000
| 56> end
| 57>
| 58> * xyz 0 1
| 59>   C                    : -0.584460            9.833385             -7.370606
| 60>   O                    : 0.262817             9.973202             -6.259486
| 61>   H                    : -0.083268            10.436978            -5.479950
| 62>   H                    : -1.227082            10.668618            -7.422794
| 63>   H                    : 0.023229             9.743565             -8.282138
| 64>   H                    : -1.232432            8.935795             -7.342917
| 65>   C                      0.387438             7.211846             -3.550846
| 66>   O                      1.792564             7.463747             -3.620765
| 67>   H                      2.049877             7.318178             -2.693924
| 68>   H                      0.212305             6.111345             -3.715045
| 69>   H                      -0.024939            7.621403             -2.647262
| 70>   H                      -0.201617            7.672835             -4.356984
| 71> *
| 72>
| 73>                          ****END OF INPUT****
 Total Charge           Charge          ....    0
 Multiplicity           Mult            ....    1
 Number of Electrons    NEL             ....   36
Dispersion correction           -0.001307785
FINAL SINGLE POINT ENERGY      -231.463660832502
Dispersion correction           -0.000256089
FINAL SINGLE POINT ENERGY      -115.732905014412

CARTESIAN COORDINATES (ANGSTROEM)
---------------------------------
  C     -0.584460    9.833385   -7.370606
  O      0.262817    9.973202   -6.259486
  H     -0.083268   10.436978   -5.479950
  H     -1.227082   10.668618   -7.422794
  H      0.023229    9.743565   -8.282138
  H     -1.232432    8.935795   -7.342917
  C      0.387438    7.211846   -3.550846
  O      1.792564    7.463747   -3.620765
  H      2.049877    7.318178   -2.693924
  H      0.212305    6.111345   -3.715045
  H     -0.024939    7.621403   -2.647262
  H     -0.201617    7.672835   -4.356984

 Multiplicity           Mult            ....    1
 Number of Electrons    NEL             ....   18
 Basis Dimension        Dim             ....  172

ORBITAL ENERGIES
----------------

  NO   OCC          E(Eh)            E(eV)
   0   2.0000     -19.233372      -523.3666
   1   2.0000     -10.316397      -280.7234
   2   2.0000      -1.134208       -30.8634
   3   2.0000      -0.791472       -21.5370
   4   2.0000      -0.604059       -16.4373
   5   2.0000      -0.543238       -14.7823
   6   2.0000      -0.526912       -14.3380
   7   2.0000      -0.436545       -11.8790
   8   2.0000      -0.373984       -10.1766
   9   0.0000       0.087074         2.3694
  10   0.0000       0.115032         3.1302
  11   0.0000       0.153112         4.1664
  12   0.0000       0.168911         4.5963
  13   0.0000       0.187654         5.1063

MULLIKEN ATOMIC CHARGES
-----------------------
   0 C :    0.000320
   1 O :    0.000137
   2 H :   -0.000050
   3 H :   -0.000019
   4 H :   -0.000046
   5 H :   -0.000118
   6 C :   -0.183850
   7 O :   -0.464688
   8 H :    0.316436
   9 H :    0.105529
  10 H :    0.109040
  11 H :    0.117307
Sum of atomic charges:    0.0000000

LOEWDIN ATOMIC CHARGES
----------------------
   0 C :   -0.000677
   1 O :   -0.000810
   2 H :   -0.000582
   3 H :   -0.000004
   4 H :   -0.000009
   5 H :   -0.000240
   6 C :   -0.385914
   7 O :   -0.093746
   8 H :    0.179856
   9 H :    0.103228
  10 H :    0.092526
  11 H :    0.106372

  Mayer bond orders larger than 0.1
B(  6-C ,  7-O ) :   1.0047 B(  6-C ,  9-H ) :   0.9782 B(  6-C , 10-H ) :   0.9811
B(  6-C , 11-H ) :   0.9728 B(  7-O ,  8-H ) :   0.9007

Dispersion correction           -0.000236749
FINAL SINGLE POINT ENERGY      -115.731200493219

DIPOLE MOMENT
-------------
                                X             Y             Z
Electronic contribution:      1.82085       0.41390      -0.18786
Nuclear contribution   :     -2.22424      -0.57147       0.77816
                        -----------------------------------------
Total Dipole Moment    :     -0.40338      -0.15757       0.59030
                        -----------------------------------------
Magnitude (a.u.)       :      0.73212
Magnitude (Debye)      :      1.86091

Rotational constants in cm-1:     4.206880     0.817672     0.793520
Rotational constants in MHz : 126119.087927 24513.204452 23789.134129

                             ****ORCA TERMINATED NORMALLY****
TOTAL RUN TIME: 0 days 0 hours 0 minutes 54 seconds 163 msec
