                         Program Version 4.1.2  - RELEASE  -
|  1> #Run DFT-D3 single point of the dimer
|  2> ! wB97X-D3 def2-TZVP TIGHTSCF CHELPG PMODEL PAL8
|  3>
|  4> %base "14-222_DFT_AB"
|  5>
|  6> %scf
|  7> MaxIter 1000
|  8> end
|  9>
| 10> * xyz 0 1
| 11>   C                      0.387438             7.211846             -3.550846
| 12>   O                      1.792564             7.463747             -3.620765
| 13>   H                      2.049877             7.318178             -2.693924
| 14>   H                      0.212305             6.111345             -3.715045
| 15>   H                      -0.024939            7.621403             -2.647262
| 16>   H                      -0.201617            7.672835             -4.356984
| 17>   C                      2.696248             10.480721            -2.964482
| 18>   O                      2.714947             10.013328            -4.271748
| 19>   H                      2.424851             9.111299             -4.231627
| 20>   H                      3.398466             9.940133             -2.295471
| 21>   H                      2.892753             11.565934            -2.936864
| 22>   H                      1.728609             10.348861            -2.513574
| 23> *
| 24>
| 25> #Run DFT-D3 single point of the molecule with dimer basis set
| 26> $new_job
| 27> %base "14-222_DFT_A"
| 28> ! wB97X-D3 def2-TZVP TIGHTSCF CHELPG PMODEL
| 29>
| 30> %scf
| 31> MaxIter 1000
| 32> end
| 33>
| 34> * xyz 0 1
| 35>   C                      0.387438             7.211846             -3.550846
| 36>   O                      1.792564             7.463747             -3.620765
| 37>   H                      2.049877             7.318178             -2.693924
| 38>   H                      0.212305             6.111345             -3.715045
| 39>   H                      -0.024939            7.621403             -2.647262
| 40>   H                      -0.201617            7.672835             -4.356984
| 41>   C                    : 2.696248             10.480721            -2.964482
| 42>   O                    : 2.714947             10.013328            -4.271748
| 43>   H                    : 2.424851             9.111299             -4.231627
| 44>   H                    : 3.398466             9.940133             -2.295471
| 45>   H                    : 2.892753             11.565934            -2.936864
| 46>   H                    : 1.728609             10.348861            -2.513574
| 47> *
| 48>
| 49> #Run DFT-D3 single point of the particle with dimer basis set
| 50> $new_job
| 51> %base "14-222_DFT_B"
| 52> ! wB97X-D3 def2-TZVP TIGHTSCF CHELPG PMODEL
| 53>
| 54> %scf
| 55> MaxIter 1000
| 56> end
| 57>
| 58> * xyz 0 1
| 59>   C                    : 0.387438             7.211846             -3.550846
| 60>   O                    : 1.792564             7.463747             -3.620765
| 61>   H                    : 2.049877             7.318178             -2.693924
| 62>   H                    : 0.212305             6.111345             -3.715045
| 63>   H                    : -0.024939            7.621403             -2.647262
| 64>   H                    : -0.201617            7.672835             -4.356984
| 65>   C                      2.696248             10.480721            -2.964482
| 66>   O                      2.714947             10.013328            -4.271748
| 67>   H                      2.424851             9.111299             -4.231627
| 68>   H                      3.398466             9.940133             -2.295471
| 69>   H                      2.892753             11.565934            -2.936864
| 70>   H                      1.728609             10.348861            -2.513574
| 71> *
| 72>
| 73>                          ****END OF INPUT****
 Total Charge           Charge          ....    0
 Multiplicity           Mult            ....    1
 Number of Electrons    NEL             ....   36
Dispersion correction           -0.002112145
FINAL SINGLE POINT ENERGY      -231.475926188876
Dispersion correction           -0.000236749
FINAL SINGLE POINT ENERGY      -115.731825762949

CARTESIAN COORDINATES (ANGSTROEM)
---------------------------------
  C      0.387438    7.211846   -3.550846
  O      1.792564    7.463747   -3.620765
  H      2.049877    7.318178   -2.693924
  H      0.212305    6.111345   -3.715045
  H     -0.024939    7.621403   -2.647262
  H     -0.201617    7.672835   -4.356984
  C      2.696248   10.480721   -2.964482
  O      2.714947   10.013328   -4.271748
  H      2.424851    9.111299   -4.231627
  H      3.398466    9.940133   -2.295471
  H      2.892753   11.565934   -2.936864
  H      1.728609   10.348861   -2.513574

 Multiplicity           Mult            ....    1
 Number of Electrons    NEL             ....   18
 Basis Dimension        Dim             ....  172

ORBITAL ENERGIES
----------------

  NO   OCC          E(Eh)            E(eV)
   0   2.0000     -19.231427      -523.3137
   1   2.0000     -10.311848      -280.5996
   2   2.0000      -1.149130       -31.2694
   3   2.0000      -0.794659       -21.6238
   4   2.0000      -0.619956       -16.8699
   5   2.0000      -0.542466       -14.7612
   6   2.0000      -0.530686       -14.4407
   7   2.0000      -0.436878       -11.8880
   8   2.0000      -0.372805       -10.1445
   9   0.0000       0.068538         1.8650
  10   0.0000       0.136594         3.7169
  11   0.0000       0.149881         4.0785
  12   0.0000       0.165348         4.4993
  13   0.0000       0.190213         5.1760

MULLIKEN ATOMIC CHARGES
-----------------------
   0 C :   -0.002997
   1 O :   -0.005303
   2 H :    0.000190
   3 H :   -0.000026
   4 H :   -0.000173
   5 H :    0.000088
   6 C :   -0.167124
   7 O :   -0.459686
   8 H :    0.314778
   9 H :    0.095184
  10 H :    0.122214
  11 H :    0.102854
Sum of atomic charges:    0.0000000

LOEWDIN ATOMIC CHARGES
----------------------
   0 C :   -0.004535
   1 O :   -0.023508
   2 H :   -0.002095
   3 H :   -0.000089
   4 H :   -0.000343
   5 H :   -0.000432
   6 C :   -0.404446
   7 O :   -0.037277
   8 H :    0.174994
   9 H :    0.095912
  10 H :    0.111618
  11 H :    0.090199

  Mayer bond orders larger than 0.1
B(  6-C ,  7-O ) :   0.9918 B(  6-C ,  9-H ) :   0.9778 B(  6-C , 10-H ) :   0.9737
B(  6-C , 11-H ) :   0.9790 B(  7-O ,  8-H ) :   0.9101

Dispersion correction           -0.000223325
FINAL SINGLE POINT ENERGY      -115.735916432156

DIPOLE MOMENT
-------------
                                X             Y             Z
Electronic contribution:      0.10312      -0.47015      -1.82750
Nuclear contribution   :     -0.31384       0.08820       2.34181
                        -----------------------------------------
Total Dipole Moment    :     -0.21072      -0.38195       0.51431
                        -----------------------------------------
Magnitude (a.u.)       :      0.67439
Magnitude (Debye)      :      1.71415

Rotational constants in cm-1:     4.321568     0.858122     0.821995
Rotational constants in MHz : 129557.346840 25725.844926 24642.781211

                             ****ORCA TERMINATED NORMALLY****
TOTAL RUN TIME: 0 days 0 hours 1 minutes 10 seconds 724 msec
