                         Program Version 4.1.2  - RELEASE  -
|  1> #Run DFT-D3 single point of the dimer
|  2> ! wB97X-D3 def2-TZVP TIGHTSCF CHELPG PMODEL PAL8
|  3>
|  4> %base "16-130_DFT_AB"
|  5>
|  6> %scf
|  7> MaxIter 1000
|  8> end
|  9>
| 10> * xyz 0 1
| 11>   C                      -5.423742            -0.385399            -2.568477
| 12>   O                      -6.072185            -0.124848            -3.822119
| 13>   H                      -6.889635            0.328356             -3.630966
| 14>   H                      -5.797947            -1.302258            -2.110480
| 15>   H                      -4.343157            -0.522965            -2.760718
| 16>   H                      -5.495436            0.461736             -1.828739
| 17>   C                      -6.482326            -3.038393            -5.791056
| 18>   O                      -6.057388            -3.289651            -4.501937
| 19>   H                      -5.902887            -2.445885            -4.129103
| 20>   H                      -5.685988            -2.839495            -6.488605
| 21>   H                      -7.109373            -3.769275            -6.260965
| 22>   H                      -7.041879            -2.097533            -5.741855
| 23> *
| 24>
| 25> #Run DFT-D3 single point of the molecule with dimer basis set
| 26> $new_job
| 27> %base "16-130_DFT_A"
| 28> ! wB97X-D3 def2-TZVP TIGHTSCF CHELPG PMODEL
| 29>
| 30> %scf
| 31> MaxIter 1000
| 32> end
| 33>
| 34> * xyz 0 1
| 35>   C                      -5.423742            -0.385399            -2.568477
| 36>   O                      -6.072185            -0.124848            -3.822119
| 37>   H                      -6.889635            0.328356             -3.630966
| 38>   H                      -5.797947            -1.302258            -2.110480
| 39>   H                      -4.343157            -0.522965            -2.760718
| 40>   H                      -5.495436            0.461736             -1.828739
| 41>   C                    : -6.482326            -3.038393            -5.791056
| 42>   O                    : -6.057388            -3.289651            -4.501937
| 43>   H                    : -5.902887            -2.445885            -4.129103
| 44>   H                    : -5.685988            -2.839495            -6.488605
| 45>   H                    : -7.109373            -3.769275            -6.260965
| 46>   H                    : -7.041879            -2.097533            -5.741855
| 47> *
| 48>
| 49> #Run DFT-D3 single point of the particle with dimer basis set
| 50> $new_job
| 51> %base "16-130_DFT_B"
| 52> ! wB97X-D3 def2-TZVP TIGHTSCF CHELPG PMODEL
| 53>
| 54> %scf
| 55> MaxIter 1000
| 56> end
| 57>
| 58> * xyz 0 1
| 59>   C                    : -5.423742            -0.385399            -2.568477
| 60>   O                    : -6.072185            -0.124848            -3.822119
| 61>   H                    : -6.889635            0.328356             -3.630966
| 62>   H                    : -5.797947            -1.302258            -2.110480
| 63>   H                    : -4.343157            -0.522965            -2.760718
| 64>   H                    : -5.495436            0.461736             -1.828739
| 65>   C                      -6.482326            -3.038393            -5.791056
| 66>   O                      -6.057388            -3.289651            -4.501937
| 67>   H                      -5.902887            -2.445885            -4.129103
| 68>   H                      -5.685988            -2.839495            -6.488605
| 69>   H                      -7.109373            -3.769275            -6.260965
| 70>   H                      -7.041879            -2.097533            -5.741855
| 71> *
| 72>
| 73>                          ****END OF INPUT****
 Total Charge           Charge          ....    0
 Multiplicity           Mult            ....    1
 Number of Electrons    NEL             ....   36
Dispersion correction           -0.001946489
FINAL SINGLE POINT ENERGY      -231.472611039507
Dispersion correction           -0.000261530
FINAL SINGLE POINT ENERGY      -115.736165402334

CARTESIAN COORDINATES (ANGSTROEM)
---------------------------------
  C     -5.423742   -0.385399   -2.568477
  O     -6.072185   -0.124848   -3.822119
  H     -6.889635    0.328356   -3.630966
  H     -5.797947   -1.302258   -2.110480
  H     -4.343157   -0.522965   -2.760718
  H     -5.495436    0.461736   -1.828739
  C     -6.482326   -3.038393   -5.791056
  O     -6.057388   -3.289651   -4.501937
  H     -5.902887   -2.445885   -4.129103
  H     -5.685988   -2.839495   -6.488605
  H     -7.109373   -3.769275   -6.260965
  H     -7.041879   -2.097533   -5.741855

 Multiplicity           Mult            ....    1
 Number of Electrons    NEL             ....   18
 Basis Dimension        Dim             ....  172

ORBITAL ENERGIES
----------------

  NO   OCC          E(Eh)            E(eV)
   0   2.0000     -19.229463      -523.2603
   1   2.0000     -10.306898      -280.4650
   2   2.0000      -1.155229       -31.4354
   3   2.0000      -0.798801       -21.7365
   4   2.0000      -0.622739       -16.9456
   5   2.0000      -0.545066       -14.8320
   6   2.0000      -0.542254       -14.7555
   7   2.0000      -0.433036       -11.7835
   8   2.0000      -0.372187       -10.1277
   9   0.0000       0.068496         1.8639
  10   0.0000       0.132994         3.6189
  11   0.0000       0.154668         4.2087
  12   0.0000       0.164895         4.4870
  13   0.0000       0.193442         5.2638

MULLIKEN ATOMIC CHARGES
-----------------------
   0 C :   -0.000843
   1 O :   -0.001175
   2 H :   -0.000144
   3 H :   -0.001253
   4 H :    0.000039
   5 H :    0.000058
   6 C :   -0.166538
   7 O :   -0.453247
   8 H :    0.311492
   9 H :    0.096006
  10 H :    0.121346
  11 H :    0.094258
Sum of atomic charges:    0.0000000

LOEWDIN ATOMIC CHARGES
----------------------
   0 C :   -0.007699
   1 O :   -0.005271
   2 H :   -0.000428
   3 H :   -0.002128
   4 H :   -0.000479
   5 H :   -0.000092
   6 C :   -0.404651
   7 O :   -0.030832
   8 H :    0.162570
   9 H :    0.090124
  10 H :    0.101527
  11 H :    0.097360

  Mayer bond orders larger than 0.1
B(  6-C ,  7-O ) :   0.9974 B(  6-C ,  9-H ) :   0.9721 B(  6-C , 10-H ) :   0.9724
B(  6-C , 11-H ) :   0.9978 B(  7-O ,  8-H ) :   0.9147

Dispersion correction           -0.000212795
FINAL SINGLE POINT ENERGY      -115.730351437803

DIPOLE MOMENT
-------------
                                X             Y             Z
Electronic contribution:      0.56324      -0.65451       1.70756
Nuclear contribution   :     -0.63803       1.28973      -1.96033
                        -----------------------------------------
Total Dipole Moment    :     -0.07479       0.63522      -0.25277
                        -----------------------------------------
Magnitude (a.u.)       :      0.68774
Magnitude (Debye)      :      1.74811

Rotational constants in cm-1:     4.502891     0.868030     0.832857
Rotational constants in MHz : 134993.289663 26022.884608 24968.429361

                             ****ORCA TERMINATED NORMALLY****
TOTAL RUN TIME: 0 days 0 hours 1 minutes 8 seconds 570 msec
