                         Program Version 4.1.2  - RELEASE  -
|  1> #Run DFT-D3 single point of the dimer
|  2> ! wB97X-D3 def2-TZVP TIGHTSCF CHELPG PMODEL PAL8
|  3>
|  4> %base "6-47_DFT_AB"
|  5>
|  6> %scf
|  7> MaxIter 1000
|  8> end
|  9>
| 10> * xyz 0 1
| 11>   C                      -8.291909            -9.824663            -9.417989
| 12>   O                      -7.835395            -10.309451           -10.671300
| 13>   H                      -6.842935            -10.248512           -10.710201
| 14>   H                      -8.071282            -8.713678            -9.406191
| 15>   H                      -9.310220            -9.973369            -9.239578
| 16>   H                      -7.730536            -10.313792           -8.609002
| 17>   C                      -4.860387            -9.042144            -9.649226
| 18>   O                      -5.304821            -10.405946           -9.588112
| 19>   H                      -4.701139            -10.883973           -8.971898
| 20>   H                      -5.546647            -8.382812            -10.145500
| 21>   H                      -4.744645            -8.673357            -8.618931
| 22>   H                      -3.819723            -8.963563            -9.981958
| 23> *
| 24>
| 25> #Run DFT-D3 single point of the molecule with dimer basis set
| 26> $new_job
| 27> %base "6-47_DFT_A"
| 28> ! wB97X-D3 def2-TZVP TIGHTSCF CHELPG PMODEL
| 29>
| 30> %scf
| 31> MaxIter 1000
| 32> end
| 33>
| 34> * xyz 0 1
| 35>   C                      -8.291909            -9.824663            -9.417989
| 36>   O                      -7.835395            -10.309451           -10.671300
| 37>   H                      -6.842935            -10.248512           -10.710201
| 38>   H                      -8.071282            -8.713678            -9.406191
| 39>   H                      -9.310220            -9.973369            -9.239578
| 40>   H                      -7.730536            -10.313792           -8.609002
| 41>   C                    : -4.860387            -9.042144            -9.649226
| 42>   O                    : -5.304821            -10.405946           -9.588112
| 43>   H                    : -4.701139            -10.883973           -8.971898
| 44>   H                    : -5.546647            -8.382812            -10.145500
| 45>   H                    : -4.744645            -8.673357            -8.618931
| 46>   H                    : -3.819723            -8.963563            -9.981958
| 47> *
| 48>
| 49> #Run DFT-D3 single point of the particle with dimer basis set
| 50> $new_job
| 51> %base "6-47_DFT_B"
| 52> ! wB97X-D3 def2-TZVP TIGHTSCF CHELPG PMODEL
| 53>
| 54> %scf
| 55> MaxIter 1000
| 56> end
| 57>
| 58> * xyz 0 1
| 59>   C                    : -8.291909            -9.824663            -9.417989
| 60>   O                    : -7.835395            -10.309451           -10.671300
| 61>   H                    : -6.842935            -10.248512           -10.710201
| 62>   H                    : -8.071282            -8.713678            -9.406191
| 63>   H                    : -9.310220            -9.973369            -9.239578
| 64>   H                    : -7.730536            -10.313792           -8.609002
| 65>   C                      -4.860387            -9.042144            -9.649226
| 66>   O                      -5.304821            -10.405946           -9.588112
| 67>   H                      -4.701139            -10.883973           -8.971898
| 68>   H                      -5.546647            -8.382812            -10.145500
| 69>   H                      -4.744645            -8.673357            -8.618931
| 70>   H                      -3.819723            -8.963563            -9.981958
| 71> *
| 72>
| 73>                          ****END OF INPUT****
 Total Charge           Charge          ....    0
 Multiplicity           Mult            ....    1
 Number of Electrons    NEL             ....   36
Dispersion correction           -0.002359977
FINAL SINGLE POINT ENERGY      -231.467758555394
Dispersion correction           -0.000234114
FINAL SINGLE POINT ENERGY      -115.731765624466

CARTESIAN COORDINATES (ANGSTROEM)
---------------------------------
  C     -8.291909   -9.824663   -9.417989
  O     -7.835395  -10.309451  -10.671300
  H     -6.842935  -10.248512  -10.710201
  H     -8.071282   -8.713678   -9.406191
  H     -9.310220   -9.973369   -9.239578
  H     -7.730536  -10.313792   -8.609002
  C     -4.860387   -9.042144   -9.649226
  O     -5.304821  -10.405946   -9.588112
  H     -4.701139  -10.883973   -8.971898
  H     -5.546647   -8.382812  -10.145500
  H     -4.744645   -8.673357   -8.618931
  H     -3.819723   -8.963563   -9.981958

 Multiplicity           Mult            ....    1
 Number of Electrons    NEL             ....   18
 Basis Dimension        Dim             ....  172

ORBITAL ENERGIES
----------------

  NO   OCC          E(Eh)            E(eV)
   0   2.0000     -19.233205      -523.3621
   1   2.0000     -10.314565      -280.6736
   2   2.0000      -1.125712       -30.6322
   3   2.0000      -0.796179       -21.6651
   4   2.0000      -0.608148       -16.5486
   5   2.0000      -0.538182       -14.6447
   6   2.0000      -0.524816       -14.2810
   7   2.0000      -0.439893       -11.9701
   8   2.0000      -0.369090       -10.0434
   9   0.0000       0.096245         2.6190
  10   0.0000       0.127983         3.4826
  11   0.0000       0.151238         4.1154
  12   0.0000       0.184539         5.0216
  13   0.0000       0.199553         5.4301

MULLIKEN ATOMIC CHARGES
-----------------------
   0 C :    0.017562
   1 O :    0.001114
   2 H :   -0.009394
   3 H :   -0.002447
   4 H :   -0.000093
   5 H :   -0.015844
   6 C :   -0.183690
   7 O :   -0.468694
   8 H :    0.312351
   9 H :    0.132421
  10 H :    0.105411
  11 H :    0.111303
Sum of atomic charges:    0.0000000

LOEWDIN ATOMIC CHARGES
----------------------
   0 C :   -0.014415
   1 O :   -0.006452
   2 H :   -0.034741
   3 H :   -0.001473
   4 H :   -0.000114
   5 H :   -0.009226
   6 C :   -0.363251
   7 O :   -0.056827
   8 H :    0.182967
   9 H :    0.107904
  10 H :    0.098177
  11 H :    0.097451

  Mayer bond orders larger than 0.1
B(  6-C ,  7-O ) :   0.9851 B(  6-C ,  9-H ) :   0.9739 B(  6-C , 10-H ) :   0.9828
B(  6-C , 11-H ) :   0.9686 B(  7-O ,  8-H ) :   0.8943

Dispersion correction           -0.000237692
FINAL SINGLE POINT ENERGY      -115.731633299508

DIPOLE MOMENT
-------------
                                X             Y             Z
Electronic contribution:     -0.77895      -1.66931      -0.23142
Nuclear contribution   :      1.34537       1.94281       0.60610
                        -----------------------------------------
Total Dipole Moment    :      0.56642       0.27349       0.37468
                        -----------------------------------------
Magnitude (a.u.)       :      0.73213
Magnitude (Debye)      :      1.86093

Rotational constants in cm-1:     4.291661     0.815578     0.775037
Rotational constants in MHz : 128660.773160 24450.406233 23235.022576

                             ****ORCA TERMINATED NORMALLY****
TOTAL RUN TIME: 0 days 0 hours 1 minutes 1 seconds 681 msec
