                         Program Version 4.1.2  - RELEASE  -
|  1> #Run DFT-D3 single point of the dimer
|  2> ! wB97X-D3 def2-TZVP TIGHTSCF CHELPG PMODEL PAL8
|  3>
|  4> %base "3-45_DFT_AB"
|  5>
|  6> %scf
|  7> MaxIter 1000
|  8> end
|  9>
| 10> * xyz 0 1
| 11>   C                      -3.289817            3.839313             -6.482746
| 12>   O                      -4.185576            4.250906             -7.462851
| 13>   H                      -4.707539            3.455339             -7.545012
| 14>   H                      -3.645948            3.191517             -5.758856
| 15>   H                      -2.405513            3.242529             -6.901142
| 16>   H                      -2.662676            4.632680             -6.020365
| 17>   C                      -3.012041            3.900434             -2.663585
| 18>   O                      -3.640976            3.102561             -1.705036
| 19>   H                      -3.750378            2.216618             -2.059249
| 20>   H                      -1.965253            3.607552             -2.994264
| 21>   H                      -3.582137            3.853329             -3.609413
| 22>   H                      -2.865664            4.852373             -2.280385
| 23> *
| 24>
| 25> #Run DFT-D3 single point of the molecule with dimer basis set
| 26> $new_job
| 27> %base "3-45_DFT_A"
| 28> ! wB97X-D3 def2-TZVP TIGHTSCF CHELPG PMODEL
| 29>
| 30> %scf
| 31> MaxIter 1000
| 32> end
| 33>
| 34> * xyz 0 1
| 35>   C                      -3.289817            3.839313             -6.482746
| 36>   O                      -4.185576            4.250906             -7.462851
| 37>   H                      -4.707539            3.455339             -7.545012
| 38>   H                      -3.645948            3.191517             -5.758856
| 39>   H                      -2.405513            3.242529             -6.901142
| 40>   H                      -2.662676            4.632680             -6.020365
| 41>   C                    : -3.012041            3.900434             -2.663585
| 42>   O                    : -3.640976            3.102561             -1.705036
| 43>   H                    : -3.750378            2.216618             -2.059249
| 44>   H                    : -1.965253            3.607552             -2.994264
| 45>   H                    : -3.582137            3.853329             -3.609413
| 46>   H                    : -2.865664            4.852373             -2.280385
| 47> *
| 48>
| 49> #Run DFT-D3 single point of the particle with dimer basis set
| 50> $new_job
| 51> %base "3-45_DFT_B"
| 52> ! wB97X-D3 def2-TZVP TIGHTSCF CHELPG PMODEL
| 53>
| 54> %scf
| 55> MaxIter 1000
| 56> end
| 57>
| 58> * xyz 0 1
| 59>   C                    : -3.289817            3.839313             -6.482746
| 60>   O                    : -4.185576            4.250906             -7.462851
| 61>   H                    : -4.707539            3.455339             -7.545012
| 62>   H                    : -3.645948            3.191517             -5.758856
| 63>   H                    : -2.405513            3.242529             -6.901142
| 64>   H                    : -2.662676            4.632680             -6.020365
| 65>   C                      -3.012041            3.900434             -2.663585
| 66>   O                      -3.640976            3.102561             -1.705036
| 67>   H                      -3.750378            2.216618             -2.059249
| 68>   H                      -1.965253            3.607552             -2.994264
| 69>   H                      -3.582137            3.853329             -3.609413
| 70>   H                      -2.865664            4.852373             -2.280385
| 71> *
| 72>
| 73>                          ****END OF INPUT****
 Total Charge           Charge          ....    0
 Multiplicity           Mult            ....    1
 Number of Electrons    NEL             ....   36
Dispersion correction           -0.001480209
FINAL SINGLE POINT ENERGY      -231.454977917298
Dispersion correction           -0.000235394
FINAL SINGLE POINT ENERGY      -115.723733855294

CARTESIAN COORDINATES (ANGSTROEM)
---------------------------------
  C     -3.289817    3.839313   -6.482746
  O     -4.185576    4.250906   -7.462851
  H     -4.707539    3.455339   -7.545012
  H     -3.645948    3.191517   -5.758856
  H     -2.405513    3.242529   -6.901142
  H     -2.662676    4.632680   -6.020365
  C     -3.012041    3.900434   -2.663585
  O     -3.640976    3.102561   -1.705036
  H     -3.750378    2.216618   -2.059249
  H     -1.965253    3.607552   -2.994264
  H     -3.582137    3.853329   -3.609413
  H     -2.865664    4.852373   -2.280385

 Multiplicity           Mult            ....    1
 Number of Electrons    NEL             ....   18
 Basis Dimension        Dim             ....  172

ORBITAL ENERGIES
----------------

  NO   OCC          E(Eh)            E(eV)
   0   2.0000     -19.232620      -523.3462
   1   2.0000     -10.311584      -280.5925
   2   2.0000      -1.142521       -31.0896
   3   2.0000      -0.798099       -21.7174
   4   2.0000      -0.617283       -16.7971
   5   2.0000      -0.548440       -14.9238
   6   2.0000      -0.521912       -14.2020
   7   2.0000      -0.438644       -11.9361
   8   2.0000      -0.369651       -10.0587
   9   0.0000       0.080833         2.1996
  10   0.0000       0.117506         3.1975
  11   0.0000       0.144896         3.9428
  12   0.0000       0.179868         4.8945
  13   0.0000       0.191156         5.2016

MULLIKEN ATOMIC CHARGES
-----------------------
   0 C :   -0.005405
   1 O :    0.000050
   2 H :   -0.000011
   3 H :    0.002350
   4 H :    0.000141
   5 H :    0.000361
   6 C :   -0.153825
   7 O :   -0.469161
   8 H :    0.316296
   9 H :    0.083343
  10 H :    0.100574
  11 H :    0.125286
Sum of atomic charges:   -0.0000000

LOEWDIN ATOMIC CHARGES
----------------------
   0 C :   -0.008344
   1 O :   -0.000017
   2 H :   -0.000009
   3 H :   -0.005131
   4 H :   -0.000072
   5 H :   -0.001425
   6 C :   -0.395311
   7 O :   -0.058858
   8 H :    0.170937
   9 H :    0.098647
  10 H :    0.103946
  11 H :    0.095636

  Mayer bond orders larger than 0.1
B(  6-C ,  7-O ) :   1.0055 B(  6-C ,  9-H ) :   0.9678 B(  6-C , 10-H ) :   0.9844
B(  6-C , 11-H ) :   0.9726 B(  7-O ,  8-H ) :   0.8975

Dispersion correction           -0.000244365
FINAL SINGLE POINT ENERGY      -115.731395448271

DIPOLE MOMENT
-------------
                                X             Y             Z
Electronic contribution:     -0.91545      -0.85642       1.45304
Nuclear contribution   :      1.07935       0.61057      -2.02587
                        -----------------------------------------
Total Dipole Moment    :      0.16389      -0.24585      -0.57283
                        -----------------------------------------
Magnitude (a.u.)       :      0.64454
Magnitude (Debye)      :      1.63830

Rotational constants in cm-1:     4.388822     0.843671     0.809373
Rotational constants in MHz : 131573.564619 25292.621348 24264.406127

                             ****ORCA TERMINATED NORMALLY****
TOTAL RUN TIME: 0 days 0 hours 6 minutes 23 seconds 608 msec
