                         Program Version 4.1.2  - RELEASE  -
|  1> #Run DFT geometry optimization
|  2> ! wB97X-D3 def2-TZVP TIGHTSCF Grid5 FinalGrid6 Opt CHELPG PAL4
|  3>
|  4> %base "4_geo_opt"
|  5> %geom MaxIter 500
|  6> end
|  7>
|  8> %geom
|  9>   Constraints
| 10>     { A 5 0 1 C }
| 11>   end
| 12> end
| 13>
| 14>
| 15> * xyz 0 1
| 16>   C                    3.011308             -1.180897            0.598492
| 17>   O                    4.394818             -1.129157            0.873788
| 18>   H                    4.772196             -0.379022            0.412493
| 19>   H                    2.806434             -1.318965            -0.469350
| 20>   H                    2.611632             -2.040265            1.135898
| 21>   H                    2.483933             -0.284850            0.945333
| 22> *
| 23>
| 24>                          ****END OF INPUT****
 Total Charge           Charge          ....    0
 Multiplicity           Mult            ....    1
 Number of Electrons    NEL             ....   18
Dispersion correction           -0.000239401
FINAL SINGLE POINT ENERGY      -115.738050646950
Dispersion correction            ... done
                    ***********************HURRAY********************

CARTESIAN COORDINATES (ANGSTROEM)
---------------------------------
  C      3.011408   -1.180875    0.598507
  O      4.394885   -1.128885    0.873659
  H      4.772150   -0.379260    0.412639
  H      2.806352   -1.319000   -0.469314
  H      2.611613   -2.040252    1.135837
  H      2.483913   -0.284884    0.945327

 Multiplicity           Mult            ....    1
 Number of Electrons    NEL             ....   18
 Basis Dimension        Dim             ....   86

ORBITAL ENERGIES
----------------

  NO   OCC          E(Eh)            E(eV)
   0   2.0000     -19.228135      -523.2242
   1   2.0000     -10.315109      -280.6884
   2   2.0000      -1.136848       -30.9352
   3   2.0000      -0.795353       -21.6426
   4   2.0000      -0.611645       -16.6437
   5   2.0000      -0.541729       -14.7412
   6   2.0000      -0.526306       -14.3215
   7   2.0000      -0.433840       -11.8054
   8   2.0000      -0.373635       -10.1671
   9   0.0000       0.116650         3.1742
  10   0.0000       0.156650         4.2627
  11   0.0000       0.202556         5.5118
  12   0.0000       0.205137         5.5821
  13   0.0000       0.226416         6.1611

MULLIKEN ATOMIC CHARGES
-----------------------
   0 C :   -0.150935
   1 O :   -0.477529
   2 H :    0.313000
   3 H :    0.098616
   4 H :    0.118217
   5 H :    0.098631
Sum of atomic charges:    0.0000000

LOEWDIN ATOMIC CHARGES
----------------------
   0 C :   -0.385276
   1 O :   -0.075989
   2 H :    0.165794
   3 H :    0.093402
   4 H :    0.108696
   5 H :    0.093373

  Mayer bond orders larger than 0.1
B(  0-C ,  1-O ) :   0.9987 B(  0-C ,  3-H ) :   0.9756 B(  0-C ,  4-H ) :   0.9750
B(  0-C ,  5-H ) :   0.9754 B(  1-O ,  2-H ) :   0.9002

Dispersion correction           -0.000239406
FINAL SINGLE POINT ENERGY      -115.738051024651

DIPOLE MOMENT
-------------
                                X             Y             Z
Electronic contribution:      1.75715      -0.02850       0.41961
Nuclear contribution   :     -2.06701       0.47681      -0.81643
                        -----------------------------------------
Total Dipole Moment    :     -0.30986       0.44831      -0.39682
                        -----------------------------------------
Magnitude (a.u.)       :      0.67414
Magnitude (Debye)      :      1.71352

Rotational constants in cm-1:     4.293710     0.833778     0.804871
Rotational constants in MHz : 128722.183975 24996.038382 24129.411265

                             ****ORCA TERMINATED NORMALLY****
TOTAL RUN TIME: 0 days 0 hours 0 minutes 40 seconds 567 msec
