                         Program Version 4.1.2  - RELEASE  -
|  1> #Run DFT-D3 single point of the dimer
|  2> ! wB97X-D3 def2-TZVP TIGHTSCF CHELPG PMODEL PAL8
|  3>
|  4> %base "6-56_DFT_AB"
|  5>
|  6> %scf
|  7> MaxIter 1000
|  8> end
|  9>
| 10> * xyz 0 1
| 11>   C                      0.196325             -0.976893            10.050342
| 12>   O                      1.433650             -0.253384            9.974844
| 13>   H                      1.432420             0.446621             10.619602
| 14>   H                      -0.611933            -0.325739            10.403889
| 15>   H                      -0.103297            -1.288178            8.974143
| 16>   H                      0.344229             -1.799503            10.711079
| 17>   C                      -3.751074            -0.644539            9.249190
| 18>   O                      -3.942653            -2.041896            9.308610
| 19>   H                      -4.472329            -2.095020            8.484193
| 20>   H                      -4.380453            -0.105337            8.559067
| 21>   H                      -3.992208            -0.341123            10.284410
| 22>   H                      -2.664164            -0.443341            9.082741
| 23> *
| 24>
| 25> #Run DFT-D3 single point of the molecule with dimer basis set
| 26> $new_job
| 27> %base "6-56_DFT_A"
| 28> ! wB97X-D3 def2-TZVP TIGHTSCF CHELPG PMODEL
| 29>
| 30> %scf
| 31> MaxIter 1000
| 32> end
| 33>
| 34> * xyz 0 1
| 35>   C                      0.196325             -0.976893            10.050342
| 36>   O                      1.433650             -0.253384            9.974844
| 37>   H                      1.432420             0.446621             10.619602
| 38>   H                      -0.611933            -0.325739            10.403889
| 39>   H                      -0.103297            -1.288178            8.974143
| 40>   H                      0.344229             -1.799503            10.711079
| 41>   C                    : -3.751074            -0.644539            9.249190
| 42>   O                    : -3.942653            -2.041896            9.308610
| 43>   H                    : -4.472329            -2.095020            8.484193
| 44>   H                    : -4.380453            -0.105337            8.559067
| 45>   H                    : -3.992208            -0.341123            10.284410
| 46>   H                    : -2.664164            -0.443341            9.082741
| 47> *
| 48>
| 49> #Run DFT-D3 single point of the particle with dimer basis set
| 50> $new_job
| 51> %base "6-56_DFT_B"
| 52> ! wB97X-D3 def2-TZVP TIGHTSCF CHELPG PMODEL
| 53>
| 54> %scf
| 55> MaxIter 1000
| 56> end
| 57>
| 58> * xyz 0 1
| 59>   C                    : 0.196325             -0.976893            10.050342
| 60>   O                    : 1.433650             -0.253384            9.974844
| 61>   H                    : 1.432420             0.446621             10.619602
| 62>   H                    : -0.611933            -0.325739            10.403889
| 63>   H                    : -0.103297            -1.288178            8.974143
| 64>   H                    : 0.344229             -1.799503            10.711079
| 65>   C                      -3.751074            -0.644539            9.249190
| 66>   O                      -3.942653            -2.041896            9.308610
| 67>   H                      -4.472329            -2.095020            8.484193
| 68>   H                      -4.380453            -0.105337            8.559067
| 69>   H                      -3.992208            -0.341123            10.284410
| 70>   H                      -2.664164            -0.443341            9.082741
| 71> *
| 72>
| 73>                          ****END OF INPUT****
 Total Charge           Charge          ....    0
 Multiplicity           Mult            ....    1
 Number of Electrons    NEL             ....   36
Dispersion correction           -0.001342138
FINAL SINGLE POINT ENERGY      -231.459004270240
Dispersion correction           -0.000246669
FINAL SINGLE POINT ENERGY      -115.732269947863

CARTESIAN COORDINATES (ANGSTROEM)
---------------------------------
  C      0.196325   -0.976893   10.050342
  O      1.433650   -0.253384    9.974844
  H      1.432420    0.446621   10.619602
  H     -0.611933   -0.325739   10.403889
  H     -0.103297   -1.288178    8.974143
  H      0.344229   -1.799503   10.711079
  C     -3.751074   -0.644539    9.249190
  O     -3.942653   -2.041896    9.308610
  H     -4.472329   -2.095020    8.484193
  H     -4.380453   -0.105337    8.559067
  H     -3.992208   -0.341123   10.284410
  H     -2.664164   -0.443341    9.082741

 Multiplicity           Mult            ....    1
 Number of Electrons    NEL             ....   18
 Basis Dimension        Dim             ....  172

ORBITAL ENERGIES
----------------

  NO   OCC          E(Eh)            E(eV)
   0   2.0000     -19.233513      -523.3705
   1   2.0000     -10.314214      -280.6640
   2   2.0000      -1.142348       -31.0849
   3   2.0000      -0.785081       -21.3631
   4   2.0000      -0.615220       -16.7410
   5   2.0000      -0.541123       -14.7247
   6   2.0000      -0.514547       -14.0015
   7   2.0000      -0.451655       -12.2902
   8   2.0000      -0.368695       -10.0327
   9   0.0000       0.088957         2.4206
  10   0.0000       0.112351         3.0572
  11   0.0000       0.159401         4.3375
  12   0.0000       0.167946         4.5700
  13   0.0000       0.190223         5.1762

MULLIKEN ATOMIC CHARGES
-----------------------
   0 C :    0.001980
   1 O :    0.000132
   2 H :    0.000031
   3 H :   -0.000806
   4 H :    0.000231
   5 H :   -0.000125
   6 C :   -0.183084
   7 O :   -0.451794
   8 H :    0.313239
   9 H :    0.112512
  10 H :    0.107441
  11 H :    0.100245
Sum of atomic charges:    0.0000000

LOEWDIN ATOMIC CHARGES
----------------------
   0 C :   -0.003943
   1 O :   -0.000021
   2 H :   -0.000001
   3 H :   -0.003045
   4 H :   -0.001052
   5 H :   -0.000037
   6 C :   -0.399702
   7 O :   -0.083931
   8 H :    0.187663
   9 H :    0.092011
  10 H :    0.107047
  11 H :    0.105012

  Mayer bond orders larger than 0.1
B(  6-C ,  7-O ) :   1.0092 B(  6-C ,  9-H ) :   0.9783 B(  6-C , 10-H ) :   0.9854
B(  6-C , 11-H ) :   0.9704 B(  7-O ,  8-H ) :   0.9044

Dispersion correction           -0.000216955
FINAL SINGLE POINT ENERGY      -115.725952219855

DIPOLE MOMENT
-------------
                                X             Y             Z
Electronic contribution:     -0.22120      -1.79711       0.06555
Nuclear contribution   :     -0.05625       2.27466      -0.59150
                        -----------------------------------------
Total Dipole Moment    :     -0.27745       0.47755      -0.52596
                        -----------------------------------------
Magnitude (a.u.)       :      0.76267
Magnitude (Debye)      :      1.93855

Rotational constants in cm-1:     4.052087     0.856697     0.819536
Rotational constants in MHz : 121478.501778 25683.139625 24569.075775

                             ****ORCA TERMINATED NORMALLY****
TOTAL RUN TIME: 0 days 0 hours 0 minutes 56 seconds 367 msec
