                         Program Version 4.1.2  - RELEASE  -
|  1> #Run DFT-D3 single point of the dimer
|  2> ! wB97X-D3 def2-TZVP TIGHTSCF CHELPG PMODEL PAL8
|  3>
|  4> %base "13-110_DFT_AB"
|  5>
|  6> %scf
|  7> MaxIter 1000
|  8> end
|  9>
| 10> * xyz 0 1
| 11>   C                      -6.030512            6.655904             1.816928
| 12>   O                      -5.728468            6.776601             3.218112
| 13>   H                      -4.798940            6.874311             3.255842
| 14>   H                      -7.104650            6.813739             1.601745
| 15>   H                      -5.444522            7.352368             1.185617
| 16>   H                      -5.877691            5.637061             1.551672
| 17>   C                      -2.594879            8.199299             0.433839
| 18>   O                      -2.875502            6.827219             0.129060
| 19>   H                      -3.783125            6.745427             -0.117083
| 20>   H                      -1.540234            8.249601             0.733262
| 21>   H                      -2.685778            8.822723             -0.489684
| 22>   H                      -3.280828            8.560480             1.135978
| 23> *
| 24>
| 25> #Run DFT-D3 single point of the molecule with dimer basis set
| 26> $new_job
| 27> %base "13-110_DFT_A"
| 28> ! wB97X-D3 def2-TZVP TIGHTSCF CHELPG PMODEL
| 29>
| 30> %scf
| 31> MaxIter 1000
| 32> end
| 33>
| 34> * xyz 0 1
| 35>   C                      -6.030512            6.655904             1.816928
| 36>   O                      -5.728468            6.776601             3.218112
| 37>   H                      -4.798940            6.874311             3.255842
| 38>   H                      -7.104650            6.813739             1.601745
| 39>   H                      -5.444522            7.352368             1.185617
| 40>   H                      -5.877691            5.637061             1.551672
| 41>   C                    : -2.594879            8.199299             0.433839
| 42>   O                    : -2.875502            6.827219             0.129060
| 43>   H                    : -3.783125            6.745427             -0.117083
| 44>   H                    : -1.540234            8.249601             0.733262
| 45>   H                    : -2.685778            8.822723             -0.489684
| 46>   H                    : -3.280828            8.560480             1.135978
| 47> *
| 48>
| 49> #Run DFT-D3 single point of the particle with dimer basis set
| 50> $new_job
| 51> %base "13-110_DFT_B"
| 52> ! wB97X-D3 def2-TZVP TIGHTSCF CHELPG PMODEL
| 53>
| 54> %scf
| 55> MaxIter 1000
| 56> end
| 57>
| 58> * xyz 0 1
| 59>   C                    : -6.030512            6.655904             1.816928
| 60>   O                    : -5.728468            6.776601             3.218112
| 61>   H                    : -4.798940            6.874311             3.255842
| 62>   H                    : -7.104650            6.813739             1.601745
| 63>   H                    : -5.444522            7.352368             1.185617
| 64>   H                    : -5.877691            5.637061             1.551672
| 65>   C                      -2.594879            8.199299             0.433839
| 66>   O                      -2.875502            6.827219             0.129060
| 67>   H                      -3.783125            6.745427             -0.117083
| 68>   H                      -1.540234            8.249601             0.733262
| 69>   H                      -2.685778            8.822723             -0.489684
| 70>   H                      -3.280828            8.560480             1.135978
| 71> *
| 72>
| 73>                          ****END OF INPUT****
 Total Charge           Charge          ....    0
 Multiplicity           Mult            ....    1
 Number of Electrons    NEL             ....   36
Dispersion correction           -0.001921411
FINAL SINGLE POINT ENERGY      -231.468865786365
Dispersion correction           -0.000238998
FINAL SINGLE POINT ENERGY      -115.733077198289

CARTESIAN COORDINATES (ANGSTROEM)
---------------------------------
  C     -6.030512    6.655904    1.816928
  O     -5.728468    6.776601    3.218112
  H     -4.798940    6.874311    3.255842
  H     -7.104650    6.813739    1.601745
  H     -5.444522    7.352368    1.185617
  H     -5.877691    5.637061    1.551672
  C     -2.594879    8.199299    0.433839
  O     -2.875502    6.827219    0.129060
  H     -3.783125    6.745427   -0.117083
  H     -1.540234    8.249601    0.733262
  H     -2.685778    8.822723   -0.489684
  H     -3.280828    8.560480    1.135978

 Multiplicity           Mult            ....    1
 Number of Electrons    NEL             ....   18
 Basis Dimension        Dim             ....  172

ORBITAL ENERGIES
----------------

  NO   OCC          E(Eh)            E(eV)
   0   2.0000     -19.226629      -523.1832
   1   2.0000     -10.312531      -280.6182
   2   2.0000      -1.132345       -30.8127
   3   2.0000      -0.798821       -21.7370
   4   2.0000      -0.611466       -16.6388
   5   2.0000      -0.543952       -14.8017
   6   2.0000      -0.522862       -14.2278
   7   2.0000      -0.437309       -11.8998
   8   2.0000      -0.373034       -10.1508
   9   0.0000       0.077987         2.1221
  10   0.0000       0.138412         3.7664
  11   0.0000       0.147761         4.0208
  12   0.0000       0.166506         4.5309
  13   0.0000       0.191736         5.2174

MULLIKEN ATOMIC CHARGES
-----------------------
   0 C :   -0.004105
   1 O :    0.000616
   2 H :   -0.000136
   3 H :   -0.000428
   4 H :   -0.004308
   5 H :    0.000404
   6 C :   -0.171857
   7 O :   -0.474818
   8 H :    0.310413
   9 H :    0.126655
  10 H :    0.102967
  11 H :    0.114599
Sum of atomic charges:    0.0000000

LOEWDIN ATOMIC CHARGES
----------------------
   0 C :   -0.006816
   1 O :   -0.000055
   2 H :   -0.000481
   3 H :   -0.000100
   4 H :   -0.005688
   5 H :   -0.000711
   6 C :   -0.360322
   7 O :   -0.077531
   8 H :    0.154451
   9 H :    0.112691
  10 H :    0.099802
  11 H :    0.084759

  Mayer bond orders larger than 0.1
B(  6-C ,  7-O ) :   0.9907 B(  6-C ,  9-H ) :   0.9748 B(  6-C , 10-H ) :   0.9817
B(  6-C , 11-H ) :   0.9716 B(  7-O ,  8-H ) :   0.9059

Dispersion correction           -0.000232951
FINAL SINGLE POINT ENERGY      -115.734816969266

DIPOLE MOMENT
-------------
                                X             Y             Z
Electronic contribution:     -0.23215      -1.70012      -0.20866
Nuclear contribution   :     -0.22251       2.21740       0.18123
                        -----------------------------------------
Total Dipole Moment    :     -0.45466       0.51728      -0.02743
                        -----------------------------------------
Magnitude (a.u.)       :      0.68924
Magnitude (Debye)      :      1.75190

Rotational constants in cm-1:     4.295980     0.822711     0.790335
Rotational constants in MHz : 128790.228792 24664.263125 23693.634729

                             ****ORCA TERMINATED NORMALLY****
TOTAL RUN TIME: 0 days 0 hours 1 minutes 7 seconds 906 msec
