                         Program Version 4.1.2  - RELEASE  -
|  1> #Run DFT-D3 single point of the dimer
|  2> ! wB97X-D3 def2-TZVP TIGHTSCF CHELPG PMODEL PAL8
|  3>
|  4> %base "16-75_DFT_AB"
|  5>
|  6> %scf
|  7> MaxIter 1000
|  8> end
|  9>
| 10> * xyz 0 1
| 11>   C                      1.882657             -5.473259            -4.311445
| 12>   O                      1.200089             -6.616802            -4.829966
| 13>   H                      0.588911             -6.281126            -5.540718
| 14>   H                      2.877696             -5.712606            -3.843402
| 15>   H                      2.170245             -4.752331            -5.142988
| 16>   H                      1.250145             -4.869591            -3.657311
| 17>   C                      4.456608             -5.758991            -6.873054
| 18>   O                      5.760010             -5.413687            -6.980068
| 19>   H                      6.153159             -5.988479            -7.622950
| 20>   H                      3.953173             -5.299988            -7.743366
| 21>   H                      4.340412             -6.843411            -6.864687
| 22>   H                      4.166670             -5.363471            -5.862831
| 23> *
| 24>
| 25> #Run DFT-D3 single point of the molecule with dimer basis set
| 26> $new_job
| 27> %base "16-75_DFT_A"
| 28> ! wB97X-D3 def2-TZVP TIGHTSCF CHELPG PMODEL
| 29>
| 30> %scf
| 31> MaxIter 1000
| 32> end
| 33>
| 34> * xyz 0 1
| 35>   C                      1.882657             -5.473259            -4.311445
| 36>   O                      1.200089             -6.616802            -4.829966
| 37>   H                      0.588911             -6.281126            -5.540718
| 38>   H                      2.877696             -5.712606            -3.843402
| 39>   H                      2.170245             -4.752331            -5.142988
| 40>   H                      1.250145             -4.869591            -3.657311
| 41>   C                    : 4.456608             -5.758991            -6.873054
| 42>   O                    : 5.760010             -5.413687            -6.980068
| 43>   H                    : 6.153159             -5.988479            -7.622950
| 44>   H                    : 3.953173             -5.299988            -7.743366
| 45>   H                    : 4.340412             -6.843411            -6.864687
| 46>   H                    : 4.166670             -5.363471            -5.862831
| 47> *
| 48>
| 49> #Run DFT-D3 single point of the particle with dimer basis set
| 50> $new_job
| 51> %base "16-75_DFT_B"
| 52> ! wB97X-D3 def2-TZVP TIGHTSCF CHELPG PMODEL
| 53>
| 54> %scf
| 55> MaxIter 1000
| 56> end
| 57>
| 58> * xyz 0 1
| 59>   C                    : 1.882657             -5.473259            -4.311445
| 60>   O                    : 1.200089             -6.616802            -4.829966
| 61>   H                    : 0.588911             -6.281126            -5.540718
| 62>   H                    : 2.877696             -5.712606            -3.843402
| 63>   H                    : 2.170245             -4.752331            -5.142988
| 64>   H                    : 1.250145             -4.869591            -3.657311
| 65>   C                      4.456608             -5.758991            -6.873054
| 66>   O                      5.760010             -5.413687            -6.980068
| 67>   H                      6.153159             -5.988479            -7.622950
| 68>   H                      3.953173             -5.299988            -7.743366
| 69>   H                      4.340412             -6.843411            -6.864687
| 70>   H                      4.166670             -5.363471            -5.862831
| 71> *
| 72>
| 73>                          ****END OF INPUT****
 Total Charge           Charge          ....    0
 Multiplicity           Mult            ....    1
 Number of Electrons    NEL             ....   36
Dispersion correction           -0.001637841
FINAL SINGLE POINT ENERGY      -231.460549227222
Dispersion correction           -0.000260539
FINAL SINGLE POINT ENERGY      -115.731346870299

CARTESIAN COORDINATES (ANGSTROEM)
---------------------------------
  C      1.882657   -5.473259   -4.311445
  O      1.200089   -6.616802   -4.829966
  H      0.588911   -6.281126   -5.540718
  H      2.877696   -5.712606   -3.843402
  H      2.170245   -4.752331   -5.142988
  H      1.250145   -4.869591   -3.657311
  C      4.456608   -5.758991   -6.873054
  O      5.760010   -5.413687   -6.980068
  H      6.153159   -5.988479   -7.622950
  H      3.953173   -5.299988   -7.743366
  H      4.340412   -6.843411   -6.864687
  H      4.166670   -5.363471   -5.862831

 Multiplicity           Mult            ....    1
 Number of Electrons    NEL             ....   18
 Basis Dimension        Dim             ....  172

ORBITAL ENERGIES
----------------

  NO   OCC          E(Eh)            E(eV)
   0   2.0000     -19.223580      -523.1002
   1   2.0000     -10.310762      -280.5701
   2   2.0000      -1.158913       -31.5356
   3   2.0000      -0.788061       -21.4442
   4   2.0000      -0.621875       -16.9221
   5   2.0000      -0.558261       -15.1910
   6   2.0000      -0.524950       -14.2846
   7   2.0000      -0.427499       -11.6328
   8   2.0000      -0.367503       -10.0003
   9   0.0000       0.087976         2.3939
  10   0.0000       0.115221         3.1353
  11   0.0000       0.156627         4.2620
  12   0.0000       0.170318         4.6346
  13   0.0000       0.191433         5.2092

MULLIKEN ATOMIC CHARGES
-----------------------
   0 C :   -0.002616
   1 O :    0.000449
   2 H :    0.000041
   3 H :    0.000122
   4 H :   -0.000701
   5 H :   -0.000144
   6 C :   -0.140609
   7 O :   -0.458158
   8 H :    0.309631
   9 H :    0.089214
  10 H :    0.090274
  11 H :    0.112496
Sum of atomic charges:   -0.0000000

LOEWDIN ATOMIC CHARGES
----------------------
   0 C :   -0.010974
   1 O :   -0.000106
   2 H :   -0.000039
   3 H :   -0.002991
   4 H :   -0.006010
   5 H :   -0.000071
   6 C :   -0.425711
   7 O :   -0.031007
   8 H :    0.163825
   9 H :    0.097013
  10 H :    0.091503
  11 H :    0.124568

  Mayer bond orders larger than 0.1
B(  6-C ,  7-O ) :   1.0011 B(  6-C ,  9-H ) :   0.9763 B(  6-C , 10-H ) :   0.9803
B(  6-C , 11-H ) :   0.9728 B(  7-O ,  8-H ) :   0.9028

Dispersion correction           -0.000193831
FINAL SINGLE POINT ENERGY      -115.728901643458

DIPOLE MOMENT
-------------
                                X             Y             Z
Electronic contribution:      1.60515       0.51161      -0.07156
Nuclear contribution   :     -1.78758      -1.02100      -0.29339
                        -----------------------------------------
Total Dipole Moment    :     -0.18243      -0.50940      -0.36495
                        -----------------------------------------
Magnitude (a.u.)       :      0.65265
Magnitude (Debye)      :      1.65892

Rotational constants in cm-1:     4.064718     0.912298     0.878912
Rotational constants in MHz : 121857.192578 27350.011544 26349.107388

                             ****ORCA TERMINATED NORMALLY****
TOTAL RUN TIME: 0 days 0 hours 1 minutes 0 seconds 618 msec
