                         Program Version 4.1.2  - RELEASE  -
|  1> #Run DFT-D3 single point of the dimer
|  2> ! wB97X-D3 def2-TZVP TIGHTSCF CHELPG PMODEL PAL8
|  3>
|  4> %base "11-185_DFT_AB"
|  5>
|  6> %scf
|  7> MaxIter 1000
|  8> end
|  9>
| 10> * xyz 0 1
| 11>   C                      -9.377443            -0.722194            -1.786221
| 12>   O                      -9.024279            -1.231015            -3.033294
| 13>   H                      -8.088597            -1.123171            -3.081556
| 14>   H                      -9.541488            0.328002             -1.906169
| 15>   H                      -10.284769           -1.261342            -1.328762
| 16>   H                      -8.513561            -0.847553            -1.098093
| 17>   C                      -10.601700           -1.340153            -6.515866
| 18>   O                      -9.853865            -2.173804            -5.554064
| 19>   H                      -10.156461           -2.016928            -4.673614
| 20>   H                      -10.217419           -0.365535            -6.397053
| 21>   H                      -10.391301           -1.669020            -7.565933
| 22>   H                      -11.635919           -1.467223            -6.354808
| 23> *
| 24>
| 25> #Run DFT-D3 single point of the molecule with dimer basis set
| 26> $new_job
| 27> %base "11-185_DFT_A"
| 28> ! wB97X-D3 def2-TZVP TIGHTSCF CHELPG PMODEL
| 29>
| 30> %scf
| 31> MaxIter 1000
| 32> end
| 33>
| 34> * xyz 0 1
| 35>   C                      -9.377443            -0.722194            -1.786221
| 36>   O                      -9.024279            -1.231015            -3.033294
| 37>   H                      -8.088597            -1.123171            -3.081556
| 38>   H                      -9.541488            0.328002             -1.906169
| 39>   H                      -10.284769           -1.261342            -1.328762
| 40>   H                      -8.513561            -0.847553            -1.098093
| 41>   C                    : -10.601700           -1.340153            -6.515866
| 42>   O                    : -9.853865            -2.173804            -5.554064
| 43>   H                    : -10.156461           -2.016928            -4.673614
| 44>   H                    : -10.217419           -0.365535            -6.397053
| 45>   H                    : -10.391301           -1.669020            -7.565933
| 46>   H                    : -11.635919           -1.467223            -6.354808
| 47> *
| 48>
| 49> #Run DFT-D3 single point of the particle with dimer basis set
| 50> $new_job
| 51> %base "11-185_DFT_B"
| 52> ! wB97X-D3 def2-TZVP TIGHTSCF CHELPG PMODEL
| 53>
| 54> %scf
| 55> MaxIter 1000
| 56> end
| 57>
| 58> * xyz 0 1
| 59>   C                    : -9.377443            -0.722194            -1.786221
| 60>   O                    : -9.024279            -1.231015            -3.033294
| 61>   H                    : -8.088597            -1.123171            -3.081556
| 62>   H                    : -9.541488            0.328002             -1.906169
| 63>   H                    : -10.284769           -1.261342            -1.328762
| 64>   H                    : -8.513561            -0.847553            -1.098093
| 65>   C                      -10.601700           -1.340153            -6.515866
| 66>   O                      -9.853865            -2.173804            -5.554064
| 67>   H                      -10.156461           -2.016928            -4.673614
| 68>   H                      -10.217419           -0.365535            -6.397053
| 69>   H                      -10.391301           -1.669020            -7.565933
| 70>   H                      -11.635919           -1.467223            -6.354808
| 71> *
| 72>
| 73>                          ****END OF INPUT****
 Total Charge           Charge          ....    0
 Multiplicity           Mult            ....    1
 Number of Electrons    NEL             ....   36
Dispersion correction           -0.001436862
FINAL SINGLE POINT ENERGY      -231.465550956179
Dispersion correction           -0.000215683
FINAL SINGLE POINT ENERGY      -115.731098898956

CARTESIAN COORDINATES (ANGSTROEM)
---------------------------------
  C     -9.377443   -0.722194   -1.786221
  O     -9.024279   -1.231015   -3.033294
  H     -8.088597   -1.123171   -3.081556
  H     -9.541488    0.328002   -1.906169
  H    -10.284769   -1.261342   -1.328762
  H     -8.513561   -0.847553   -1.098093
  C    -10.601700   -1.340153   -6.515866
  O     -9.853865   -2.173804   -5.554064
  H    -10.156461   -2.016928   -4.673614
  H    -10.217419   -0.365535   -6.397053
  H    -10.391301   -1.669020   -7.565933
  H    -11.635919   -1.467223   -6.354808

 Multiplicity           Mult            ....    1
 Number of Electrons    NEL             ....   18
 Basis Dimension        Dim             ....  172

ORBITAL ENERGIES
----------------

  NO   OCC          E(Eh)            E(eV)
   0   2.0000     -19.222991      -523.0842
   1   2.0000     -10.313719      -280.6506
   2   2.0000      -1.117936       -30.4206
   3   2.0000      -0.803419       -21.8621
   4   2.0000      -0.597233       -16.2515
   5   2.0000      -0.554778       -15.0963
   6   2.0000      -0.519907       -14.1474
   7   2.0000      -0.428299       -11.6546
   8   2.0000      -0.375769       -10.2252
   9   0.0000       0.076477         2.0811
  10   0.0000       0.129613         3.5270
  11   0.0000       0.151394         4.1196
  12   0.0000       0.168471         4.5843
  13   0.0000       0.193617         5.2686

MULLIKEN ATOMIC CHARGES
-----------------------
   0 C :   -0.002500
   1 O :   -0.005297
   2 H :   -0.002101
   3 H :    0.000156
   4 H :    0.000109
   5 H :    0.000046
   6 C :   -0.166996
   7 O :   -0.488623
   8 H :    0.309599
   9 H :    0.118215
  10 H :    0.118462
  11 H :    0.118930
Sum of atomic charges:   -0.0000000

LOEWDIN ATOMIC CHARGES
----------------------
   0 C :   -0.001852
   1 O :   -0.016641
   2 H :   -0.002367
   3 H :   -0.000052
   4 H :   -0.000094
   5 H :   -0.000052
   6 C :   -0.324419
   7 O :   -0.106303
   8 H :    0.153731
   9 H :    0.091777
  10 H :    0.115862
  11 H :    0.090410

  Mayer bond orders larger than 0.1
B(  6-C ,  7-O ) :   0.9829 B(  6-C ,  9-H ) :   0.9789 B(  6-C , 10-H ) :   0.9722
B(  6-C , 11-H ) :   0.9793 B(  7-O ,  8-H ) :   0.9045

Dispersion correction           -0.000245449
FINAL SINGLE POINT ENERGY      -115.730641792357

DIPOLE MOMENT
-------------
                                X             Y             Z
Electronic contribution:      0.84778      -0.95323       1.02616
Nuclear contribution   :     -1.39107       1.42632      -0.91636
                        -----------------------------------------
Total Dipole Moment    :     -0.54329       0.47309       0.10980
                        -----------------------------------------
Magnitude (a.u.)       :      0.72872
Magnitude (Debye)      :      1.85225

Rotational constants in cm-1:     4.383027     0.780076     0.758963
Rotational constants in MHz : 131399.855905 23386.099631 22753.148282

                             ****ORCA TERMINATED NORMALLY****
TOTAL RUN TIME: 0 days 0 hours 1 minutes 14 seconds 749 msec
