                         Program Version 4.1.2  - RELEASE  -
|  1> #Run DFT-D3 single point of the dimer
|  2> ! wB97X-D3 def2-TZVP TIGHTSCF CHELPG PMODEL PAL8
|  3>
|  4> %base "9-71_DFT_AB"
|  5>
|  6> %scf
|  7> MaxIter 1000
|  8> end
|  9>
| 10> * xyz 0 1
| 11>   C                      -6.988085            5.917320             -1.756806
| 12>   O                      -5.841079            5.346315             -1.198149
| 13>   H                      -6.238028            4.725105             -0.596400
| 14>   H                      -7.469596            5.138823             -2.402609
| 15>   H                      -7.670168            6.304700             -1.043612
| 16>   H                      -6.732474            6.712058             -2.340388
| 17>   C                      -10.846831           6.292560             -5.177887
| 18>   O                      -10.666266           5.180192             -5.989174
| 19>   H                      -9.727146            5.190849             -6.148971
| 20>   H                      -10.607147           7.196297             -5.730053
| 21>   H                      -11.874322           6.440431             -4.953512
| 22>   H                      -10.417366           6.159813             -4.139783
| 23> *
| 24>
| 25> #Run DFT-D3 single point of the molecule with dimer basis set
| 26> $new_job
| 27> %base "9-71_DFT_A"
| 28> ! wB97X-D3 def2-TZVP TIGHTSCF CHELPG PMODEL
| 29>
| 30> %scf
| 31> MaxIter 1000
| 32> end
| 33>
| 34> * xyz 0 1
| 35>   C                      -6.988085            5.917320             -1.756806
| 36>   O                      -5.841079            5.346315             -1.198149
| 37>   H                      -6.238028            4.725105             -0.596400
| 38>   H                      -7.469596            5.138823             -2.402609
| 39>   H                      -7.670168            6.304700             -1.043612
| 40>   H                      -6.732474            6.712058             -2.340388
| 41>   C                    : -10.846831           6.292560             -5.177887
| 42>   O                    : -10.666266           5.180192             -5.989174
| 43>   H                    : -9.727146            5.190849             -6.148971
| 44>   H                    : -10.607147           7.196297             -5.730053
| 45>   H                    : -11.874322           6.440431             -4.953512
| 46>   H                    : -10.417366           6.159813             -4.139783
| 47> *
| 48>
| 49> #Run DFT-D3 single point of the particle with dimer basis set
| 50> $new_job
| 51> %base "9-71_DFT_B"
| 52> ! wB97X-D3 def2-TZVP TIGHTSCF CHELPG PMODEL
| 53>
| 54> %scf
| 55> MaxIter 1000
| 56> end
| 57>
| 58> * xyz 0 1
| 59>   C                    : -6.988085            5.917320             -1.756806
| 60>   O                    : -5.841079            5.346315             -1.198149
| 61>   H                    : -6.238028            4.725105             -0.596400
| 62>   H                    : -7.469596            5.138823             -2.402609
| 63>   H                    : -7.670168            6.304700             -1.043612
| 64>   H                    : -6.732474            6.712058             -2.340388
| 65>   C                      -10.846831           6.292560             -5.177887
| 66>   O                      -10.666266           5.180192             -5.989174
| 67>   H                      -9.727146            5.190849             -6.148971
| 68>   H                      -10.607147           7.196297             -5.730053
| 69>   H                      -11.874322           6.440431             -4.953512
| 70>   H                      -10.417366           6.159813             -4.139783
| 71> *
| 72>
| 73>                          ****END OF INPUT****
 Total Charge           Charge          ....    0
 Multiplicity           Mult            ....    1
 Number of Electrons    NEL             ....   36
Dispersion correction           -0.000709074
FINAL SINGLE POINT ENERGY      -231.459734690299
Dispersion correction           -0.000197776
FINAL SINGLE POINT ENERGY      -115.729168774297

CARTESIAN COORDINATES (ANGSTROEM)
---------------------------------
  C     -6.988085    5.917320   -1.756806
  O     -5.841079    5.346315   -1.198149
  H     -6.238028    4.725105   -0.596400
  H     -7.469596    5.138823   -2.402609
  H     -7.670168    6.304700   -1.043612
  H     -6.732474    6.712058   -2.340388
  C    -10.846831    6.292560   -5.177887
  O    -10.666266    5.180192   -5.989174
  H     -9.727146    5.190849   -6.148971
  H    -10.607147    7.196297   -5.730053
  H    -11.874322    6.440431   -4.953512
  H    -10.417366    6.159813   -4.139783

 Multiplicity           Mult            ....    1
 Number of Electrons    NEL             ....   18
 Basis Dimension        Dim             ....  172

ORBITAL ENERGIES
----------------

  NO   OCC          E(Eh)            E(eV)
   0   2.0000     -19.231378      -523.3124
   1   2.0000     -10.309270      -280.5295
   2   2.0000      -1.149699       -31.2849
   3   2.0000      -0.795282       -21.6407
   4   2.0000      -0.608471       -16.5573
   5   2.0000      -0.555432       -15.1141
   6   2.0000      -0.532270       -14.4838
   7   2.0000      -0.427042       -11.6204
   8   2.0000      -0.376881       -10.2554
   9   0.0000       0.080253         2.1838
  10   0.0000       0.117719         3.2033
  11   0.0000       0.149881         4.0785
  12   0.0000       0.168592         4.5876
  13   0.0000       0.185490         5.0475

MULLIKEN ATOMIC CHARGES
-----------------------
   0 C :   -0.000320
   1 O :    0.000002
   2 H :    0.000001
   3 H :    0.000279
   4 H :   -0.000019
   5 H :   -0.000037
   6 C :   -0.172083
   7 O :   -0.457268
   8 H :    0.314604
   9 H :    0.102356
  10 H :    0.115300
  11 H :    0.097185
Sum of atomic charges:    0.0000000

LOEWDIN ATOMIC CHARGES
----------------------
   0 C :   -0.000338
   1 O :   -0.000003
   2 H :   -0.000000
   3 H :   -0.000125
   4 H :   -0.000032
   5 H :   -0.000030
   6 C :   -0.415549
   7 O :   -0.053274
   8 H :    0.169835
   9 H :    0.095784
  10 H :    0.100924
  11 H :    0.102809

  Mayer bond orders larger than 0.1
B(  6-C ,  7-O ) :   1.0117 B(  6-C ,  9-H ) :   0.9813 B(  6-C , 10-H ) :   0.9735
B(  6-C , 11-H ) :   0.9734 B(  7-O ,  8-H ) :   0.9036

Dispersion correction           -0.000222755
FINAL SINGLE POINT ENERGY      -115.730266261507

DIPOLE MOMENT
-------------
                                X             Y             Z
Electronic contribution:      0.17843      -1.50303      -1.10635
Nuclear contribution   :      0.28704       1.92622       1.30042
                        -----------------------------------------
Total Dipole Moment    :      0.46547       0.42319       0.19407
                        -----------------------------------------
Magnitude (a.u.)       :      0.65834
Magnitude (Debye)      :      1.67337

Rotational constants in cm-1:     4.304611     0.849817     0.839152
Rotational constants in MHz : 129049.006019 25476.863034 25157.135041

                             ****ORCA TERMINATED NORMALLY****
TOTAL RUN TIME: 0 days 0 hours 0 minutes 40 seconds 814 msec
