                         Program Version 4.1.2  - RELEASE  -
|  1> #Run DFT-D3 single point of the dimer
|  2> ! wB97X-D3 def2-TZVP TIGHTSCF CHELPG PMODEL PAL8
|  3>
|  4> %base "7-186_DFT_AB"
|  5>
|  6> %scf
|  7> MaxIter 1000
|  8> end
|  9>
| 10> * xyz 0 1
| 11>   C                      -10.366333           9.400364             4.873024
| 12>   O                      -9.797859            8.155894             5.312416
| 13>   H                      -9.687546            8.081210             6.256478
| 14>   H                      -9.800704            10.228057            5.250804
| 15>   H                      -10.356732           9.413983             3.799430
| 16>   H                      -11.441551           9.558626             5.335335
| 17>   C                      -6.346602            8.671174             5.587876
| 18>   O                      -6.952775            8.576678             4.285436
| 19>   H                      -7.872058            8.422140             4.431306
| 20>   H                      -6.546244            9.659491             6.022486
| 21>   H                      -6.779597            7.839161             6.158286
| 22>   H                      -5.274438            8.470878             5.635149
| 23> *
| 24>
| 25> #Run DFT-D3 single point of the molecule with dimer basis set
| 26> $new_job
| 27> %base "7-186_DFT_A"
| 28> ! wB97X-D3 def2-TZVP TIGHTSCF CHELPG PMODEL
| 29>
| 30> %scf
| 31> MaxIter 1000
| 32> end
| 33>
| 34> * xyz 0 1
| 35>   C                      -10.366333           9.400364             4.873024
| 36>   O                      -9.797859            8.155894             5.312416
| 37>   H                      -9.687546            8.081210             6.256478
| 38>   H                      -9.800704            10.228057            5.250804
| 39>   H                      -10.356732           9.413983             3.799430
| 40>   H                      -11.441551           9.558626             5.335335
| 41>   C                    : -6.346602            8.671174             5.587876
| 42>   O                    : -6.952775            8.576678             4.285436
| 43>   H                    : -7.872058            8.422140             4.431306
| 44>   H                    : -6.546244            9.659491             6.022486
| 45>   H                    : -6.779597            7.839161             6.158286
| 46>   H                    : -5.274438            8.470878             5.635149
| 47> *
| 48>
| 49> #Run DFT-D3 single point of the particle with dimer basis set
| 50> $new_job
| 51> %base "7-186_DFT_B"
| 52> ! wB97X-D3 def2-TZVP TIGHTSCF CHELPG PMODEL
| 53>
| 54> %scf
| 55> MaxIter 1000
| 56> end
| 57>
| 58> * xyz 0 1
| 59>   C                    : -10.366333           9.400364             4.873024
| 60>   O                    : -9.797859            8.155894             5.312416
| 61>   H                    : -9.687546            8.081210             6.256478
| 62>   H                    : -9.800704            10.228057            5.250804
| 63>   H                    : -10.356732           9.413983             3.799430
| 64>   H                    : -11.441551           9.558626             5.335335
| 65>   C                      -6.346602            8.671174             5.587876
| 66>   O                      -6.952775            8.576678             4.285436
| 67>   H                      -7.872058            8.422140             4.431306
| 68>   H                      -6.546244            9.659491             6.022486
| 69>   H                      -6.779597            7.839161             6.158286
| 70>   H                      -5.274438            8.470878             5.635149
| 71> *
| 72>
| 73>                          ****END OF INPUT****
 Total Charge           Charge          ....    0
 Multiplicity           Mult            ....    1
 Number of Electrons    NEL             ....   36
Dispersion correction           -0.002141009
FINAL SINGLE POINT ENERGY      -231.471215164549
Dispersion correction           -0.000267349
FINAL SINGLE POINT ENERGY      -115.731354373784

CARTESIAN COORDINATES (ANGSTROEM)
---------------------------------
  C    -10.366333    9.400364    4.873024
  O     -9.797859    8.155894    5.312416
  H     -9.687546    8.081210    6.256478
  H     -9.800704   10.228057    5.250804
  H    -10.356732    9.413983    3.799430
  H    -11.441551    9.558626    5.335335
  C     -6.346602    8.671174    5.587876
  O     -6.952775    8.576678    4.285436
  H     -7.872058    8.422140    4.431306
  H     -6.546244    9.659491    6.022486
  H     -6.779597    7.839161    6.158286
  H     -5.274438    8.470878    5.635149

 Multiplicity           Mult            ....    1
 Number of Electrons    NEL             ....   18
 Basis Dimension        Dim             ....  172

ORBITAL ENERGIES
----------------

  NO   OCC          E(Eh)            E(eV)
   0   2.0000     -19.227611      -523.2099
   1   2.0000     -10.317125      -280.7432
   2   2.0000      -1.132761       -30.8240
   3   2.0000      -0.796648       -21.6779
   4   2.0000      -0.602876       -16.4051
   5   2.0000      -0.548336       -14.9210
   6   2.0000      -0.530157       -14.4263
   7   2.0000      -0.427915       -11.6442
   8   2.0000      -0.376039       -10.2325
   9   0.0000       0.069797         1.8993
  10   0.0000       0.134087         3.6487
  11   0.0000       0.149388         4.0651
  12   0.0000       0.161194         4.3863
  13   0.0000       0.188225         5.1219

MULLIKEN ATOMIC CHARGES
-----------------------
   0 C :   -0.007583
   1 O :   -0.001995
   2 H :    0.000116
   3 H :    0.000226
   4 H :    0.001140
   5 H :   -0.000270
   6 C :   -0.178845
   7 O :   -0.470771
   8 H :    0.311909
   9 H :    0.110577
  10 H :    0.108934
  11 H :    0.126560
Sum of atomic charges:   -0.0000000

LOEWDIN ATOMIC CHARGES
----------------------
   0 C :   -0.007763
   1 O :   -0.010531
   2 H :   -0.001469
   3 H :   -0.000873
   4 H :   -0.000617
   5 H :   -0.000146
   6 C :   -0.364165
   7 O :   -0.080632
   8 H :    0.160223
   9 H :    0.098225
  10 H :    0.100699
  11 H :    0.107048

  Mayer bond orders larger than 0.1
B(  6-C ,  7-O ) :   0.9833 B(  6-C ,  9-H ) :   0.9718 B(  6-C , 10-H ) :   0.9897
B(  6-C , 11-H ) :   0.9708 B(  7-O ,  8-H ) :   0.9132

Dispersion correction           -0.000236403
FINAL SINGLE POINT ENERGY      -115.732290222146

DIPOLE MOMENT
-------------
                                X             Y             Z
Electronic contribution:     -0.54772      -0.02053      -1.71134
Nuclear contribution   :      0.24126      -0.06382       2.34537
                        -----------------------------------------
Total Dipole Moment    :     -0.30646      -0.08435       0.63402
                        -----------------------------------------
Magnitude (a.u.)       :      0.70923
Magnitude (Debye)      :      1.80273

Rotational constants in cm-1:     4.303262     0.805210     0.787952
Rotational constants in MHz : 129008.542253 24139.575020 23622.212694

                             ****ORCA TERMINATED NORMALLY****
TOTAL RUN TIME: 0 days 0 hours 1 minutes 9 seconds 151 msec
