                         Program Version 4.1.2  - RELEASE  -
|  1> #Run DFT-D3 single point of the dimer
|  2> ! wB97X-D3 def2-TZVP TIGHTSCF CHELPG PMODEL PAL8
|  3>
|  4> %base "5-110_DFT_AB"
|  5>
|  6> %scf
|  7> MaxIter 1000
|  8> end
|  9>
| 10> * xyz 0 1
| 11>   C                      5.879248             6.066946             0.264854
| 12>   O                      4.644750             5.484827             0.033709
| 13>   H                      3.940731             6.087676             0.317555
| 14>   H                      5.948655             7.172369             0.120098
| 15>   H                      6.144315             5.944105             1.290748
| 16>   H                      6.708963             5.622361             -0.348714
| 17>   C                      6.349488             1.958305             -0.293641
| 18>   O                      6.402245             1.534939             -1.668295
| 19>   H                      5.500103             1.659178             -2.082639
| 20>   H                      7.230434             2.498772             -0.038362
| 21>   H                      5.513317             2.605014             -0.130240
| 22>   H                      6.275680             1.143591             0.346185
| 23> *
| 24>
| 25> #Run DFT-D3 single point of the molecule with dimer basis set
| 26> $new_job
| 27> %base "5-110_DFT_A"
| 28> ! wB97X-D3 def2-TZVP TIGHTSCF CHELPG PMODEL
| 29>
| 30> %scf
| 31> MaxIter 1000
| 32> end
| 33>
| 34> * xyz 0 1
| 35>   C                      5.879248             6.066946             0.264854
| 36>   O                      4.644750             5.484827             0.033709
| 37>   H                      3.940731             6.087676             0.317555
| 38>   H                      5.948655             7.172369             0.120098
| 39>   H                      6.144315             5.944105             1.290748
| 40>   H                      6.708963             5.622361             -0.348714
| 41>   C                    : 6.349488             1.958305             -0.293641
| 42>   O                    : 6.402245             1.534939             -1.668295
| 43>   H                    : 5.500103             1.659178             -2.082639
| 44>   H                    : 7.230434             2.498772             -0.038362
| 45>   H                    : 5.513317             2.605014             -0.130240
| 46>   H                    : 6.275680             1.143591             0.346185
| 47> *
| 48>
| 49> #Run DFT-D3 single point of the particle with dimer basis set
| 50> $new_job
| 51> %base "5-110_DFT_B"
| 52> ! wB97X-D3 def2-TZVP TIGHTSCF CHELPG PMODEL
| 53>
| 54> %scf
| 55> MaxIter 1000
| 56> end
| 57>
| 58> * xyz 0 1
| 59>   C                    : 5.879248             6.066946             0.264854
| 60>   O                    : 4.644750             5.484827             0.033709
| 61>   H                    : 3.940731             6.087676             0.317555
| 62>   H                    : 5.948655             7.172369             0.120098
| 63>   H                    : 6.144315             5.944105             1.290748
| 64>   H                    : 6.708963             5.622361             -0.348714
| 65>   C                      6.349488             1.958305             -0.293641
| 66>   O                      6.402245             1.534939             -1.668295
| 67>   H                      5.500103             1.659178             -2.082639
| 68>   H                      7.230434             2.498772             -0.038362
| 69>   H                      5.513317             2.605014             -0.130240
| 70>   H                      6.275680             1.143591             0.346185
| 71> *
| 72>
| 73>                          ****END OF INPUT****
 Total Charge           Charge          ....    0
 Multiplicity           Mult            ....    1
 Number of Electrons    NEL             ....   36
Dispersion correction           -0.001445031
FINAL SINGLE POINT ENERGY      -231.466249743999
Dispersion correction           -0.000244969
FINAL SINGLE POINT ENERGY      -115.732796336539

CARTESIAN COORDINATES (ANGSTROEM)
---------------------------------
  C      5.879248    6.066946    0.264854
  O      4.644750    5.484827    0.033709
  H      3.940731    6.087676    0.317555
  H      5.948655    7.172369    0.120098
  H      6.144315    5.944105    1.290748
  H      6.708963    5.622361   -0.348714
  C      6.349488    1.958305   -0.293641
  O      6.402245    1.534939   -1.668295
  H      5.500103    1.659178   -2.082639
  H      7.230434    2.498772   -0.038362
  H      5.513317    2.605014   -0.130240
  H      6.275680    1.143591    0.346185

 Multiplicity           Mult            ....    1
 Number of Electrons    NEL             ....   18
 Basis Dimension        Dim             ....  172

ORBITAL ENERGIES
----------------

  NO   OCC          E(Eh)            E(eV)
   0   2.0000     -19.229840      -523.2705
   1   2.0000     -10.302514      -280.3457
   2   2.0000      -1.118416       -30.4336
   3   2.0000      -0.802124       -21.8269
   4   2.0000      -0.602433       -16.3930
   5   2.0000      -0.545114       -14.8333
   6   2.0000      -0.527803       -14.3622
   7   2.0000      -0.432324       -11.7641
   8   2.0000      -0.373234       -10.1562
   9   0.0000       0.079977         2.1763
  10   0.0000       0.112441         3.0597
  11   0.0000       0.152859         4.1595
  12   0.0000       0.160259         4.3609
  13   0.0000       0.192730         5.2445

MULLIKEN ATOMIC CHARGES
-----------------------
   0 C :   -0.002126
   1 O :    0.000363
   2 H :   -0.000004
   3 H :   -0.000033
   4 H :    0.000314
   5 H :    0.000831
   6 C :   -0.157966
   7 O :   -0.491831
   8 H :    0.318115
   9 H :    0.117366
  10 H :    0.104828
  11 H :    0.110144
Sum of atomic charges:    0.0000000

LOEWDIN ATOMIC CHARGES
----------------------
   0 C :   -0.001822
   1 O :   -0.001056
   2 H :   -0.000062
   3 H :   -0.000022
   4 H :   -0.000095
   5 H :   -0.000446
   6 C :   -0.351946
   7 O :   -0.115395
   8 H :    0.189578
   9 H :    0.100787
  10 H :    0.094578
  11 H :    0.085900

  Mayer bond orders larger than 0.1
B(  6-C ,  7-O ) :   1.0048 B(  6-C ,  9-H ) :   0.9774 B(  6-C , 10-H ) :   0.9871
B(  6-C , 11-H ) :   0.9754 B(  7-O ,  8-H ) :   0.8951

Dispersion correction           -0.000244145
FINAL SINGLE POINT ENERGY      -115.731238096760

DIPOLE MOMENT
-------------
                                X             Y             Z
Electronic contribution:      0.22138      -0.58378      -1.64062
Nuclear contribution   :     -0.81846       0.85027       1.96686
                        -----------------------------------------
Total Dipole Moment    :     -0.59708       0.26648       0.32624
                        -----------------------------------------
Magnitude (a.u.)       :      0.73072
Magnitude (Debye)      :      1.85734

Rotational constants in cm-1:     4.462845     0.813205     0.780907
Rotational constants in MHz : 133792.723314 24379.281866 23411.006381

                             ****ORCA TERMINATED NORMALLY****
TOTAL RUN TIME: 0 days 0 hours 0 minutes 59 seconds 332 msec
