                         Program Version 4.1.2  - RELEASE  -
|  1> #Run DFT-D3 single point of the dimer
|  2> ! wB97X-D3 def2-TZVP TIGHTSCF CHELPG PMODEL PAL8
|  3>
|  4> %base "22-18_DFT_AB"
|  5>
|  6> %scf
|  7> MaxIter 1000
|  8> end
|  9>
| 10> * xyz 0 1
| 11>   C                      -0.754698            -4.429643            3.939378
| 12>   O                      -1.196798            -4.428082            5.254249
| 13>   H                      -0.395699            -4.752719            5.779728
| 14>   H                      -0.383757            -5.340087            3.635676
| 15>   H                      -1.507620            -4.118996            3.190048
| 16>   H                      0.031200             -3.762485            3.769299
| 17>   C                      -2.362305            -8.537415            2.161125
| 18>   O                      -2.145167            -8.888710            0.809816
| 19>   H                      -2.903705            -8.484715            0.337570
| 20>   H                      -3.260686            -9.007105            2.541181
| 21>   H                      -1.600004            -8.988229            2.783314
| 22>   H                      -2.548693            -7.468420            2.287072
| 23> *
| 24>
| 25> #Run DFT-D3 single point of the molecule with dimer basis set
| 26> $new_job
| 27> %base "22-18_DFT_A"
| 28> ! wB97X-D3 def2-TZVP TIGHTSCF CHELPG PMODEL
| 29>
| 30> %scf
| 31> MaxIter 1000
| 32> end
| 33>
| 34> * xyz 0 1
| 35>   C                      -0.754698            -4.429643            3.939378
| 36>   O                      -1.196798            -4.428082            5.254249
| 37>   H                      -0.395699            -4.752719            5.779728
| 38>   H                      -0.383757            -5.340087            3.635676
| 39>   H                      -1.507620            -4.118996            3.190048
| 40>   H                      0.031200             -3.762485            3.769299
| 41>   C                    : -2.362305            -8.537415            2.161125
| 42>   O                    : -2.145167            -8.888710            0.809816
| 43>   H                    : -2.903705            -8.484715            0.337570
| 44>   H                    : -3.260686            -9.007105            2.541181
| 45>   H                    : -1.600004            -8.988229            2.783314
| 46>   H                    : -2.548693            -7.468420            2.287072
| 47> *
| 48>
| 49> #Run DFT-D3 single point of the particle with dimer basis set
| 50> $new_job
| 51> %base "22-18_DFT_B"
| 52> ! wB97X-D3 def2-TZVP TIGHTSCF CHELPG PMODEL
| 53>
| 54> %scf
| 55> MaxIter 1000
| 56> end
| 57>
| 58> * xyz 0 1
| 59>   C                    : -0.754698            -4.429643            3.939378
| 60>   O                    : -1.196798            -4.428082            5.254249
| 61>   H                    : -0.395699            -4.752719            5.779728
| 62>   H                    : -0.383757            -5.340087            3.635676
| 63>   H                    : -1.507620            -4.118996            3.190048
| 64>   H                    : 0.031200             -3.762485            3.769299
| 65>   C                      -2.362305            -8.537415            2.161125
| 66>   O                      -2.145167            -8.888710            0.809816
| 67>   H                      -2.903705            -8.484715            0.337570
| 68>   H                      -3.260686            -9.007105            2.541181
| 69>   H                      -1.600004            -8.988229            2.783314
| 70>   H                      -2.548693            -7.468420            2.287072
| 71> *
| 72>
| 73>                          ****END OF INPUT****
 Total Charge           Charge          ....    0
 Multiplicity           Mult            ....    1
 Number of Electrons    NEL             ....   36
Dispersion correction           -0.000867796
FINAL SINGLE POINT ENERGY      -231.459821656409
Dispersion correction           -0.000214268
FINAL SINGLE POINT ENERGY      -115.726269773403

CARTESIAN COORDINATES (ANGSTROEM)
---------------------------------
  C     -0.754698   -4.429643    3.939378
  O     -1.196798   -4.428082    5.254249
  H     -0.395699   -4.752719    5.779728
  H     -0.383757   -5.340087    3.635676
  H     -1.507620   -4.118996    3.190048
  H      0.031200   -3.762485    3.769299
  C     -2.362305   -8.537415    2.161125
  O     -2.145167   -8.888710    0.809816
  H     -2.903705   -8.484715    0.337570
  H     -3.260686   -9.007105    2.541181
  H     -1.600004   -8.988229    2.783314
  H     -2.548693   -7.468420    2.287072

 Multiplicity           Mult            ....    1
 Number of Electrons    NEL             ....   18
 Basis Dimension        Dim             ....  172

ORBITAL ENERGIES
----------------

  NO   OCC          E(Eh)            E(eV)
   0   2.0000     -19.232613      -523.3460
   1   2.0000     -10.309864      -280.5457
   2   2.0000      -1.135251       -30.8917
   3   2.0000      -0.794432       -21.6176
   4   2.0000      -0.611761       -16.6469
   5   2.0000      -0.544032       -14.8039
   6   2.0000      -0.521787       -14.1986
   7   2.0000      -0.442121       -12.0307
   8   2.0000      -0.370228       -10.0744
   9   0.0000       0.084052         2.2872
  10   0.0000       0.113007         3.0751
  11   0.0000       0.151254         4.1158
  12   0.0000       0.164950         4.4885
  13   0.0000       0.184228         5.0131

MULLIKEN ATOMIC CHARGES
-----------------------
   0 C :   -0.000128
   1 O :    0.000031
   2 H :    0.000002
   3 H :   -0.000142
   4 H :   -0.000097
   5 H :   -0.000035
   6 C :   -0.172325
   7 O :   -0.466940
   8 H :    0.314626
   9 H :    0.097608
  10 H :    0.122364
  11 H :    0.105036
Sum of atomic charges:    0.0000000

LOEWDIN ATOMIC CHARGES
----------------------
   0 C :   -0.000719
   1 O :   -0.000003
   2 H :   -0.000001
   3 H :   -0.000387
   4 H :   -0.000147
   5 H :   -0.000009
   6 C :   -0.391136
   7 O :   -0.084788
   8 H :    0.182888
   9 H :    0.090913
  10 H :    0.108294
  11 H :    0.095095

  Mayer bond orders larger than 0.1
B(  6-C ,  7-O ) :   1.0011 B(  6-C ,  9-H ) :   0.9769 B(  6-C , 10-H ) :   0.9732
B(  6-C , 11-H ) :   0.9765 B(  7-O ,  8-H ) :   0.8987

Dispersion correction           -0.000221991
FINAL SINGLE POINT ENERGY      -115.732798231508

DIPOLE MOMENT
-------------
                                X             Y             Z
Electronic contribution:      0.54627      -0.45615      -1.70798
Nuclear contribution   :     -1.11333       0.82055       1.95209
                        -----------------------------------------
Total Dipole Moment    :     -0.56707       0.36440       0.24411
                        -----------------------------------------
Magnitude (a.u.)       :      0.71690
Magnitude (Debye)      :      1.82221

Rotational constants in cm-1:     4.271613     0.843920     0.801064
Rotational constants in MHz : 128059.743368 25300.096169 24015.286556

                             ****ORCA TERMINATED NORMALLY****
TOTAL RUN TIME: 0 days 0 hours 1 minutes 1 seconds 221 msec
